Control file title. For DL_FIELD 4.10
49868
    1MOL     C1    1   1.577   1.980   7.604 -0.4231  0.3404  0.2822
    1MOL     C2    2   1.618   2.003   7.751 -0.0213 -0.1044 -0.4902
    1MOL     C3    3   1.698   2.126   7.763 -0.2435 -0.1282  0.5434
    1MOL     O4    4   1.817   2.125   7.805  0.4446 -0.1243 -0.2070
    1MOL     O5    5   1.638   2.240   7.719  0.3272  0.5379 -0.0714
    1MOL     H6    6   1.536   1.880   7.594  0.3194  0.1215 -0.7268
    1MOL     H7    7   1.502   2.052   7.573 -1.0162 -1.0469 -1.6449
    1MOL     H8    8   1.527   2.018   7.808 -0.5301 -0.3709 -1.2263
    1MOL     H9    9   1.708   2.302   7.710  1.1726  0.0142  2.5986
    1MOL    H10   10   1.659   1.991   7.532 -1.4148 -2.2771 -1.3090
    1MOL    C11   11   1.682   1.874   7.816 -0.2516 -0.4702  0.3722
    1MOL    C12   12   1.586   1.775   0.017  0.0659 -0.5221 -0.3962
    1MOL    C13   13   1.525   1.826   0.152  0.4114 -0.1462 -0.2072
    1MOL    O14   14   1.561   1.928   0.211  0.2019  0.4338  0.3800
    1MOL    O15   15   1.430   1.744   0.204 -0.5509 -0.2857 -0.5190
    1MOL    H16   16   1.749   1.902   0.045 -0.1948  1.1980 -0.2253
    1MOL    H17   17   1.753   1.837   7.742 -0.9751  0.0564 -0.5851
    1MOL    H18   18   1.504   1.780   7.799  1.1088  1.3977 -1.5018
    1MOL    H19   19   1.416   1.770   0.294 -1.7673 -0.8698 -0.5174
    1MOL    C20   20   1.652   1.634   0.024  0.4154  0.3727 -1.0498
    1MOL    C21   21   1.612   1.527   7.776 -0.3044 -0.1084  0.2479
    1MOL    C22   22   1.457   1.508   7.776 -0.3779  0.2954 -0.4651
    1MOL    O23   23   1.382   1.569   7.708 -0.7467  0.1219  0.6759
    1MOL    O24   24   1.411   1.419   0.022 -0.7085 -0.4208  0.4027
    1MOL    H25   25   1.628   1.588   0.120 -0.0975 -3.1897 -2.8363
    1MOL    H26   26   1.761   1.642   0.026  0.3260  1.4717  1.0997
    1MOL    H27   27   1.623   1.570   7.676 -0.9747 -0.4282  0.0353
    1MOL    H28   28   1.318   1.427   0.034 -0.8319  1.4488 -1.3838
    1MOL    C29   29   1.682   1.385   7.791 -0.6821 -0.9125  0.0989
    1MOL    C30   30   1.635   1.269   7.694 -0.5717 -0.3655 -0.4291
    1MOL    C31   31   1.704   1.147   7.742 -0.9907 -0.4022 -0.8267
    1MOL    O32   32   1.784   1.082   7.676 -0.3598 -0.0663  0.5750
    1MOL    O33   33   1.666   1.117   0.015 -0.2597 -0.0988 -0.4872
    1MOL    H34   34   1.676   1.348   0.041  1.6388 -0.3510  0.4479
    1MOL    H35   35   1.787   1.412   7.781 -1.1588  1.4674  1.0727
    1MOL    H36   36   1.530   1.247   7.713 -0.8327  2.0093  1.1646
    1MOL    H37   37   1.716   1.045   0.049 -1.1698  0.6018  2.4985
    1MOL    C38   38   1.653   1.302   7.544  0.3837  0.1582  0.1713
    1MOL    C39   39   1.564   1.214   7.442  0.4147 -0.3360  0.0476
    1MOL    C40   40   1.618   1.217   7.294 -0.2250 -0.5877  0.9936
    1MOL    O41   41   1.637   1.120   7.222 -0.5221  0.0350 -0.5542
    1MOL    O42   42   1.628   1.344   7.265  0.1622 -0.4815  0.0177
    1MOL    H43   43   1.756   1.297   7.508 -0.5148 -2.6674 -2.2024
    1MOL    H44   44   1.621   1.405   7.531 -1.0160 -0.2369  0.4183
    1MOL    H45   45   1.558   1.107   7.466 -1.8980 -0.1974  0.2339
    1MOL    H46   46   1.667   1.357   7.180  1.8373 -1.1350  0.6550
    1MOL    C47   47   1.419   1.274   7.446  0.4745 -0.1783  0.3799
    1MOL    C48   48   1.319   1.192   7.360 -0.0173  1.1107  0.1989
    1MOL    C49   49   1.179   1.267   7.349 -0.0733 -0.3122 -0.0931
    1MOL    O50   50   1.139   1.347   7.437  0.1790 -0.4662 -0.0158
    1MOL    O51   51   1.118   1.235   7.232 -0.0117  0.7159 -0.5911
    1MOL    H52   52   1.417   1.379   7.416 -1.3980 -0.0616  0.8342
    1MOL    H53   53   1.395   1.264   7.552  0.3835 -0.8695  0.2971
    1MOL    H54   54   1.352   1.198   7.256 -1.6420 -0.4819 -0.4393
    1MOL    H55   55   1.028   1.263   7.226 -0.0907 -0.0336 -3.7249
    1MOL    C56   56   1.301   1.048   7.399  0.5981  0.5922 -0.5585
    1MOL    C57   57   1.251   1.025   7.548  0.3650 -0.1968  0.3135
    1MOL    C58   58   1.359   0.984   7.650  0.8920  0.2839 -0.3814
    1MOL    O59   59   1.365   1.031   7.762  0.2003  0.1629 -0.0731
    1MOL    O60   60   1.448   0.892   7.597 -0.2424  0.2287 -0.4905
    1MOL    H61   61   1.389   0.985   7.389  0.7592  0.3330  2.0850
    1MOL    H62   62   1.232   0.994   7.335  0.2666 -0.8694  0.9805
    1MOL    H63   63   1.205   1.115   7.588 -0.0531 -0.3324  0.1313
    1MOL    H64   64   1.526   0.876   7.647 -0.1772  2.4169  0.1630
    1MOL    C65   65   1.116   0.936   7.562  0.1404  0.6067  0.7437
    1MOL    C66   66   1.108   0.802   7.496 -0.4362 -0.1800  0.4037
    1MOL    C67   67   0.963   0.756   7.480  0.2028  0.9391 -0.2125
    1MOL    O68   68   0.907   0.735   7.374  0.1461  0.4460 -0.4321
    1MOL    O69   69   0.914   0.743   7.603  0.5029 -0.4470 -0.0538
    1MOL    H70   70   1.034   1.002   7.535 -0.6687 -0.7376 -0.1316
    1MOL    H71   71   1.092   0.926   7.668 -3.9236  1.7600  0.0408
    1MOL    H72   72   1.153   0.807   7.397 -0.6050  0.2903  0.3514
    1MOL    H73   73   0.821   0.728   7.605  0.6999 -1.6195  1.9960
    1MOL    C74   74   1.183   0.687   7.568  0.4874  0.1967 -0.1889
    1MOL    C75   75   1.180   0.540   7.503  0.5053  0.0966 -0.4447
    1MOL    C76   76   1.253   0.450   7.599 -0.3652  0.4467 -0.4170
    1MOL    O77   77   1.206   0.352   7.661 -0.0883  0.1812 -0.2521
    1MOL    O78   78   1.384   0.485   7.608 -0.4876  0.5036 -0.7312
    1MOL    H79   79   1.153   0.673   7.671  1.4517  1.1870  0.2449
    1MOL    H80   80   1.287   0.717   7.586 -0.9432  4.3041  1.9550
    1MOL    H81   81   1.075   0.512   7.501 -0.0168  1.9936 -0.1464
    1MOL    H82   82   1.430   0.413   7.647  0.2181  1.6106  0.4847
    1MOL    C83   83   1.235   0.553   7.364 -0.2346  0.4137  0.3221
    1MOL    C84   84   1.246   0.426   7.276  0.0512  0.2546 -0.2716
    1MOL    C85   85   1.382   0.362   7.312  0.7249 -0.1044  0.5793
    1MOL    O86   86   1.395   0.256   7.372 -0.0292 -0.1588 -0.0436
    1MOL    O87   87   1.485   0.435   7.278  0.7400  0.2873  0.1651
    1MOL    H88   88   1.331   0.604   7.379 -0.1355 -0.1315  1.6598
    1MOL    H89   89   1.178   0.625   7.306 -0.6743 -0.7532 -0.7083
    1MOL    H90   90   1.166   0.358   7.304  0.8607 -0.0108  1.5113
    1MOL    H91   91   1.570   0.408   7.310  0.1165  0.3942  1.9449
    1MOL    C92   92   1.233   0.447   7.119  0.1769 -0.4329 -0.7125
    1MOL    C93   93   1.291   0.343   7.022 -0.4171  0.9033  0.2106
    1MOL    C94   94   1.289   0.416   6.884 -0.1012  0.9383 -0.1833
    1MOL    O95   95   1.396   0.443   6.828  0.8212  0.2562 -0.2787
    1MOL    O96   96   1.168   0.446   6.829  0.5418 -0.1836 -0.0687
    1MOL    H97   97   1.279   0.545   7.106 -4.5366  2.1510  0.8946
    1MOL    H98   98   1.128   0.465   7.096  0.7926  0.5965 -2.8515
    1MOL    H99   99   1.394   0.322   7.052  0.1975  1.2347 -1.5727
    1MOL   H100  100   1.094   0.434   6.887  0.8021  0.6471  0.4585
    1MOL   C101  101   1.209   0.214   7.024  0.0590 -0.0544 -0.5484
    1MOL   C102  102   1.256   0.105   6.923  0.4736  0.0007 -0.5590
    1MOL   C103  103   1.403   0.069   6.951 -0.2824 -0.3980  0.0993
    1MOL   O104  104   1.498   0.114   6.891 -0.3143  0.5485 -0.2910
    1MOL   O105  105   1.416   7.839   7.059  0.0997 -0.5597  0.9237
    1MOL   H106  106   1.104   0.235   7.004 -0.8102 -1.9776  1.7151
    1MOL   H107  107   1.214   0.157   7.117 -1.1072  0.2929 -0.2564
    1MOL   H108  108   1.203   0.016   6.955 -2.8807  1.7746 -0.8853
    1MOL   H109  109   1.502   7.838   7.099  0.1295 -1.9700  0.8311
    1MOL   C110  110   1.227   0.127   6.772 -0.1615 -0.0823 -0.1511
    1MOL   C111  111   1.155   0.021   6.690  0.2001 -0.1536 -0.6279
    1MOL   C112  112   1.008   0.042   6.709 -0.7663 -0.3962  0.7523
    1MOL   O113  113   0.961   0.152   6.720  0.3675  0.4042 -0.4044
    1MOL   O114  114   0.928   7.782   6.703  0.1821  0.0060  0.7822
    1MOL   H115  115   1.323   0.147   6.725 -0.6428 -1.5247 -1.8204
    1MOL   H116  116   1.182   0.223   6.747  0.6585 -0.5235 -3.6402
    1MOL   H117  117   1.171   0.040   6.584 -1.7441 -1.2598 -1.1520
    1MOL   H118  118   0.836   7.796   6.721 -0.0972 -0.5294 -0.1763
    1MOL   C119  119   1.211   7.731   6.681  0.3405 -0.8004  0.1119
    1MOL   C120  120   1.350   7.698   6.629  0.3558 -0.0046  0.1807
    1MOL   C121  121   1.376   7.756   6.491  0.0601  0.2874  0.2328
    1MOL   O122  122   1.301   7.737   6.393  0.1676 -0.3627  1.0536
    1MOL   O123  123   1.498   7.818   6.485 -0.4819  0.2463 -0.2382
    1MOL   H124  124   1.133   7.676   6.629  2.4048  0.1696 -4.1837
    1MOL   H125  125   1.219   7.695   6.784 -0.4019 -2.5656 -0.4266
    1MOL   H126  126   1.415   7.745   6.703 -1.0515 -2.1707  2.8862
    1MOL   H127  127   1.511   7.838   6.394 -1.0135 -1.3675 -0.6808
    1MOL   C128  128   1.362   7.539   6.623 -0.0202 -0.2922 -0.1026
    1MOL   C129  129   1.493   7.468   6.566  0.0519  0.2636 -0.0910
    1MOL   C130  130   1.481   7.435   6.416  0.1220  0.8787 -0.0475
    1MOL   O131  131   1.397   7.354   6.374 -0.3852  0.4565 -0.4342
    1MOL   O132  132   1.581   7.490   6.340  0.1197 -0.3513  0.0291
    1MOL   H133  133   1.281   7.497   6.565  2.5001 -0.8557 -3.3511
    1MOL   H134  134   1.348   7.489   6.719 -0.8363  2.4053  1.2513
    1MOL   H135  135   1.580   7.528   6.593  0.6339 -0.3161 -0.6737
    1MOL   H136  136   1.581   7.472   6.248  0.4631  0.5548 -0.1495
    1MOL   C137  137   1.513   7.325   6.638 -0.5831  0.5382 -0.1558
    1MOL   C138  138   1.631   7.232   6.591 -0.5775  0.3745  0.5138
    1MOL   C139  139   1.614   7.084   6.631  0.2487 -0.9172 -0.7836
    1MOL   O140  140   1.690   7.023   6.710  0.3612  0.5040 -0.5526
    1MOL   O141  141   1.521   7.015   6.563  0.0101  0.0598  0.3528
    1MOL   H142  142   1.426   7.260   6.625  1.5366 -2.1528 -1.5295
    1MOL   H143  143   1.512   7.347   6.744  2.7187 -0.5841  0.1843
    1MOL   H144  144   1.627   7.215   6.483 -1.6550  0.8349  0.4757
    1MOL   H145  145   1.523   6.925   6.593  0.1523  0.3418  1.2054
    1MOL   C146  146   1.768   7.287   6.632 -0.0923  0.9216 -0.0135
    1MOL   C147  147   1.882   7.273   6.525  0.0313 -0.7069  0.0500
    1MOL   C148  148   1.932   7.129   6.517  0.3992 -0.2011  0.0537
    1MOL   O149  149   1.991   7.070   6.609  0.1421  0.5027 -0.1604
    1MOL   O150  150   1.894   7.064   6.405 -0.1047  0.4565  0.0064
    1MOL   H151  151   1.797   7.234   6.723  0.1303 -0.3056 -0.7919
    1MOL   H152  152   1.772   7.391   6.663 -2.2561  1.0550 -0.0790
    1MOL   H153  153   1.831   7.303   6.434  3.3245  2.7812 -0.7726
    1MOL   H154  154   1.914   6.972   6.408 -0.4327  0.3161 -1.4949
    1MOL   C155  155   2.001   7.375   6.542  0.1872 -0.3584  0.3601
    1MOL   C156  156   1.974   7.530   6.506 -0.1335 -0.7440  1.1459
    1MOL   C157  157   1.984   7.551   6.352 -0.2099  0.7175 -0.2064
    1MOL   O158  158   1.881   7.577   6.286 -0.2344  0.9391  0.0349
    1MOL   O159  159   2.115   7.549   6.304  0.2723  0.4710 -0.1323
    1MOL   H160  160   2.083   7.349   6.475  0.8480  2.6620 -0.0727
    1MOL   H161  161   2.034   7.358   6.644  0.8796  1.2138  0.4066
    1MOL   H162  162   1.869   7.553   6.527 -0.8124 -2.2063 -0.5449
    1MOL   H163  163   2.117   7.598   6.224  0.7027  1.9103  0.7502
    1MOL   C164  164   2.077   7.623   6.585  0.7063 -0.4743  0.2010
    1MOL   C165  165   2.070   7.771   6.552  0.2847 -0.1651  0.5265
    1MOL   C166  166   2.193   7.835   6.614 -0.2420 -0.1891 -0.5314
    1MOL   O167  167   2.250   0.087   6.564  0.3165 -0.0112  0.0459
    1MOL   O168  168   2.235   7.780   6.734 -0.6121  0.2627  0.3999
    1MOL   H169  169   2.178   7.588   6.564  0.1777 -1.7898 -0.2201
    1MOL   H170  170   2.062   7.605   6.691  1.8087 -0.1014  0.4259
    1MOL   H171  171   2.079   7.798   6.447  0.8826 -1.5148  0.2194
    1MOL   H172  172   2.320   7.812   6.760  0.4125  0.4828 -3.0150
    1MOL   C173  173   1.949   7.850   6.601 -0.5606  0.9605  0.1793
    1MOL   C174  174   1.930   0.137   6.533 -0.1423 -0.4603 -0.5542
    1MOL   C175  175   1.777   0.165   6.500  0.1116 -0.5013  0.1551
    1MOL   O176  176   1.736   0.191   6.387  0.4105 -0.5485 -0.1216
    1MOL   O177  177   1.694   0.157   6.608 -0.1802 -0.7906 -0.5037
    1MOL   H178  178   1.953   0.003   6.710  0.1779 -2.8913  0.4298
    1MOL   H179  179   1.855   7.799   6.576 -0.7944  1.2024  0.5509
    1MOL   H180  180   1.972   0.211   6.601  0.7271 -1.4862  0.0391
    1MOL   H181  181   1.607   0.184   6.582 -0.0861 -0.3162 -0.3287
    1MOL   H182  182   1.980   0.148   6.436  0.1107 -0.6539 -0.4470
    2MOL     C1  183   2.169   3.435   2.240  0.1703 -0.1775 -0.3663
    2MOL     C2  184   2.074   3.367   2.346 -0.1752  0.2297  0.4944
    2MOL     C3  185   2.117   3.222   2.370 -0.3956 -0.6326 -0.9252
    2MOL     O4  186   2.038   3.128   2.389 -0.1331  0.2585 -0.3624
    2MOL     O5  187   2.252   3.214   2.392 -0.0391 -0.5279 -0.6388
    2MOL     H6  188   2.267   3.435   2.287  0.2633 -0.7043 -0.5628
    2MOL     H7  189   2.159   3.371   2.152  3.3996 -0.9817 -0.2270
    2MOL     H8  190   2.086   3.420   2.441 -0.0910 -3.0374  2.3877
    2MOL     H9  191   2.286   3.130   2.418 -2.3439 -0.3895  3.1075
    2MOL    H10  192   2.145   3.536   2.205 -0.1757 -0.2150 -0.2372
    2MOL    C11  193   1.924   3.376   2.303 -0.5288  0.2583 -0.6591
    2MOL    C12  194   1.858   3.517   2.306  0.2734 -0.5667 -0.2667
    2MOL    C13  195   1.831   3.559   2.451 -0.1635  0.6247 -0.1656
    2MOL    O14  196   1.827   3.471   2.537 -0.1898 -0.0570  0.0984
    2MOL    O15  197   1.813   3.696   2.469 -0.8437  0.2213  0.2956
    2MOL    H16  198   1.861   3.306   2.359  0.3026  1.8222  2.3126
    2MOL    H17  199   1.921   3.340   2.200  1.1186  2.1322 -1.3849
    2MOL    H18  200   1.935   3.583   2.266  1.4011 -2.7428 -1.7934
    2MOL    H19  201   1.779   3.707   2.556 -2.2327 -0.3800 -0.1584
    2MOL    C20  202   1.735   3.520   2.214  0.6253  0.6563 -0.3464
    2MOL    C21  203   1.735   3.497   2.058  1.0194 -0.3458 -0.6821
    2MOL    C22  204   1.847   3.574   1.993 -1.0910 -0.2600 -0.0697
    2MOL    O23  205   1.848   3.698   1.992 -0.0089  0.3006 -0.2996
    2MOL    O24  206   1.952   3.491   1.967 -0.5303  0.3280  0.3735
    2MOL    H25  207   1.695   3.621   2.216  1.1864  0.8654  0.8755
    2MOL    H26  208   1.661   3.453   2.257  1.8851 -1.5159 -1.4409
    2MOL    H27  209   1.749   3.391   2.041  1.5278 -0.3593 -0.1952
    2MOL    H28  210   2.018   3.548   1.931 -0.2715 -0.4858 -0.4609
    2MOL    C29  211   1.600   3.544   1.994  0.6691  0.2388 -0.2619
    2MOL    C30  212   1.564   3.509   1.848  0.0362 -0.2267  0.0506
    2MOL    C31  213   1.614   3.382   1.797  0.6206  0.4969  0.4207
    2MOL    O32  214   1.702   3.367   1.712  0.2407 -0.3503  0.1372
    2MOL    O33  215   1.554   3.276   1.857 -0.3811  0.1373  0.3973
    2MOL    H34  216   1.602   3.653   1.999  2.1540  0.1925  0.3780
    2MOL    H35  217   1.522   3.501   2.058  1.4746  2.8311  2.6338
    2MOL    H36  218   1.455   3.500   1.845 -0.1215  1.0933  1.1062
    2MOL    H37  219   1.586   3.191   1.831 -1.6209 -0.8102  1.8408
    2MOL    C38  220   1.596   3.635   1.753  1.0269 -0.4368  0.4796
    2MOL    C39  221   1.481   3.741   1.729 -0.4519  0.0349 -0.2129
    2MOL    C40  222   1.379   3.697   1.621  0.0557 -0.7457 -0.2119
    2MOL    O41  223   1.399   3.624   1.531  0.5837  0.0397 -0.3086
    2MOL    O42  224   1.257   3.748   1.662  0.3684  0.2721  0.0490
    2MOL    H43  225   1.633   3.612   1.653 -2.4687 -1.6946 -0.5842
    2MOL    H44  226   1.674   3.694   1.802  0.6035  0.8500 -0.3584
    2MOL    H45  227   1.428   3.758   1.823 -0.6094  2.5596 -0.7485
    2MOL    H46  228   1.179   3.724   1.615  0.7007  1.6762 -1.2530
    2MOL    C47  229   1.535   3.874   1.681  0.2653 -0.7608  0.4392
    2MOL    C48  230   1.598   3.974   1.786  0.0653  0.4345  0.2975
    2MOL    C49  231   1.511   3.992   1.913 -0.3045  0.5749 -0.0405
    2MOL    O50  232   1.547   3.967   2.026  0.1338  0.3712  0.2244
    2MOL    O51  233   1.396   4.049   1.883  0.3306  0.3817 -0.2215
    2MOL    H52  234   1.456   3.936   1.641 -0.7771 -2.3322 -0.0004
    2MOL    H53  235   1.605   3.868   1.598  0.6954  0.0534  0.7380
    2MOL    H54  236   1.692   3.934   1.822 -0.4589 -1.4934 -0.3538
    2MOL    H55  237   1.344   4.061   1.961  1.3983 -1.8634  0.9027
    2MOL    C56  238   1.633   4.109   1.715  0.2797 -0.2868  0.2429
    2MOL    C57  239   1.758   4.112   1.626 -0.8253  0.6422 -0.5221
    2MOL    C58  240   1.897   4.089   1.692  0.8100  0.1792 -0.1135
    2MOL    O59  241   1.987   4.171   1.702  0.2142  0.6522  0.2760
    2MOL    O60  242   1.917   3.959   1.724  0.0028 -0.2049 -0.0823
    2MOL    H61  243   1.655   4.177   1.797 -0.6782  0.4632 -0.1178
    2MOL    H62  244   1.545   4.149   1.665  0.5133 -0.7961 -0.5821
    2MOL    H63  245   1.747   4.026   1.560  1.1776  2.5273 -3.5021
    2MOL    H64  246   2.008   3.936   1.739 -0.3787 -1.6784  0.0526
    2MOL    C65  247   1.760   4.237   1.533 -0.6306  0.0188 -0.4679
    2MOL    C66  248   1.650   4.254   1.427  0.3695  0.2685  0.1045
    2MOL    C67  249   1.637   4.127   1.344  0.6705 -0.2688 -0.0739
    2MOL    O68  250   1.733   4.055   1.322  0.0206  0.2872 -0.2745
    2MOL    O69  251   1.512   4.104   1.292 -0.3821  1.0964  0.0894
    2MOL    H70  252   1.859   4.241   1.487 -0.6414  1.0188 -0.4268
    2MOL    H71  253   1.755   4.316   1.608 -2.7634 -0.8639  0.3560
    2MOL    H72  254   1.551   4.273   1.467  0.7939  0.8060  0.9183
    2MOL    H73  255   1.511   4.029   1.234 -0.0052  0.0867  1.3421
    2MOL    C74  256   1.684   4.371   1.320  0.2289  0.4792 -0.1282
    2MOL    C75  257   1.685   4.507   1.387  0.1488  0.3702 -0.1303
    2MOL    C76  258   1.550   4.551   1.433 -0.4723 -0.7847 -0.1497
    2MOL    O77  259   1.460   4.586   1.356 -0.2477 -0.5634 -0.0605
    2MOL    O78  260   1.541   4.560   1.566  0.1539  0.2825  0.1479
    2MOL    H79  261   1.608   4.373   1.242  0.3911 -0.9394 -0.3468
    2MOL    H80  262   1.783   4.350   1.280  1.1848  0.9649  1.8922
    2MOL    H81  263   1.754   4.508   1.471 -0.3346  1.3610  0.2646
    2MOL    H82  264   1.463   4.605   1.596  0.4152  0.3266  0.7707
    2MOL    C83  265   1.744   4.606   1.287  0.1327  0.6070 -0.0942
    2MOL    C84  266   1.754   4.756   1.312 -0.6596  0.6023 -0.4899
    2MOL    C85  267   1.800   4.833   1.186 -0.6484  0.3976 -0.2983
    2MOL    O86  268   1.838   4.948   1.200 -0.0618  0.6828  0.0669
    2MOL    O87  269   1.780   4.770   1.068 -0.2072 -0.4414  0.5056
    2MOL    H88  270   1.686   4.596   1.195 -0.1733  1.7078 -0.0356
    2MOL    H89  271   1.840   4.564   1.254 -0.5224  0.4618 -1.8639
    2MOL    H90  272   1.654   4.798   1.313 -1.1538 -0.5134  2.3599
    2MOL    H91  273   1.795   4.811   0.985 -1.5733 -1.0219 -0.0495
    2MOL    C92  274   1.834   4.788   1.439  0.3332 -0.4384  0.0472
    2MOL    C93  275   1.744   4.875   1.535 -0.4419  0.0000 -0.1485
    2MOL    C94  276   1.732   5.021   1.489  0.5370 -0.2458 -0.3109
    2MOL    O95  277   1.635   5.068   1.421 -0.1058 -0.2475  0.1838
    2MOL    O96  278   1.842   5.094   1.524  0.3988  0.0967  0.0770
    2MOL    H97  279   1.921   4.852   1.421  0.7738 -1.2421 -0.7395
    2MOL    H98  280   1.874   4.700   1.489  0.4882 -0.6579 -0.4660
    2MOL    H99  281   1.646   4.826   1.531 -0.1642 -0.4810 -1.2515
    2MOL   H100  282   1.830   5.182   1.492 -1.4037 -0.8023 -1.8698
    2MOL   C101  283   1.796   4.862   1.681  0.0559 -0.0926 -0.0154
    2MOL   C102  284   1.712   4.786   1.792 -0.2822 -0.2542 -0.1240
    2MOL   C103  285   1.572   4.852   1.803 -0.4722  0.0606  0.7186
    2MOL   O104  286   1.470   4.796   1.772  0.1840  0.0070 -0.2634
    2MOL   O105  287   1.566   4.982   1.842  0.5621  0.4062 -0.4543
    2MOL   H106  288   1.808   4.959   1.730  0.4363 -1.4740  2.7556
    2MOL   H107  289   1.889   4.806   1.682 -0.8820 -1.7345 -1.9381
    2MOL   H108  290   1.692   4.682   1.767  3.9219 -0.9242 -1.2287
    2MOL   H109  291   1.477   5.014   1.833 -1.3148 -4.2145  0.4767
    2MOL   C110  292   1.776   4.795   1.936 -0.0332 -0.1007 -0.1754
    2MOL   C111  293   1.927   4.744   1.945  1.0773  0.3325 -0.7342
    2MOL   C112  294   1.932   4.599   1.913  0.8246 -0.3268 -0.4750
    2MOL   O113  295   1.868   4.520   1.975  0.2341  0.1726 -0.1997
    2MOL   O114  296   2.006   4.576   1.803 -0.1428 -0.3426  0.1437
    2MOL   H115  297   1.708   4.735   1.995 -0.8529 -0.3408 -1.3499
    2MOL   H116  298   1.776   4.900   1.966  0.3797 -0.3426  0.6929
    2MOL   H117  299   1.982   4.803   1.871  0.4411  0.9617 -0.7098
    2MOL   H118  300   2.010   4.487   1.772 -1.1915  0.1083 -1.3723
    2MOL   C119  301   1.985   4.771   2.087 -0.9583  0.2995 -0.4350
    2MOL   C120  302   2.132   4.809   2.101  1.0299  0.1332 -0.1320
    2MOL   C121  303   2.231   4.696   2.070 -0.4212  0.7246  0.0252
    2MOL   O122  304   2.207   4.571   2.070 -0.3313 -0.4890 -0.0608
    2MOL   O123  305   2.353   4.746   2.039 -0.5926 -0.6091  0.3507
    2MOL   H124  306   1.959   4.695   2.161 -3.5319  1.2455 -0.3174
    2MOL   H125  307   1.929   4.862   2.110 -1.0560 -0.1616  1.2265
    2MOL   H126  308   2.146   4.890   2.030 -1.1825 -0.4363 -1.2455
    2MOL   H127  309   2.355   4.841   2.039 -0.1685 -0.6155  0.8241
    2MOL   C128  310   2.164   4.864   2.243 -0.1133  0.2473 -0.7660
    2MOL   C129  311   2.084   4.985   2.294 -0.2142 -0.4073 -0.1665
    2MOL   C130  312   2.084   5.109   2.204 -0.2370  0.4788  0.1437
    2MOL   O131  313   1.979   5.161   2.167 -0.1438 -0.4070  0.3187
    2MOL   O132  314   2.209   5.146   2.169 -0.5911 -0.1029  0.7662
    2MOL   H133  315   2.270   4.888   2.240 -0.5474  2.3079 -0.6594
    2MOL   H134  316   2.140   4.779   2.308  1.5985 -0.2672 -0.8014
    2MOL   H135  317   1.984   4.947   2.316 -0.0170 -1.1026 -0.4767
    2MOL   H136  318   2.278   5.085   2.191  0.6497  0.2346 -1.9685
    2MOL   C137  319   2.138   5.037   2.429  0.1230 -0.4122 -0.0620
    2MOL   C138  320   2.148   4.928   2.540  0.3347 -0.0774  0.3075
    2MOL   C139  321   2.102   4.995   2.670  0.1193 -0.0681  0.4867
    2MOL   O140  322   1.983   4.990   2.699  0.9170  0.3095 -0.4210
    2MOL   O141  323   2.199   5.049   2.757  0.1660 -0.3100 -0.2383
    2MOL   H142  324   2.062   5.106   2.467  0.9383 -0.5935  1.9571
    2MOL   H143  325   2.236   5.086   2.423  0.0163 -0.1750  0.0980
    2MOL   H144  326   2.070   4.855   2.519 -0.6796  0.4144  2.2120
    2MOL   H145  327   2.165   5.064   2.844 -4.3578  1.9540 -2.2272
    2MOL   C146  328   2.286   4.854   2.558 -0.2378  0.0116 -0.2284
    2MOL   C147  329   2.282   4.707   2.612 -0.3262 -0.2193 -0.5079
    2MOL   C148  330   2.416   4.670   2.677  0.2155  0.5555  0.5442
    2MOL   O149  331   2.521   4.682   2.619 -0.4605  0.3474  0.5452
    2MOL   O150  332   2.414   4.602   2.793  0.3282 -0.2321 -0.1240
    2MOL   H151  333   2.346   4.918   2.623 -1.4994  0.1128  0.8554
    2MOL   H152  334   2.323   4.861   2.456 -0.5672  1.7242 -0.2439
    2MOL   H153  335   2.208   4.711   2.692  2.0658  3.1852  1.6602
    2MOL   H154  336   2.502   4.569   2.806 -0.5864 -3.1967 -0.8862
    2MOL   C155  337   2.245   4.602   2.502 -0.8445  0.3274  0.3060
    2MOL   C156  338   2.240   4.450   2.535 -0.4777 -0.1961  0.0938
    2MOL   C157  339   2.241   4.359   2.404  0.8657  0.4085 -0.2807
    2MOL   O158  340   2.142   4.296   2.365  0.2664  0.2522  0.1761
    2MOL   O159  341   2.362   4.375   2.333  1.0064  0.4303 -0.1766
    2MOL   H160  342   2.318   4.613   2.422 -0.5702 -2.7015  0.0813
    2MOL   H161  343   2.148   4.623   2.457  0.3124  1.4646 -1.7103
    2MOL   H162  344   2.339   4.432   2.577 -0.5920  1.5986  1.2254
    2MOL   H163  345   2.349   4.334   2.248  0.4157  2.3824 -1.0429
    2MOL   C164  346   2.141   4.400   2.644 -0.0077  1.1129 -0.6444
    2MOL   C165  347   2.165   4.270   2.731  0.6041  0.7808 -0.6712
    2MOL   C166  348   2.300   4.274   2.803  0.4796  0.0253 -0.3015
    2MOL   O167  349   2.400   4.207   2.768 -0.2763  0.1075  0.5965
    2MOL   O168  350   2.282   4.348   2.920  0.1943 -0.1265 -0.7915
    2MOL   H169  351   2.041   4.405   2.600 -0.6044  1.5314  0.7131
    2MOL   H170  352   2.142   4.488   2.709 -3.1874  0.6400  0.1591
    2MOL   H171  353   2.097   4.279   2.815  2.3535 -0.7396  0.9614
    2MOL   H172  354   2.361   4.346   2.972 -1.1078 -0.8567  1.1876
    2MOL   C173  355   2.139   4.130   2.660  0.4990  0.3043 -0.1014
    2MOL   C174  356   2.114   4.004   2.744 -0.6651 -0.2405 -0.5946
    2MOL   C175  357   1.988   3.996   2.826 -0.8118  0.2097 -0.3121
    2MOL   O176  358   1.875   3.967   2.789 -0.1891 -0.3851 -0.3973
    2MOL   O177  359   2.011   4.048   2.954 -0.1540 -0.8003  0.5363
    2MOL   H178  360   2.226   4.105   2.599  1.1118  1.4403  0.2961
    2MOL   H179  361   2.053   4.140   2.592 -0.3758 -1.2211  0.7738
    2MOL   H180  362   2.116   3.921   2.674  0.0080 -1.1683  0.5173
    2MOL   H181  363   1.927   4.049   2.998  0.2105  0.9403  1.2300
    2MOL   H182  364   2.181   3.974   2.825  0.0977 -0.3709 -1.2720
    3MOL     C1  365   5.104   6.411   3.801 -0.1977  0.2411 -0.3985
    3MOL     C2  366   5.130   6.355   3.935  0.0184 -0.3897 -0.4615
    3MOL     C3  367   5.177   6.469   4.034 -0.2839  0.2367  0.3331
    3MOL     O4  368   5.105   6.511   4.127  0.4025  0.3547 -0.5682
    3MOL     O5  369   5.300   6.526   4.002 -0.0651  0.1920 -0.2436
    3MOL     H6  370   5.026   6.487   3.807 -0.1214  0.2012  1.4573
    3MOL     H7  371   5.191   6.462   3.758  0.4583 -0.2864  0.3024
    3MOL     H8  372   5.033   6.316   3.967 -0.0982  0.2928  0.0156
    3MOL     H9  373   5.326   6.595   4.061  0.2264  1.2150 -1.5205
    3MOL    H10  374   5.069   6.339   3.727 -2.9670 -0.6409  1.6736
    3MOL    C11  375   5.221   6.235   3.937 -0.0557  0.2423  0.4010
    3MOL    C12  376   5.176   6.113   3.855 -0.0047 -0.3307  0.0147
    3MOL    C13  377   5.041   6.059   3.900 -0.4537 -0.7558 -0.1433
    3MOL    O14  378   5.023   6.043   4.022  0.3152  0.9449  0.0333
    3MOL    O15  379   4.952   6.034   3.806 -0.2174 -0.3335  0.2364
    3MOL    H16  380   5.217   6.200   4.040 -0.6828  0.6176  0.5071
    3MOL    H17  381   5.321   6.267   3.908 -0.2999  0.7471  0.1109
    3MOL    H18  382   5.177   6.138   3.749 -0.2764 -4.3835 -1.0444
    3MOL    H19  383   4.874   5.985   3.829 -2.0265  1.5827 -1.5605
    3MOL    C20  384   5.288   6.002   3.884  0.1937  0.2373  0.2793
    3MOL    C21  385   5.277   5.863   3.827  0.0030  0.1942  0.2853
    3MOL    C22  386   5.340   5.758   3.928 -0.7529 -1.0767 -0.1420
    3MOL    O23  387   5.439   5.690   3.912  0.0043  0.5417  0.4228
    3MOL    O24  388   5.265   5.761   4.042 -0.0772  0.2211  0.2423
    3MOL    H25  389   5.297   5.992   3.992 -0.4988 -0.3015  0.2936
    3MOL    H26  390   5.382   6.039   3.843  0.6284  0.6629  1.6220
    3MOL    H27  391   5.172   5.837   3.816  0.2915 -0.0533 -2.2177
    3MOL    H28  392   5.292   5.697   4.106  2.5734  0.3095 -0.7337
    3MOL    C29  393   5.338   5.840   3.687 -0.3862  0.5039 -0.4272
    3MOL    C30  394   5.274   5.911   3.560 -0.0246  0.3637  0.1721
    3MOL    C31  395   5.125   5.875   3.536 -0.5866  0.1268 -0.1455
    3MOL    O32  396   5.069   5.788   3.599  0.5815  0.1162  0.5839
    3MOL    O33  397   5.077   5.959   3.443  0.4299  0.3448  0.4996
    3MOL    H34  398   5.340   5.735   3.659  0.7206  1.0704 -2.5842
    3MOL    H35  399   5.441   5.873   3.679 -0.1463  0.4161  2.0690
    3MOL    H36  400   5.268   6.019   3.570  4.1033  0.6696  0.0810
    3MOL    H37  401   4.990   5.926   3.425 -0.5645  2.9986  0.1256
    3MOL    C38  402   5.355   5.879   3.433 -0.0986  0.1799  0.6272
    3MOL    C39  403   5.476   5.970   3.404 -0.2288  0.5921  0.0427
    3MOL    C40  404   5.458   6.069   3.289 -0.5554  0.3791 -0.3109
    3MOL    O41  405   5.380   6.048   3.192 -0.0577  0.7611 -0.5135
    3MOL    O42  406   5.550   6.167   3.293  0.3580  0.4328  0.3599
    3MOL    H43  407   5.289   5.872   3.346  0.5834 -0.2132  0.1375
    3MOL    H44  408   5.394   5.778   3.447  2.3093  0.7028 -2.0420
    3MOL    H45  409   5.496   6.039   3.486 -3.1078  0.4012  0.9949
    3MOL    H46  410   5.565   6.201   3.206 -0.5072 -0.8852 -0.3156
    3MOL    C47  411   5.617   5.896   3.404 -0.0042 -0.2341 -0.1985
    3MOL    C48  412   5.624   5.792   3.290  0.3110  0.3347 -0.2817
    3MOL    C49  413   5.587   5.653   3.332 -0.8323  0.1182 -0.0645
    3MOL    O50  414   5.565   5.606   3.443  0.7846 -0.3614  0.2666
    3MOL    O51  415   5.583   5.577   3.218 -0.5602 -0.6999  0.5632
    3MOL    H52  416   5.643   5.846   3.498  0.1656 -0.1954 -0.2240
    3MOL    H53  417   5.699   5.967   3.394 -1.9606  2.0293 -0.4108
    3MOL    H54  418   5.545   5.825   3.222 -1.7474 -3.4163  0.1535
    3MOL    H55  419   5.551   5.490   3.238 -2.1757 -0.4604 -0.8357
    3MOL    C56  420   5.753   5.798   3.199 -0.2461 -0.7455  0.1911
    3MOL    C57  421   5.880   5.749   3.276  0.0125 -0.1100  0.7481
    3MOL    C58  422   6.001   5.845   3.263  0.1734  0.2183  0.0029
    3MOL    O59  423   6.050   5.897   3.361 -0.4934  0.7394 -0.1794
    3MOL    O60  424   6.056   5.863   3.136 -0.8364 -0.1878 -0.2099
    3MOL    H61  425   5.766   5.899   3.159 -3.0779 -0.8019 -0.9496
    3MOL    H62  426   5.738   5.736   3.110  0.2501  0.4042 -0.7073
    3MOL    H63  427   5.867   5.740   3.383 -1.5930  1.1478  0.6674
    3MOL    H64  428   6.132   5.919   3.144 -0.7793 -0.4455  1.2676
    3MOL    C65  429   5.922   5.603   3.238  0.1770  0.0814 -0.1549
    3MOL    C66  430   5.996   5.529   3.359  0.1016  0.0920  0.0282
    3MOL    C67  431   6.058   5.401   3.305 -0.6118 -0.7899  0.4290
    3MOL    O68  432   6.178   5.378   3.295 -0.0255  0.2814  0.2683
    3MOL    O69  433   5.968   5.307   3.266  0.1652  0.1834 -0.3445
    3MOL    H70  434   5.980   5.593   3.146  0.2436 -1.3216  0.0301
    3MOL    H71  435   5.831   5.555   3.204  0.5108  1.1795 -2.7309
    3MOL    H72  436   6.073   5.597   3.395 -2.6755  3.2249  0.3858
    3MOL    H73  437   6.018   5.237   3.228  1.4903  0.5192  0.7631
    3MOL    C74  438   5.896   5.501   3.475 -0.1621 -0.6329  0.2087
    3MOL    C75  439   5.949   5.417   3.594 -0.6030  0.0962  0.3494
    3MOL    C76  440   5.829   5.368   3.680  0.2467 -0.1640 -0.0264
    3MOL    O77  441   5.802   5.247   3.689 -0.4114  0.2041  0.5825
    3MOL    O78  442   5.771   5.465   3.754  0.7421 -0.5602 -0.2590
    3MOL    H79  443   5.811   5.451   3.429 -0.8875  0.6130  0.1589
    3MOL    H80  444   5.869   5.597   3.520 -2.4727 -0.3594 -1.6091
    3MOL    H81  445   5.989   5.318   3.576 -0.7370  0.4348 -1.9070
    3MOL    H82  446   5.688   5.427   3.778  1.2305 -0.9584  0.8357
    3MOL    C83  447   6.052   5.504   3.672  0.3311  0.2460 -0.5785
    3MOL    C84  448   6.106   5.450   3.805  0.8078  0.2167 -0.5325
    3MOL    C85  449   6.207   5.548   3.853 -0.7081 -0.1525  0.2310
    3MOL    O86  450   6.325   5.556   3.816  0.4487 -0.6137  0.1143
    3MOL    O87  451   6.150   5.620   3.948 -0.1233 -0.1240  0.1322
    3MOL    H88  452   6.005   5.600   3.688 -1.4343 -0.2050 -2.8939
    3MOL    H89  453   6.133   5.536   3.606  1.7656  0.5710  1.2998
    3MOL    H90  454   6.026   5.436   3.878 -1.9213 -1.1561 -3.6826
    3MOL    H91  455   6.194   5.704   3.948 -0.8674  0.2742  0.4692
    3MOL    C92  456   6.157   5.305   3.788  0.3981  0.4690 -0.4426
    3MOL    C93  457   6.161   5.223   3.921  0.0687  0.2014  0.1518
    3MOL    C94  458   6.258   5.106   3.911  0.6204 -0.1199  0.4536
    3MOL    O95  459   6.281   5.033   3.816  0.1613  0.2104  0.0169
    3MOL    O96  460   6.319   5.089   4.028 -0.4019 -0.1009 -0.6000
    3MOL    H97  461   6.250   5.306   3.731  0.0212  1.6361 -1.0496
    3MOL    H98  462   6.100   5.236   3.726 -0.8570  0.1776  0.9845
    3MOL    H99  463   6.199   5.280   4.006  0.4449  0.4217 -0.1653
    3MOL   H100  464   6.397   5.035   4.017  0.0539  0.6259 -0.9704
    3MOL   C101  465   6.026   5.161   3.974 -0.1290 -1.0717 -0.4345
    3MOL   C102  466   5.927   5.251   4.061  0.1808  0.7582 -0.5309
    3MOL   C103  467   5.999   5.325   4.179 -0.8345 -0.4634 -0.2119
    3MOL   O104  468   6.098   5.283   4.240  0.3319  0.0640  0.5848
    3MOL   O105  469   5.947   5.448   4.194 -0.0511 -0.2133 -0.4384
    3MOL   H106  470   6.045   5.065   4.023 -1.9292 -1.1530  0.1316
    3MOL   H107  471   5.970   5.124   3.888 -0.8323  0.2727 -0.5567
    3MOL   H108  472   5.895   5.330   3.992  3.3389  2.6692  0.1142
    3MOL   H109  473   6.012   5.473   4.259 -1.5401  1.0447  0.6000
    3MOL   C110  474   5.801   5.174   4.110  0.5660 -0.5004  0.3909
    3MOL   C111  475   5.674   5.209   4.037 -0.5539 -0.7944 -0.0512
    3MOL   C112  476   5.599   5.323   4.115 -0.3500  0.1183 -0.0538
    3MOL   O113  477   5.505   5.296   4.193 -0.1341 -0.2555  0.2954
    3MOL   O114  478   5.635   5.448   4.073  0.3290  0.2957 -0.2058
    3MOL   H115  479   5.778   5.189   4.216 -2.0531  0.7871 -0.2877
    3MOL   H116  480   5.823   5.069   4.097  0.1686 -0.4263 -1.0218
    3MOL   H117  481   5.699   5.236   3.935 -0.9560 -0.2396 -0.0038
    3MOL   H118  482   5.590   5.504   4.136  0.9905  0.8529 -0.2232
    3MOL   C119  483   5.585   5.081   4.008  0.2057 -0.0711 -0.8613
    3MOL   C120  484   5.467   5.107   3.920 -0.0709  0.1114 -0.0010
    3MOL   C121  485   5.336   5.047   3.986 -0.3277  0.9351  0.5116
    3MOL   O122  486   5.255   4.970   3.937 -0.0717  0.1703 -0.1936
    3MOL   O123  487   5.308   5.102   4.110 -0.3388 -0.1131 -0.0693
    3MOL   H124  488   5.545   5.040   4.101  1.4177 -2.9762 -1.5372
    3MOL   H125  489   5.644   4.997   3.970 -1.9229 -0.8613 -2.5087
    3MOL   H126  490   5.439   5.212   3.910  1.0017  0.2386 -2.0199
    3MOL   H127  491   5.379   5.157   4.140 -0.2492  0.0651 -0.6035
    3MOL   C128  492   5.492   5.059   3.773  0.3427  0.4512  0.1981
    3MOL   C129  493   5.400   5.113   3.664  0.9530  0.5137 -0.2901
    3MOL   C130  494   5.355   4.999   3.565 -0.3765  0.0949  0.4789
    3MOL   O131  495   5.425   4.905   3.537 -0.4214  0.4809 -0.1728
    3MOL   O132  496   5.227   5.009   3.524  0.7094  0.0349 -0.0628
    3MOL   H133  497   5.490   4.951   3.792 -0.9839  0.7195  1.8462
    3MOL   H134  498   5.596   5.071   3.743  1.4896 -0.0640  3.7039
    3MOL   H135  499   5.315   5.146   3.724  0.7143  2.3857 -1.6138
    3MOL   H136  500   5.216   4.936   3.465 -2.6239 -1.7861  2.6716
    3MOL   C137  501   5.464   5.238   3.591 -0.0956  0.0744  0.0498
    3MOL   C138  502   5.376   5.366   3.595 -0.2544 -0.0109  0.2696
    3MOL   C139  503   5.376   5.431   3.738  0.0893 -0.4790  0.0030
    3MOL   O140  504   5.270   5.458   3.802  0.2176 -0.5433  0.1099
    3MOL   O141  505   5.499   5.440   3.797 -0.0755  0.3112 -0.0856
    3MOL   H142  506   5.484   5.225   3.485  0.6994  0.2554  0.1766
    3MOL   H143  507   5.558   5.266   3.638 -1.2514  2.2460  1.1469
    3MOL   H144  508   5.419   5.446   3.534 -0.2135 -0.4134 -0.2431
    3MOL   H145  509   5.494   5.489   3.877  1.7686  2.0999 -1.0193
    3MOL   C146  510   5.232   5.335   3.536  0.2164 -0.8281 -0.4450
    3MOL   C147  511   5.147   5.465   3.490  0.1656 -0.2541 -0.0333
    3MOL   C148  512   4.993   5.432   3.493 -0.2352  0.6241  0.2602
    3MOL   O149  513   4.944   5.339   3.555  0.2456  0.1989  0.5307
    3MOL   O150  514   4.919   5.531   3.429 -0.0022 -0.0926 -0.1018
    3MOL   H151  515   5.181   5.287   3.620  0.8190 -1.1830 -0.2748
    3MOL   H152  516   5.247   5.266   3.453  1.2879 -0.9047 -0.2031
    3MOL   H153  517   5.158   5.546   3.562 -0.7591 -0.7503  0.6768
    3MOL   H154  518   4.827   5.513   3.422  0.1814 -0.6565 -1.1631
    3MOL   C155  519   5.202   5.533   3.355 -1.1057  0.5440 -0.2427
    3MOL   C156  520   5.175   5.453   3.230  0.5328  0.2029 -0.1748
    3MOL   C157  521   5.284   5.348   3.195 -0.0097  0.2410  0.2098
    3MOL   O158  522   5.401   5.365   3.159 -0.1303 -0.1193  0.0265
    3MOL   O159  523   5.219   5.235   3.195 -0.1497  0.0644 -0.5839
    3MOL   H160  524   5.306   5.563   3.371 -1.1546  0.9587 -0.7153
    3MOL   H161  525   5.159   5.632   3.343 -3.2718 -0.4397 -0.7408
    3MOL   H162  526   5.079   5.403   3.241  1.0161 -1.2478 -2.2070
    3MOL   H163  527   5.277   5.166   3.168  1.4802  1.4483 -0.7340
    3MOL   C164  528   5.163   5.551   3.108 -0.0461  0.1031  0.3654
    3MOL   C165  529   5.038   5.642   3.114 -0.4310 -0.7124 -0.1521
    3MOL   C166  530   4.925   5.589   3.021  0.6116  0.6442  0.2973
    3MOL   O167  531   4.810   5.574   3.056  0.0286  0.1005  0.0865
    3MOL   O168  532   4.976   5.587   2.899  0.1054  0.0493 -0.2990
    3MOL   H169  533   5.158   5.481   3.025  1.0674  3.0592 -2.3393
    3MOL   H170  534   5.257   5.605   3.095 -0.7840  1.3346 -0.0215
    3MOL   H171  535   4.994   5.627   3.213 -0.5542  3.2378  0.4724
    3MOL   H172  536   4.910   5.584   2.832  0.1889  3.9451 -0.6515
    3MOL   C173  537   5.059   5.787   3.086 -0.0188  0.5963 -0.4841
    3MOL   C174  538   4.951   5.892   3.089 -0.5135  0.3889  0.2590
    3MOL   C175  539   4.852   5.888   3.206  1.2092 -0.6466 -0.3273
    3MOL   O176  540   4.874   5.844   3.315 -0.2003  0.4842 -0.8890
    3MOL   O177  541   4.734   5.949   3.169 -0.4708 -0.1222 -0.3108
    3MOL   H178  542   5.113   5.783   2.992  0.6904 -0.4012 -0.0381
    3MOL   H179  543   5.133   5.824   3.157 -0.6379  0.6054  0.1711
    3MOL   H180  544   5.000   5.983   3.123 -1.6613  1.2463 -0.3600
    3MOL   H181  545   4.687   5.957   3.250  0.1996  0.5665  0.0167
    3MOL   H182  546   4.911   5.912   2.990 -0.3503 -1.9718 -0.3100
    4MOL     C1  547   1.265   6.215   2.819  0.1591 -0.0560  0.4876
    4MOL     C2  548   1.411   6.209   2.872  0.0967  0.1523  0.1524
    4MOL     C3  549   1.411   6.139   3.016 -0.1850 -0.1153 -0.5427
    4MOL     O4  550   1.323   6.160   3.099  0.4096 -0.0271  0.3558
    4MOL     O5  551   1.495   6.038   3.025 -0.9242 -0.7971 -0.2214
    4MOL     H6  552   1.205   6.280   2.883 -1.4397  0.0129 -1.0339
    4MOL     H7  553   1.237   6.255   2.722 -1.3694 -2.4544 -0.1065
    4MOL     H8  554   1.457   6.141   2.800 -0.0198 -1.5296  1.6331
    4MOL     H9  555   1.547   6.034   2.946 -0.4390 -2.7251  0.1586
    4MOL    H10  556   1.218   6.117   2.830 -0.4771  0.3344  1.3453
    4MOL    C11  557   1.490   6.340   2.854  0.1772  0.2794  0.6449
    4MOL    C12  558   1.628   6.361   2.908  0.0196  0.1097 -0.2549
    4MOL    C13  559   1.717   6.249   2.852  0.2074 -0.1623  0.3357
    4MOL    O14  560   1.707   6.127   2.877  0.5598  0.4170  0.5090
    4MOL    O15  561   1.802   6.305   2.756 -0.2903  0.2398 -0.3161
    4MOL    H16  562   1.436   6.420   2.906  1.3479  1.2247  0.4261
    4MOL    H17  563   1.503   6.364   2.749 -1.7636 -2.4625 -0.2694
    4MOL    H18  564   1.671   6.451   2.865  0.9721 -0.5673 -0.7524
    4MOL    H19  565   1.848   6.251   2.693 -0.6195  0.2731 -0.5862
    4MOL    C20  566   1.629   6.384   3.060  0.1388  0.0056  0.7476
    4MOL    C21  567   1.772   6.433   3.115  0.6259  0.0375  0.4793
    4MOL    C22  568   1.788   6.403   3.265  0.5614  0.1762  0.4004
    4MOL    O23  569   1.723   6.449   3.359  0.1288  0.4554 -0.4218
    4MOL    O24  570   1.884   6.316   3.296  0.3560  0.3385 -0.0632
    4MOL    H25  571   1.590   6.294   3.107  2.7036 -2.0393 -0.8229
    4MOL    H26  572   1.548   6.451   3.087  0.5128  0.1417  1.5267
    4MOL    H27  573   1.852   6.376   3.068  0.1556  0.5838 -1.0375
    4MOL    H28  574   1.926   6.299   3.213 -1.1319 -0.9756 -0.5686
    4MOL    C29  575   1.799   6.582   3.086 -0.2894  0.4859 -0.6664
    4MOL    C30  576   1.934   6.614   3.016  0.1844  1.0476 -0.0428
    4MOL    C31  577   2.058   6.549   3.095 -1.0459 -0.0457 -0.5388
    4MOL    O32  578   2.121   6.451   3.061  0.3332 -0.3392 -0.2641
    4MOL    O33  579   2.077   6.606   3.220  0.0273 -0.0278 -0.0261
    4MOL    H34  580   1.805   6.641   3.178  1.1135 -1.6428  0.6480
    4MOL    H35  581   1.721   6.623   3.021 -1.3954  0.8344  0.8591
    4MOL    H36  582   1.940   6.556   2.924  0.4491 -0.0938  0.6717
    4MOL    H37  583   2.147   6.576   3.275 -1.5358 -0.5266  1.7570
    4MOL    C38  584   1.949   6.770   2.990  0.0637  0.4877 -0.5604
    4MOL    C39  585   2.058   6.812   2.888  0.2865 -0.3030 -0.2053
    4MOL    C40  586   2.136   6.940   2.926 -0.3987 -0.0825 -0.8460
    4MOL    O41  587   2.112   7.012   3.023 -0.5136  0.6709  0.2809
    4MOL    O42  588   2.240   6.958   2.840 -0.4165 -0.3822  0.0664
    4MOL    H43  589   1.958   6.826   3.083 -0.9887 -2.2120  1.2285
    4MOL    H44  590   1.852   6.811   2.962 -0.1841  0.1963 -0.1290
    4MOL    H45  591   2.127   6.729   2.873 -0.3663 -0.9182  0.1557
    4MOL    H46  592   2.283   6.885   2.799 -0.1805  0.4562 -1.2253
    4MOL    C47  593   1.996   6.837   2.749 -0.9101  0.2194  0.8325
    4MOL    C48  594   1.915   6.711   2.690 -0.2292 -0.5091 -0.5961
    4MOL    C49  595   2.001   6.585   2.645 -0.2367  0.5709  0.5741
    4MOL    O50  596   2.078   6.539   2.728 -0.1052  0.7576 -0.0345
    4MOL    O51  597   1.977   6.532   2.520 -0.1758 -0.5401 -0.1666
    4MOL    H52  598   2.074   6.864   2.678 -1.8916 -0.0274 -0.3609
    4MOL    H53  599   1.933   6.924   2.764  1.1346  1.6198  1.4046
    4MOL    H54  600   1.850   6.669   2.767  1.2753 -2.2147 -0.2393
    4MOL    H55  601   2.022   6.449   2.510  0.1623 -0.0739 -3.1086
    4MOL    C56  602   1.819   6.759   2.581  0.6984  0.3589  0.0952
    4MOL    C57  603   1.700   6.648   2.560  0.2291 -0.1919 -0.3694
    4MOL    C58  604   1.652   6.656   2.414 -0.4648 -0.9095 -0.3744
    4MOL    O59  605   1.617   6.761   2.361 -0.4194 -0.7850  0.4595
    4MOL    O60  606   1.659   6.533   2.357 -0.3928 -0.4076  0.4163
    4MOL    H61  607   1.873   6.786   2.490  0.3818 -0.6327 -0.3933
    4MOL    H62  608   1.774   6.853   2.613  1.0382 -0.2940  2.5784
    4MOL    H63  609   1.753   6.553   2.563  0.0576 -0.3301 -1.6665
    4MOL    H64  610   1.639   6.538   2.264 -0.5695 -0.0876  0.4726
    4MOL    C65  611   1.574   6.652   2.654 -0.5852 -0.1089 -0.8780
    4MOL    C66  612   1.471   6.769   2.642 -0.2886 -0.2186 -0.6053
    4MOL    C67  613   1.486   6.904   2.706  0.6604 -0.2924 -0.4605
    4MOL    O68  614   1.562   6.919   2.800  0.3982 -0.9743  0.1368
    4MOL    O69  615   1.404   7.004   2.662 -0.0292  0.3115 -0.0014
    4MOL    H70  616   1.612   6.659   2.755 -0.8057 -0.5392 -0.7637
    4MOL    H71  617   1.525   6.556   2.638  2.2344 -1.8157  0.3827
    4MOL    H72  618   1.448   6.773   2.536  0.6813  0.3340 -0.7948
    4MOL    H73  619   1.413   7.077   2.722 -2.1584  0.4075  0.2485
    4MOL    C74  620   1.335   6.712   2.704  0.1796 -0.2733 -0.1093
    4MOL    C75  621   1.257   6.630   2.599 -0.0950  0.1926  0.4935
    4MOL    C76  622   1.176   6.712   2.492 -0.2819  0.7953  0.3695
    4MOL    O77  623   1.145   6.829   2.511 -0.1118  0.4233 -0.2193
    4MOL    O78  624   1.155   6.640   2.381  0.1405 -0.4752  0.0489
    4MOL    H79  625   1.269   6.791   2.739 -0.9725 -0.5955 -1.5116
    4MOL    H80  626   1.354   6.654   2.795  3.0995  0.2226 -0.3497
    4MOL    H81  627   1.335   6.578   2.544 -1.1476 -0.3468 -0.5246
    4MOL    H82  628   1.122   6.701   2.316  0.3560  1.4868  1.7382
    4MOL    C83  629   1.170   6.520   2.667  0.2213 -0.0734 -0.0254
    4MOL    C84  630   1.034   6.556   2.743 -0.6850  0.0022 -0.5998
    4MOL    C85  631   1.064   6.602   2.886 -0.5536 -0.7586 -0.0746
    4MOL    O86  632   1.083   6.716   2.926 -1.0227 -0.4231 -0.7364
    4MOL    O87  633   1.056   6.506   2.977  0.1496 -0.5098  0.1043
    4MOL    H88  634   1.239   6.460   2.726 -0.2401  0.5087  1.1359
    4MOL    H89  635   1.148   6.455   2.583  0.6702  3.5550 -3.1173
    4MOL    H90  636   0.981   6.631   2.684 -1.5780 -0.6025 -0.5674
    4MOL    H91  637   1.087   6.549   3.056 -0.3347 -1.7902  1.0147
    4MOL    C92  638   0.947   6.421   2.741  0.2882  0.2147 -0.3272
    4MOL    C93  639   0.881   6.394   2.605 -0.1516 -0.5096  0.8380
    4MOL    C94  640   0.746   6.469   2.589 -0.5762 -0.0941 -0.0079
    4MOL    O95  641   0.633   6.429   2.635  0.2498  0.2704  0.0477
    4MOL    O96  642   0.767   6.585   2.523 -0.2002 -0.3243 -0.1194
    4MOL    H97  643   0.864   6.434   2.812 -1.3494 -1.2233 -1.9461
    4MOL    H98  644   1.005   6.332   2.765 -0.6031 -0.3384 -0.1971
    4MOL    H99  645   0.946   6.427   2.525  0.6987 -0.7278  1.4300
    4MOL   H100  646   0.686   6.633   2.524  0.7275  1.2808 -0.1833
    4MOL   C101  647   0.840   6.247   2.582  0.2728  0.0321  0.0634
    4MOL   C102  648   0.963   6.151   2.551 -0.1385 -0.2668  0.3995
    4MOL   C103  649   1.056   6.197   2.438 -0.0505 -0.6826  0.1500
    4MOL   O104  650   1.169   6.230   2.465 -0.3825 -0.0860 -0.4307
    4MOL   O105  651   1.007   6.198   2.310 -0.2535  0.4003 -0.2968
    4MOL   H106  652   0.778   6.239   2.493  0.5566 -2.1089  0.0236
    4MOL   H107  653   0.776   6.205   2.659 -0.2497 -1.0972 -0.9742
    4MOL   H108  654   1.023   6.130   2.639  0.5339  1.1195  0.2809
    4MOL   H109  655   1.069   6.244   2.256 -0.9921  0.6251 -0.9523
    4MOL   C110  656   0.907   6.010   2.519  0.0941  0.2986 -0.1389
    4MOL   C111  657   0.984   5.875   2.519  0.0961  0.1287 -0.4679
    4MOL   C112  658   1.096   5.874   2.415  0.3172  0.0395  0.2713
    4MOL   O113  659   1.211   5.882   2.450  0.0085  0.1150  0.5000
    4MOL   O114  660   1.047   5.881   2.290  0.0282  0.2693  0.7964
    4MOL   H115  661   0.878   6.019   2.414 -0.7750 -2.1970 -0.1475
    4MOL   H116  662   0.817   5.995   2.580 -0.8105 -0.5201 -1.6506
    4MOL   H117  663   1.025   5.852   2.617 -1.7327 -0.5820  0.1569
    4MOL   H118  664   1.127   5.881   2.240 -0.6755 -2.9182 -0.4972
    4MOL   C119  665   0.874   5.759   2.516  0.3450 -0.4099 -0.1330
    4MOL   C120  666   0.910   5.610   2.552  0.1697 -0.9739  0.0952
    4MOL   C121  667   1.038   5.565   2.489  0.0274  0.6640 -0.1223
    4MOL   O122  668   1.146   5.532   2.550 -0.1119  0.1906  0.3052
    4MOL   O123  669   1.021   5.538   2.358  0.0886 -0.2071  0.2951
    4MOL   H124  670   0.816   5.773   2.425  1.7431  0.6577 -0.8643
    4MOL   H125  671   0.793   5.792   2.582  0.6048  1.9649 -0.9500
    4MOL   H126  672   0.936   5.611   2.658  1.2545  0.3702 -0.1691
    4MOL   H127  673   0.939   5.570   2.323  1.7327  1.9748 -1.6703
    4MOL   C128  674   0.790   5.516   2.522 -0.1966 -0.4017 -0.0993
    4MOL   C129  675   0.798   5.377   2.581 -0.1405  0.6556  0.1081
    4MOL   C130  676   0.810   5.372   2.738 -0.2694  0.0465  0.1049
    4MOL   O131  677   0.915   5.368   2.798 -0.2278 -0.2706  0.3233
    4MOL   O132  678   0.693   5.388   2.808 -0.1347 -0.1790 -0.0005
    4MOL   H133  679   0.773   5.517   2.415 -2.7318  3.0152  0.2494
    4MOL   H134  680   0.699   5.562   2.562 -1.6689 -1.5727 -2.0179
    4MOL   H135  681   0.700   5.329   2.573  0.2006 -0.1016  0.4477
    4MOL   H136  682   0.717   5.368   2.897  0.1574 -1.1069 -0.2832
    4MOL   C137  683   0.890   5.274   2.501 -0.2898  0.0581  0.0950
    4MOL   C138  684   0.842   5.241   2.350 -0.3262  0.2302 -0.5675
    4MOL   C139  685   0.687   5.238   2.331 -0.1544  0.6586 -0.1785
    4MOL   O140  686   0.618   5.301   2.251  0.2027  0.0454  0.3866
    4MOL   O141  687   0.625   5.143   2.416  0.0011  0.1874  0.7893
    4MOL   H142  688   0.894   5.175   2.547 -0.4046  0.1191  0.2379
    4MOL   H143  689   0.994   5.306   2.502  0.2719 -1.7099  1.1955
    4MOL   H144  690   0.875   5.333   2.301  1.5099 -0.1028  0.0445
    4MOL   H145  691   0.679   5.080   2.461 -2.5783 -2.6491  0.0210
    4MOL   C146  692   0.920   5.119   2.289 -0.8403  0.1175  0.2073
    4MOL   C147  693   0.877   5.077   2.147  0.3238  0.5365  0.7723
    4MOL   C148  694   0.935   4.942   2.094  0.2769 -0.1856 -0.1747
    4MOL   O149  695   1.044   4.893   2.122 -0.1267 -0.0745 -0.0518
    4MOL   O150  696   0.843   4.869   2.021  0.2713 -0.6585 -0.0353
    4MOL   H151  697   0.902   5.029   2.347 -0.0267  0.2027  0.6010
    4MOL   H152  698   1.029   5.129   2.297 -0.5661 -1.4957 -1.2769
    4MOL   H153  699   0.768   5.072   2.153  0.3268 -0.2088  0.3314
    4MOL   H154  700   0.871   4.782   1.995  1.0611 -0.4200 -0.0024
    4MOL   C155  701   0.908   5.189   2.043 -0.4214  0.5230 -0.2001
    4MOL   C156  702   1.061   5.221   2.015  0.2093  0.8361  0.0953
    4MOL   C157  703   1.094   5.349   2.089 -0.1150 -0.5048 -0.2870
    4MOL   O158  704   1.100   5.458   2.032 -0.3337 -0.2754  0.0336
    4MOL   O159  705   1.128   5.328   2.221 -0.0185  0.1228  0.5197
    4MOL   H160  706   0.845   5.278   2.055 -1.3347  0.0913 -1.6578
    4MOL   H161  707   0.853   5.162   1.953  1.9933 -0.5173 -1.3815
    4MOL   H162  708   1.127   5.146   2.059  0.2672  1.0509  0.3770
    4MOL   H163  709   1.142   5.410   2.264 -1.2647 -0.0107  1.2170
    4MOL   C164  710   1.080   5.225   1.859  0.3074 -0.3347 -0.0458
    4MOL   C165  711   1.070   5.089   1.782 -0.3574  0.5211  0.1203
    4MOL   C166  712   1.209   5.027   1.772 -0.0347 -0.4011 -0.0363
    4MOL   O167  713   1.317   5.087   1.775 -0.0695  0.0050 -0.0415
    4MOL   O168  714   1.192   4.898   1.741 -0.3750  0.0863  0.1991
    4MOL   H169  715   1.175   5.278   1.846  0.3024  0.2577  2.1626
    4MOL   H170  716   1.001   5.291   1.824  0.7691  1.9633  3.0098
    4MOL   H171  717   1.006   5.023   1.840 -1.7864  1.0853 -0.7891
    4MOL   H172  718   1.268   4.842   1.733  0.5630  0.9701  2.4137
    4MOL   C173  719   1.009   5.102   1.637  0.5013 -0.2610 -0.1710
    4MOL   C174  720   0.854   5.129   1.643 -0.5689 -0.5142  0.8697
    4MOL   C175  721   0.761   5.015   1.656 -0.1216 -0.1105 -0.1295
    4MOL   O176  722   0.795   4.894   1.660  0.1579 -0.6890  0.4680
    4MOL   O177  723   0.638   5.059   1.673 -0.2513  0.4722  0.2240
    4MOL   H178  724   1.028   5.008   1.585  0.6465 -1.5723  2.1753
    4MOL   H179  725   1.061   5.179   1.580 -1.0535  2.7625  2.3475
    4MOL   H180  726   0.826   5.202   1.719  1.4153 -0.3262  1.4721
    4MOL   H181  727   0.572   4.992   1.664  0.8769 -0.5712 -0.4024
    4MOL   H182  728   0.839   5.177   1.547 -0.1061 -0.7299  0.6899
    5MOL     C1  729   5.679   5.722   4.608  0.0486 -0.2602 -0.6421
    5MOL     C2  730   5.717   5.663   4.473  0.1605  0.4369  0.3189
    5MOL     C3  731   5.626   5.706   4.351 -0.5158 -0.0718  0.4223
    5MOL     O4  732   5.569   5.631   4.266 -0.0518  0.6900  0.4340
    5MOL     O5  733   5.603   5.837   4.330 -0.0370  0.2247 -0.0104
    5MOL     H6  734   5.591   5.668   4.642  0.1146 -0.4794 -0.8148
    5MOL     H7  735   5.759   5.712   4.682  0.2443 -1.7174 -1.0213
    5MOL     H8  736   5.814   5.702   4.442  0.9404 -1.5756  0.1386
    5MOL     H9  737   5.658   5.893   4.382 -1.2989  1.0914  0.4196
    5MOL    H10  738   5.654   5.828   4.602  1.6948  0.1955  0.1575
    5MOL    C11  739   5.738   5.508   4.480 -0.4079 -0.4372  0.5911
    5MOL    C12  740   5.851   5.470   4.583 -0.2011  1.1450 -0.0799
    5MOL    C13  741   5.985   5.541   4.551  0.5436  0.4003  0.1475
    5MOL    O14  742   6.074   5.501   4.469  0.4031 -0.4860  0.0386
    5MOL    O15  743   6.000   5.651   4.632 -0.3796 -0.2515  0.3139
    5MOL    H16  744   5.780   5.480   4.383  3.2993 -0.3963  2.0706
    5MOL    H17  745   5.642   5.461   4.499 -0.2435 -1.6430 -1.3368
    5MOL    H18  746   5.813   5.493   4.683  1.1272  1.3185  0.3847
    5MOL    H19  747   6.085   5.692   4.633 -0.6863  0.4119 -0.7960
    5MOL    C20  748   5.873   5.317   4.595 -0.3508  0.7996 -0.0592
    5MOL    C21  749   5.756   5.229   4.636  0.3808 -0.5350  0.4309
    5MOL    C22  750   5.697   5.268   4.776 -0.2330 -0.1871 -0.0232
    5MOL    O23  751   5.765   5.307   4.866  0.1903 -0.5428 -0.5419
    5MOL    O24  752   5.570   5.224   4.795  0.5127 -0.2684  0.6260
    5MOL    H25  753   5.946   5.299   4.674 -1.3100  1.0463  0.8835
    5MOL    H26  754   5.911   5.277   4.500 -1.6953  3.1174 -1.6231
    5MOL    H27  755   5.674   5.250   4.567  1.9197  0.0812 -1.2729
    5MOL    H28  756   5.533   5.226   4.882  0.2513 -3.0178  0.6328
    5MOL    C29  757   5.801   5.086   4.631  0.4143  0.0929  0.1154
    5MOL    C30  758   5.797   5.025   4.487 -0.2271 -1.1263 -0.1345
    5MOL    C31  759   5.652   4.988   4.445 -0.3317 -0.4038 -0.0556
    5MOL    O32  760   5.554   4.981   4.515 -0.3492 -0.1804  0.1661
    5MOL    O33  761   5.643   4.957   4.311  0.7181  0.2012 -1.1598
    5MOL    H34  762   5.746   5.022   4.700 -0.9753 -0.7042 -1.6870
    5MOL    H35  763   5.903   5.084   4.670  0.7331  1.6377 -0.5872
    5MOL    H36  764   5.831   5.090   4.407 -0.5510  0.3302  0.8900
    5MOL    H37  765   5.554   4.933   4.294 -0.0771  1.5642  0.8362
    5MOL    C38  766   5.886   4.899   4.472  0.2738 -0.6957  0.3790
    5MOL    C39  767   6.040   4.908   4.514  0.0936  0.4794  0.2591
    5MOL    C40  768   6.108   5.028   4.444 -0.3621  0.9595  0.0242
    5MOL    O41  769   6.160   5.121   4.507  0.1367  0.2295 -0.3291
    5MOL    O42  770   6.126   5.001   4.312 -0.3985  0.7139  0.5025
    5MOL    H43  771   5.880   4.848   4.375 -0.9757  1.5240 -0.7440
    5MOL    H44  772   5.837   4.826   4.536  1.1366 -0.6836  1.0667
    5MOL    H45  773   6.046   4.941   4.618  1.8430 -0.0938  0.3387
    5MOL    H46  774   6.174   5.075   4.278 -1.5416  1.7002  0.9903
    5MOL    C47  775   6.126   4.785   4.492 -0.0029  1.3774  0.6033
    5MOL    C48  776   6.083   4.654   4.564  0.0548 -1.5392 -0.6404
    5MOL    C49  777   6.120   4.668   4.716 -0.0778 -0.0770  0.5326
    5MOL    O50  778   6.216   4.606   4.772  0.2088  0.0894 -0.2555
    5MOL    O51  779   6.038   4.762   4.782 -0.3523 -0.0832 -0.4678
    5MOL    H52  780   6.230   4.803   4.519  0.1180  0.3714  0.8470
    5MOL    H53  781   6.125   4.762   4.386 -2.8258  0.8944  0.6995
    5MOL    H54  782   5.975   4.643   4.568 -0.1535  0.5931  0.0994
    5MOL    H55  783   6.074   4.781   4.867 -1.5484 -1.8237  0.4797
    5MOL    C56  784   6.149   4.529   4.499 -0.2542  0.0858  0.3718
    5MOL    C57  785   6.124   4.393   4.551  0.1205  0.1991 -0.8366
    5MOL    C58  786   6.169   4.290   4.444  0.3822 -0.8831 -0.1371
    5MOL    O59  787   6.123   4.289   4.328  0.4820 -0.0556 -0.1104
    5MOL    O60  788   6.263   4.205   4.482 -0.4324  0.2309 -0.0894
    5MOL    H61  789   6.254   4.548   4.478 -0.4250  0.5172 -0.0900
    5MOL    H62  790   6.111   4.528   4.397  0.2127  0.5242  0.1943
    5MOL    H63  791   6.185   4.382   4.641 -0.3176 -0.4841 -0.6221
    5MOL    H64  792   6.287   4.164   4.401 -0.5055  0.0134 -0.0020
    5MOL    C65  793   5.982   4.368   4.602 -0.4454  0.4617  0.0860
    5MOL    C66  794   5.962   4.246   4.692 -0.2107  0.1291 -0.4941
    5MOL    C67  795   5.816   4.210   4.708 -0.9955  0.0274  0.1266
    5MOL    O68  796   5.773   4.094   4.705 -0.3942 -0.3191  0.1763
    5MOL    O69  797   5.741   4.321   4.747  0.1681 -0.1265  0.4573
    5MOL    H70  798   5.920   4.350   4.514 -1.9275 -2.0292  1.5957
    5MOL    H71  799   5.945   4.457   4.653  0.7452 -0.1220  2.0156
    5MOL    H72  800   6.011   4.165   4.638 -0.5710 -0.7294  0.4561
    5MOL    H73  801   5.657   4.287   4.775 -0.2719  1.2176  0.8326
    5MOL    C74  802   6.022   4.272   4.829  1.1291 -0.6195  0.3817
    5MOL    C75  803   6.119   4.154   4.877  0.4215  0.1947 -0.8399
    5MOL    C76  804   6.043   4.032   4.918 -0.4163 -0.0568 -0.3923
    5MOL    O77  805   5.983   4.023   5.027  0.3831  0.1512  0.2122
    5MOL    O78  806   6.039   3.948   4.807 -0.1449  0.2237 -0.4017
    5MOL    H79  807   5.945   4.294   4.902 -0.6134 -0.5036 -1.4518
    5MOL    H80  808   6.082   4.363   4.834 -0.5822  0.5063  0.9226
    5MOL    H81  809   6.182   4.117   4.796 -1.4317 -2.2834 -1.2062
    5MOL    H82  810   5.982   3.876   4.830 -1.2647  1.5790  1.2206
    5MOL    C83  811   6.205   4.196   4.990  0.1570 -0.4517 -0.2109
    5MOL    C84  812   6.356   4.219   4.954 -1.1346 -0.0405  0.0453
    5MOL    C85  813   6.445   4.249   5.077 -0.0433  0.3193 -0.6164
    5MOL    O86  814   6.504   4.354   5.097  0.9641 -0.4457 -0.0628
    5MOL    O87  815   6.458   4.138   5.160  0.3730 -0.0855 -0.4121
    5MOL    H88  816   6.202   4.120   5.069  3.4961  0.3155  0.7173
    5MOL    H89  817   6.176   4.293   5.032 -0.7133  0.6713 -3.2825
    5MOL    H90  818   6.386   4.123   4.912  0.0305  0.6145 -0.6338
    5MOL    H91  819   6.512   4.151   5.237  1.8326 -0.6171 -1.3323
    5MOL    C92  820   6.387   4.316   4.834 -0.2522  0.3987 -0.0775
    5MOL    C93  821   6.530   4.316   4.776 -0.1603 -0.3572 -0.3930
    5MOL    C94  822   6.537   4.449   4.699 -0.6549  0.0883  0.2420
    5MOL    O95  823   6.594   4.545   4.755 -0.5377 -0.1737  0.4371
    5MOL    O96  824   6.475   4.451   4.584 -0.2475 -0.3686  0.0704
    5MOL    H97  825   6.363   4.416   4.871 -0.5767  0.4559 -0.4397
    5MOL    H98  826   6.320   4.295   4.751  0.5307  0.3741 -0.6946
    5MOL    H99  827   6.604   4.318   4.856 -2.8122 -1.0274  2.1843
    5MOL   H100  828   6.487   4.531   4.536  1.8111 -0.9407 -0.4177
    5MOL   C101  829   6.538   4.185   4.683  0.6095 -0.3721  0.0622
    5MOL   C102  830   6.664   4.178   4.594  0.1929  0.2627 -0.0264
    5MOL   C103  831   6.629   4.098   4.465 -0.0682 -0.5298 -0.5036
    5MOL   O104  832   6.562   4.002   4.469 -0.0828  0.0911  0.5689
    5MOL   O105  833   6.687   4.144   4.353  0.1215 -0.1702  0.0079
    5MOL   H106  834   6.445   4.185   4.627 -0.1142 -0.4244  1.2404
    5MOL   H107  835   6.524   4.095   4.743 -1.8127  0.0334  0.1516
    5MOL   H108  836   6.695   4.276   4.557  2.6575  0.4065  2.2094
    5MOL   H109  837   6.658   4.084   4.287 -1.9579 -0.1961  0.9072
    5MOL   C110  838   6.779   4.110   4.663  0.2822 -0.5758 -0.4380
    5MOL   C111  839   6.915   4.081   4.587  0.5102  0.0925  0.5719
    5MOL   C112  840   7.029   4.007   4.660  0.3022 -0.3993  0.2043
    5MOL   O113  841   7.031   3.987   4.784 -0.1114 -0.0905  0.1445
    5MOL   O114  842   7.128   3.983   4.579 -0.5898  0.1981  0.7723
    5MOL   H115  843   6.743   4.012   4.695  2.0998 -0.7253  1.2108
    5MOL   H116  844   6.808   4.164   4.753  3.1045 -2.7374  0.0078
    5MOL   H117  845   6.892   4.016   4.503 -1.1515  1.0531  0.2582
    5MOL   H118  846   7.210   3.944   4.605  0.0472  0.6216 -0.5343
    5MOL   C119  847   6.971   4.212   4.522  0.0275 -1.3055  0.1027
    5MOL   C120  848   7.017   4.322   4.615 -0.9385 -0.1307  0.3062
    5MOL   C121  849   6.914   4.429   4.640 -0.4211  0.1238  0.6213
    5MOL   O122  850   6.872   4.508   4.559 -0.1428  0.9374 -0.4443
    5MOL   O123  851   6.876   4.436   4.768  0.0412  0.2229 -0.8198
    5MOL   H124  852   6.899   4.252   4.451  1.4050  3.1095  1.0643
    5MOL   H125  853   7.053   4.186   4.454 -0.6207 -0.2293 -1.1120
    5MOL   H126  854   7.045   4.292   4.716 -1.2275  1.9984  1.0564
    5MOL   H127  855   6.805   4.497   4.779 -0.0676 -0.0409  0.0028
    5MOL   C128  856   7.147   4.400   4.564 -0.2865 -0.6679  0.2091
    5MOL   C129  857   7.279   4.314   4.590  0.3762 -0.4410  0.1995
    5MOL   C130  858   7.319   4.301   4.737 -0.1139 -0.3706  0.8768
    5MOL   O131  859   7.380   4.201   4.773 -0.5477  0.5334 -0.5486
    5MOL   O132  860   7.269   4.395   4.822  0.4481  0.2437  0.4202
    5MOL   H133  861   7.154   4.490   4.626 -0.8104 -0.4553 -0.0341
    5MOL   H134  862   7.139   4.433   4.461 -1.2493 -0.3188  0.3908
    5MOL   H135  863   7.265   4.212   4.554 -1.4090  0.1153 -0.7278
    5MOL   H136  864   7.254   4.365   4.911  2.3114 -0.5701  0.4671
    5MOL   C137  865   7.385   4.381   4.504 -0.5697 -0.2546  0.0513
    5MOL   C138  866   7.532   4.344   4.509 -0.7200  0.3802 -0.3214
    5MOL   C139  867   7.610   4.448   4.423  0.4561  0.0727  0.2961
    5MOL   O140  868   7.624   4.563   4.462  0.3121  0.1482  0.5116
    5MOL   O141  869   7.649   4.399   4.309 -0.2131  0.2967  1.1637
    5MOL   H142  870   7.366   4.487   4.521 -2.2345 -0.8909  2.3863
    5MOL   H143  871   7.351   4.354   4.404  0.0121 -2.5563  0.4469
    5MOL   H144  872   7.572   4.354   4.610  0.4213 -1.1584 -0.5976
    5MOL   H145  873   7.693   4.474   4.272  0.8341 -0.3613  1.0692
    5MOL   C146  874   7.560   4.193   4.470 -0.5414  0.1452 -0.5082
    5MOL   C147  875   7.700   4.146   4.460  0.4596  0.2543 -0.0303
    5MOL   C148  876   7.709   3.988   4.448 -0.4139  0.6923  0.5986
    5MOL   O149  877   7.770   3.916   4.532  0.3673  0.2404 -0.1587
    5MOL   O150  878   7.651   3.929   4.342  0.4521  0.1538  0.0043
    5MOL   H151  879   7.526   4.186   4.367  0.2158 -0.9252 -0.7031
    5MOL   H152  880   7.499   4.123   4.528  0.5234 -1.4151 -1.2103
    5MOL   H153  881   7.741   4.169   4.362  2.3651 -0.7831  0.4963
    5MOL   H154  882   7.652   3.835   4.347 -0.0408  0.0145 -1.9033
    5MOL   C155  883   7.793   4.209   4.567 -0.5510  0.4020  0.0838
    5MOL   C156  884   0.091   4.179   4.542 -0.2293 -0.1508  0.8674
    5MOL   C157  885   0.179   4.214   4.665 -0.2698  0.0790  0.1646
    5MOL   O158  886   0.248   4.128   4.726 -0.0435  0.0942 -0.1728
    5MOL   O159  887   0.187   4.349   4.691 -0.3258  0.6932 -0.2117
    5MOL   H160  888   7.772   4.178   4.669  1.7042  0.6128  0.6475
    5MOL   H161  889   7.773   4.316   4.567  0.2721  0.5760 -1.2499
    5MOL   H162  890   0.099   4.073   4.522 -0.6692  0.2637 -1.7040
    5MOL   H163  891   0.143   4.401   4.625 -0.7450  1.9427  1.0320
    5MOL   C164  892   0.154   4.245   4.415 -0.3218 -0.6925 -0.2783
    5MOL   C165  893   0.175   4.152   4.285  0.2234 -0.2371  0.2568
    5MOL   C166  894   0.300   4.066   4.307 -0.0207 -0.3341  0.1978
    5MOL   O167  895   0.412   4.092   4.263  0.4017  0.0658  0.2238
    5MOL   O168  896   0.272   3.961   4.388  0.0365 -0.1728 -0.1119
    5MOL   H169  897   0.242   4.307   4.434 -1.3008  0.4281  0.7321
    5MOL   H170  898   0.084   4.326   4.391 -0.9923 -0.6185  1.8010
    5MOL   H171  899   0.092   4.082   4.283  0.6114 -0.7721  1.7979
    5MOL   H172  900   0.348   3.909   4.410  1.8186  1.1833 -2.6845
    5MOL   C173  901   0.181   4.229   4.149 -0.1260 -0.5643  0.2422
    5MOL   C174  902   0.043   4.288   4.095 -0.6406 -0.3528 -0.3425
    5MOL   C175  903   7.810   4.173   4.047  0.0299  0.2106 -0.2497
    5MOL   O176  904   7.730   4.110   4.120 -0.2001 -0.0724 -0.2658
    5MOL   O177  905   7.835   4.143   3.918  0.7471  0.2030 -0.3793
    5MOL   H178  906   0.216   4.174   4.061 -0.3489  1.0476 -0.8820
    5MOL   H179  907   0.255   4.308   4.163 -1.5451  1.0710 -1.2236
    5MOL   H180  908   7.845   4.353   4.166 -1.2591 -1.0407 -0.1509
    5MOL   H181  909   7.780   4.073   3.885 -0.8246  1.0622  0.3795
    5MOL   H182  910   0.055   4.355   4.010 -1.8439  0.6835  0.2905
    6MOL     C1  911   3.649   7.097   6.702 -0.0684 -0.0332  0.4380
    6MOL     C2  912   3.734   6.982   6.766  0.1926 -0.4554 -0.0355
    6MOL     C3  913   3.813   7.035   6.886 -0.0733 -0.5725 -0.3776
    6MOL     O4  914   3.822   6.982   6.994  1.0148 -0.2648 -0.2248
    6MOL     O5  915   3.881   7.143   6.847  0.9957 -0.1941  0.3952
    6MOL     H6  916   3.571   7.127   6.773  0.4437  0.4944  0.7811
    6MOL     H7  917   3.714   7.178   6.670  1.5454 -2.2966 -2.3019
    6MOL     H8  918   3.662   6.903   6.790  0.7540 -1.5524 -1.8952
    6MOL     H9  919   3.937   7.190   6.906 -1.0607  1.5562  1.0001
    6MOL    H10  920   3.591   7.071   6.613 -1.6857 -0.1118  1.4829
    6MOL    C11  921   3.828   6.920   6.668 -0.3741  0.6932 -0.1931
    6MOL    C12  922   3.776   6.786   6.611  0.1115 -0.3884  0.6719
    6MOL    C13  923   3.801   6.678   6.717 -0.6085  0.0403 -0.7138
    6MOL    O14  924   3.909   6.616   6.719 -0.1777  0.2480  0.3887
    6MOL    O15  925   3.701   6.665   6.815  0.3246 -0.1070 -0.1298
    6MOL    H16  926   3.931   6.905   6.701  0.0713 -0.1334 -1.8943
    6MOL    H17  927   3.838   6.988   6.584  1.2463  1.2280  0.4241
    6MOL    H18  928   3.670   6.786   6.587  0.0273 -2.2573  0.9579
    6MOL    H19  929   3.753   6.611   6.872  3.3879  2.6341 -0.1358
    6MOL    C20  930   3.838   6.746   6.471  0.5867  0.2856 -0.1169
    6MOL    C21  931   3.847   6.850   6.363  1.4906  0.0276 -0.2931
    6MOL    C22  932   3.714   6.926   6.334 -1.0919  0.8135 -0.0523
    6MOL    O23  933   3.608   6.886   6.374 -0.0844 -0.5814 -0.5185
    6MOL    O24  934   3.742   7.030   6.246  0.3157 -0.2555 -0.1636
    6MOL    H25  935   3.809   6.646   6.437 -1.6982  0.1335  2.1498
    6MOL    H26  936   3.944   6.732   6.491 -0.0967 -4.0762  1.1309
    6MOL    H27  937   3.918   6.923   6.403  0.6671  1.0377 -0.6445
    6MOL    H28  938   3.664   7.081   6.236  0.5013  0.6937  2.6127
    6MOL    C29  939   3.908   6.785   6.234  0.0381  1.5364 -0.4464
    6MOL    C30  940   3.836   6.670   6.158 -0.3003 -0.2121 -0.0792
    6MOL    C31  941   3.907   6.539   6.176 -0.2410 -0.2364  0.1586
    6MOL    O32  942   4.027   6.526   6.197  0.2350  0.0166  0.0455
    6MOL    O33  943   3.820   6.432   6.167  0.3825  0.1771 -0.4805
    6MOL    H34  944   4.006   6.750   6.267 -0.5400 -1.3673 -1.6443
    6MOL    H35  945   3.915   6.865   6.160  2.5122  1.0834 -0.7505
    6MOL    H36  946   3.733   6.661   6.193 -0.5530  0.4764 -0.6107
    6MOL    H37  947   3.732   6.446   6.136 -0.3484 -2.3879  0.2805
    6MOL    C38  948   3.818   6.704   6.009  0.1351  0.4642  0.1613
    6MOL    C39  949   3.699   6.803   5.979  0.0101 -0.2943  0.0960
    6MOL    C40  950   3.564   6.739   6.009  0.4350 -0.8177  0.5273
    6MOL    O41  951   3.530   6.623   5.982 -0.1868 -0.7415 -0.2913
    6MOL    O42  952   3.484   6.830   6.080 -0.0463  0.5635  0.5183
    6MOL    H43  953   3.825   6.619   5.941  1.2024  2.0222 -1.7349
    6MOL    H44  954   3.909   6.755   5.978  0.6179 -2.2819 -3.2944
    6MOL    H45  955   3.714   6.891   6.042  0.2933 -1.4119  1.6025
    6MOL    H46  956   3.401   6.793   6.104 -0.1006  0.1652 -0.2759
    6MOL    C47  957   3.719   6.860   5.830  0.1939 -0.8821 -0.6195
    6MOL    C48  958   3.620   6.959   5.762 -0.1476  0.0267  0.1889
    6MOL    C49  959   3.605   7.087   5.847  0.0217 -0.4743  0.5422
    6MOL    O50  960   3.496   7.134   5.890  0.3051 -0.2305  0.2433
    6MOL    O51  961   3.728   7.143   5.863 -0.5217 -0.2944 -0.4316
    6MOL    H52  962   3.725   6.770   5.769 -2.3099 -0.9697 -0.7857
    6MOL    H53  963   3.817   6.907   5.824 -0.5539  0.9264  0.7823
    6MOL    H54  964   3.671   6.987   5.670 -0.4678  1.2947  0.3802
    6MOL    H55  965   3.722   7.227   5.906  2.2046  0.0922 -0.7489
    6MOL    C56  966   3.486   6.899   5.721 -0.3452 -0.0200  0.5007
    6MOL    C57  967   3.424   6.950   5.592  0.6203 -0.3329 -0.6379
    6MOL    C58  968   3.416   7.109   5.580  0.2193  0.7443 -0.2759
    6MOL    O59  969   3.481   7.168   5.500 -0.1023 -0.4603 -0.0816
    6MOL    O60  970   3.327   7.167   5.665 -0.4415 -0.4437  0.2364
    6MOL    H61  971   3.421   6.911   5.808 -1.9072 -1.4867 -0.4480
    6MOL    H62  972   3.491   6.790   5.714  1.6190  0.0031  1.0259
    6MOL    H63  973   3.486   6.925   5.506  0.4412 -0.2202 -0.7996
    6MOL    H64  974   3.343   7.260   5.674 -1.3556 -0.3341  0.8117
    6MOL    C65  975   3.279   6.887   5.576  0.3201 -0.4522  0.5063
    6MOL    C66  976   3.275   6.758   5.506  0.4392 -0.1186  0.1803
    6MOL    C67  977   3.323   6.767   5.363  0.3189 -0.0806  0.2696
    6MOL    O68  978   3.335   6.874   5.305 -0.2659  0.1256 -0.0242
    6MOL    O69  979   3.354   6.645   5.309  0.2388  0.3969  0.2741
    6MOL    H70  980   3.208   6.956   5.530 -1.3414 -1.6183  1.2867
    6MOL    H71  981   3.234   6.870   5.673 -1.3415 -0.8232 -0.3139
    6MOL    H72  982   3.352   6.701   5.559  0.7906 -1.6029 -1.8492
    6MOL    H73  983   3.395   6.662   5.226  1.7911 -1.1696  0.6861
    6MOL    C74  984   3.133   6.688   5.501 -0.1516 -0.4840  0.7690
    6MOL    C75  985   3.102   6.592   5.618 -0.4097 -0.2431  0.3145
    6MOL    C76  986   3.217   6.504   5.666 -0.5166 -0.2597  0.4266
    6MOL    O77  987   3.243   6.394   5.609 -0.4751 -0.2745  0.0583
    6MOL    O78  988   3.297   6.564   5.754 -0.2136 -0.2344 -0.1644
    6MOL    H79  989   3.118   6.640   5.404  0.1944  2.6556 -0.8879
    6MOL    H80  990   3.058   6.766   5.503  0.7748  0.4676 -0.9516
    6MOL    H81  991   3.069   6.649   5.705 -2.2232 -0.5517 -0.1535
    6MOL    H82  992   3.368   6.505   5.775  0.7808  0.5459 -1.2439
    6MOL    C83  993   2.979   6.510   5.574 -0.0017 -0.1490  0.2875
    6MOL    C84  994   2.839   6.576   5.606  0.3776 -0.4407 -0.1766
    6MOL    C85  995   2.815   6.584   5.759 -0.4231 -0.1428  0.4254
    6MOL    O86  996   2.815   6.486   5.831 -0.5102 -0.0534  0.4783
    6MOL    O87  997   2.794   6.707   5.813  0.7773 -0.1298 -0.3800
    6MOL    H88  998   2.977   6.407   5.610  1.7443 -1.0688 -2.0964
    6MOL    H89  999   2.986   6.505   5.465 -1.0280  1.8483  0.1004
    6MOL    H90 1000   2.840   6.678   5.566 -0.8861  0.7973  2.7746
    6MOL    H91 1001   2.782   6.723   5.906  0.0800  2.3250 -0.8450
    6MOL    C92 1002   2.723   6.516   5.525 -0.3115  0.2545  0.4729
    6MOL    C93 1003   2.586   6.601   5.510 -0.6259 -0.2840 -0.1173
    6MOL    C94 1004   2.465   6.510   5.495 -0.4760  0.1462 -0.0511
    6MOL    O95 1005   2.452   6.419   5.410  0.4110 -0.4393  0.6261
    6MOL    O96 1006   2.354   6.551   5.561  0.1476 -0.2420  0.3847
    6MOL    H97 1007   2.690   6.423   5.572  0.8000  0.0490  0.8493
    6MOL    H98 1008   2.759   6.492   5.425 -1.5184 -0.0524  0.1049
    6MOL    H99 1009   2.578   6.662   5.600  1.4832 -0.4631  0.2028
    6MOL   H100 1010   2.282   6.495   5.538  0.6776 -0.2489 -1.2927
    6MOL   C101 1011   2.591   6.718   5.402  0.0766  0.4686  0.1730
    6MOL   C102 1012   2.567   6.683   5.251 -0.3978 -0.4112  0.0268
    6MOL   C103 1013   2.688   6.620   5.173 -0.3155 -0.1473  0.3905
    6MOL   O104 1014   2.807   6.635   5.200  0.0644 -0.2405 -0.2666
    6MOL   O105 1015   2.655   6.550   5.066  0.2756  0.2649  0.6402
    6MOL   H106 1016   2.692   6.755   5.416  0.3280 -0.1833  0.1169
    6MOL   H107 1017   2.539   6.809   5.430 -2.5607 -1.4124  1.6367
    6MOL   H108 1018   2.491   6.605   5.252  0.1924 -1.0076 -0.8014
    6MOL   H109 1019   2.726   6.506   5.021 -0.2298 -3.0895  3.0114
    6MOL   C110 1020   2.522   6.809   5.176  0.0179  0.5356  0.4311
    6MOL   C111 1021   2.374   6.836   5.151 -0.1112 -0.3964 -0.0513
    6MOL   C112 1022   2.297   6.879   5.276  0.7187  0.1812  0.5986
    6MOL   O113 1023   2.299   6.832   5.388 -0.9973 -0.5104  0.1957
    6MOL   O114 1024   2.222   6.982   5.235  0.2985 -0.4512 -0.0217
    6MOL   H115 1025   2.561   6.819   5.074 -4.2029 -1.1624 -1.4842
    6MOL   H116 1026   2.560   6.899   5.224  1.5354 -0.5950  1.3822
    6MOL   H117 1027   2.374   6.922   5.083 -0.8259 -0.8213 -0.6021
    6MOL   H118 1028   2.174   7.012   5.310 -0.2647 -2.2723  0.3726
    6MOL   C119 1029   2.311   6.712   5.083 -0.2636 -0.4305 -0.0534
    6MOL   C120 1030   2.170   6.732   5.027 -0.0887  0.0348  0.7409
    6MOL   C121 1031   2.153   6.858   4.945  0.4426  0.2398  0.2758
    6MOL   O122 1032   2.071   6.947   4.973  0.3358  0.4728  0.1622
    6MOL   O123 1033   2.252   6.862   4.855 -0.2563 -0.1330  0.2882
    6MOL   H124 1034   2.305   6.630   5.155  0.1685 -0.0220  0.4618
    6MOL   H125 1035   2.381   6.670   5.011 -1.6097 -0.9994 -1.0316
    6MOL   H126 1036   2.184   6.651   4.956  0.9154  0.8656 -0.0335
    6MOL   H127 1037   2.224   6.925   4.790  1.8775 -0.2923 -0.8570
    6MOL   C128 1038   2.057   6.700   5.124  0.1374  0.7726 -0.9373
    6MOL   C129 1039   1.953   6.592   5.091  0.6974 -0.1509  0.2591
    6MOL   C130 1040   2.013   6.455   5.108 -0.3713  0.3703  0.0978
    6MOL   O131 1041   2.112   6.443   5.182  0.3070  0.0459  0.1454
    6MOL   O132 1042   1.950   6.355   5.036  0.3793 -0.0417  0.1339
    6MOL   H133 1043   2.004   6.793   5.144  0.4331  0.5215  1.0693
    6MOL   H134 1044   2.097   6.678   5.223 -1.2976 -0.5254 -0.6275
    6MOL   H135 1045   1.875   6.597   5.167 -0.4952 -0.2665 -0.9285
    6MOL   H136 1046   2.003   6.277   5.047  1.1615  0.2526 -1.4893
    6MOL   C137 1047   1.887   6.598   4.950  0.7020 -0.2152 -0.5489
    6MOL   C138 1048   1.809   6.728   4.911  0.3009  0.1563  0.8119
    6MOL   C139 1049   1.693   6.756   5.005  0.6013 -0.6299 -0.0569
    6MOL   O140 1050   1.646   6.673   5.082 -0.0323 -0.2906 -0.2825
    6MOL   O141 1051   1.646   6.882   4.986 -0.1040  0.0728  0.2685
    6MOL   H142 1052   1.825   6.513   4.923  0.2320  0.3190 -1.1854
    6MOL   H143 1053   1.972   6.589   4.882  0.3307  0.0826 -1.0582
    6MOL   H144 1054   1.879   6.811   4.925  0.3798  0.2017  0.1559
    6MOL   H145 1055   1.586   6.904   5.055  3.2860  3.0779  2.3926
    6MOL   C146 1056   1.758   6.727   4.768  0.5908 -0.0234 -0.0953
    6MOL   C147 1057   1.841   6.690   4.641 -0.8399  0.4726 -0.0548
    6MOL   C148 1058   1.919   6.812   4.591 -0.3693 -0.0684  0.2906
    6MOL   O149 1059   1.922   6.846   4.474  0.9143  0.2096  0.3418
    6MOL   O150 1060   1.985   6.882   4.687 -0.1571  0.1549 -0.0095
    6MOL   H151 1061   1.713   6.824   4.749  0.8882  0.4359  1.4667
    6MOL   H152 1062   1.672   6.660   4.769  0.0085  0.6934 -1.0014
    6MOL   H153 1063   1.919   6.619   4.670  0.4219  0.9622 -2.1061
    6MOL   H154 1064   2.026   6.951   4.638  1.1567 -0.4328  0.2506
    6MOL   C155 1065   1.760   6.622   4.522  0.4767  0.2103  0.1990
    6MOL   C156 1066   1.847   6.523   4.441  0.1760 -0.1303 -0.0651
    6MOL   C157 1067   1.825   6.557   4.295 -0.0812  0.7598  0.5610
    6MOL   O158 1068   1.731   6.512   4.232  0.1239  0.3257  0.0078
    6MOL   O159 1069   1.920   6.638   4.242  0.2701  0.2578 -0.1940
    6MOL   H160 1070   1.715   6.700   4.460  0.3748  0.5595  0.7065
    6MOL   H161 1071   1.680   6.560   4.563  1.6680 -0.7450  1.1118
    6MOL   H162 1072   1.951   6.537   4.471  0.1471 -3.2433  1.7172
    6MOL   H163 1073   1.892   6.627   4.153  1.3921 -0.7140 -0.4404
    6MOL   C164 1074   1.805   6.378   4.469  0.2255 -0.0746  0.0626
    6MOL   C165 1075   1.813   6.329   4.615 -0.0158  0.5184 -0.5218
    6MOL   C166 1076   1.964   6.296   4.636  0.2912  0.3410 -0.0564
    6MOL   O167 1077   2.034   6.360   4.715 -0.6196  0.2466  0.0976
    6MOL   O168 1078   2.008   6.183   4.587 -0.4212 -0.4977  1.0017
    6MOL   H169 1079   1.862   6.314   4.401  1.0511  1.7952 -1.0422
    6MOL   H170 1080   1.702   6.365   4.434  0.5719 -1.4168 -0.5006
    6MOL   H171 1081   1.783   6.409   4.682  0.9263  1.0017 -0.6745
    6MOL   H172 1082   1.958   6.138   4.521 -1.3664 -0.0730  1.4297
    6MOL   C173 1083   1.717   6.210   4.645 -0.4160 -0.7982 -0.0898
    6MOL   C174 1084   1.716   6.167   4.794  0.1752 -0.1210 -0.3801
    6MOL   C175 1085   1.656   6.273   4.886  0.2884  0.5537 -0.1979
    6MOL   O176 1086   1.595   6.373   4.844  0.2226  0.9334  0.4960
    6MOL   O177 1087   1.674   6.243   5.018  0.4736 -0.3826 -0.1574
    6MOL   H178 1088   1.750   6.125   4.586  0.9957 -0.6814  0.5156
    6MOL   H179 1089   1.614   6.229   4.613 -0.4531 -1.1654 -0.1847
    6MOL   H180 1090   1.651   6.080   4.802  0.6933 -0.4257  0.5136
    6MOL   H181 1091   1.656   6.312   5.081  0.7874  0.9451 -1.4943
    6MOL   H182 1092   1.821   6.145   4.816 -0.0329  0.7142  1.5159
    7MOL     C1 1093   7.095   4.658   3.274 -0.2520 -0.9940  0.0280
    7MOL     C2 1094   7.128   4.757   3.162 -0.1966  0.7827  0.0194
    7MOL     C3 1095   7.051   4.884   3.173 -0.3806 -0.4515  0.2225
    7MOL     O4 1096   6.944   4.889   3.235  0.3038 -0.2451  0.0622
    7MOL     O5 1097   7.109   4.990   3.103  0.2486  0.0860 -0.1863
    7MOL     H6 1098   7.092   4.715   3.367  3.0826 -0.3641 -0.1811
    7MOL     H7 1099   7.006   4.601   3.247 -0.6517 -1.1585  1.6906
    7MOL     H8 1100   7.235   4.773   3.176 -0.0249 -0.8391  0.6727
    7MOL     H9 1101   7.055   5.068   3.103  0.5759  0.3391 -2.3034
    7MOL    H10 1102   7.173   4.582   3.284  1.0720  0.5449  1.8657
    7MOL    C11 1103   7.108   4.697   3.022 -0.4422 -0.2325  0.0749
    7MOL    C12 1104   7.174   4.562   2.985  0.3232 -0.3117  0.9261
    7MOL    C13 1105   7.316   4.558   3.039  0.0377  0.2194  0.0586
    7MOL    O14 1106   7.398   4.645   3.031 -0.0874  0.2852 -0.3460
    7MOL    O15 1107   7.331   4.450   3.122  0.2897 -0.0303  0.0507
    7MOL    H16 1108   7.141   4.769   2.947 -0.9869  1.0087  0.9850
    7MOL    H17 1109   7.001   4.696   3.002 -0.7591  0.6210  1.6085
    7MOL    H18 1110   7.115   4.489   3.040 -0.5951 -0.0022  0.3699
    7MOL    H19 1111   7.419   4.446   3.155  0.1585 -0.0176  0.4041
    7MOL    C20 1112   7.175   4.539   2.830  0.4704 -0.5826 -0.0792
    7MOL    C21 1113   7.028   4.515   2.771 -0.0087 -0.6456  0.2753
    7MOL    C22 1114   6.943   4.405   2.838 -0.1125  0.2143  0.1070
    7MOL    O23 1115   6.981   4.305   2.889  0.8471 -0.0076  0.3755
    7MOL    O24 1116   6.809   4.445   2.841  0.0083  0.1322  0.5307
    7MOL    H25 1117   7.237   4.453   2.807  2.2507  0.3076  1.2799
    7MOL    H26 1118   7.231   4.621   2.784  0.7814 -1.8114 -1.9211
    7MOL    H27 1119   6.975   4.609   2.784  0.4348 -0.5690  1.7059
    7MOL    H28 1120   6.760   4.367   2.863  2.6451 -1.5590  0.5719
    7MOL    C29 1121   7.035   4.487   2.619  0.2439  0.6372  0.8465
    7MOL    C30 1122   6.901   4.473   2.544  0.3832 -0.2670  0.0616
    7MOL    C31 1123   6.937   4.419   2.401 -0.5972 -0.3703  0.4035
    7MOL    O32 1124   6.904   4.312   2.350 -0.3484  0.1244 -0.1264
    7MOL    O33 1125   7.010   4.512   2.335  0.5718 -0.0059  0.1942
    7MOL    H34 1126   7.094   4.397   2.601  1.5255  1.6223  0.0852
    7MOL    H35 1127   7.097   4.570   2.586 -0.7690  1.2087  0.3620
    7MOL    H36 1128   6.835   4.399   2.590 -0.7102  1.0267  0.6161
    7MOL    H37 1129   7.039   4.481   2.251  0.1470  0.2545 -0.0531
    7MOL    C38 1130   6.818   4.605   2.530  0.1744 -0.7587 -0.0762
    7MOL    C39 1131   6.682   4.590   2.458  0.5910  0.5644  0.7740
    7MOL    C40 1132   6.679   4.695   2.343  0.2690 -0.1379  0.2020
    7MOL    O41 1133   6.656   4.819   2.366 -0.2244  0.8550 -0.0217
    7MOL    O42 1134   6.687   4.636   2.216  0.2765 -0.7082 -0.3885
    7MOL    H43 1135   6.882   4.687   2.494 -1.6599  1.6509  1.9368
    7MOL    H44 1136   6.795   4.635   2.632  0.0550 -1.4130  0.0855
    7MOL    H45 1137   6.673   4.501   2.396 -1.8432  1.4051 -0.1755
    7MOL    H46 1138   6.646   4.694   2.153  2.1207 -0.5706 -1.5152
    7MOL    C47 1139   6.561   4.593   2.544 -0.0565 -0.4401  0.1029
    7MOL    C48 1140   6.426   4.582   2.465 -0.1527  0.1151  0.3184
    7MOL    C49 1141   6.312   4.668   2.529 -0.0257 -0.8472  0.0504
    7MOL    O50 1142   6.295   4.686   2.646 -0.7809  0.4224  0.4406
    7MOL    O51 1143   6.243   4.729   2.428 -0.1182  0.2263  0.0810
    7MOL    H52 1144   6.565   4.689   2.595  1.2341  0.6685 -2.0112
    7MOL    H53 1145   6.570   4.510   2.615  1.1348 -0.2234  0.2053
    7MOL    H54 1146   6.444   4.620   2.365  0.0111 -0.4897  0.1203
    7MOL    H55 1147   6.170   4.787   2.443  0.0001  0.9543 -1.9890
    7MOL    C56 1148   6.376   4.433   2.442 -0.3777  0.5486  0.3227
    7MOL    C57 1149   6.270   4.410   2.327  0.5254 -0.1266  0.2971
    7MOL    C58 1150   6.140   4.362   2.395 -0.0503  0.3987 -0.3057
    7MOL    O59 1151   6.109   4.245   2.407 -0.1969  0.4718 -0.3650
    7MOL    O60 1152   6.071   4.455   2.467 -0.2744  0.0225 -0.1998
    7MOL    H61 1153   6.350   4.388   2.538  1.5843  0.2569  0.7325
    7MOL    H62 1154   6.465   4.379   2.411 -0.5487 -0.4948  1.6029
    7MOL    H63 1155   6.260   4.512   2.290  1.2555  0.5811  1.9902
    7MOL    H64 1156   6.003   4.416   2.519  0.0690 -0.2511  0.0421
    7MOL    C65 1157   6.321   4.302   2.227 -0.2080 -0.1831  0.1684
    7MOL    C66 1158   6.430   4.346   2.124  0.0809  0.7966  0.1951
    7MOL    C67 1159   6.396   4.459   2.026 -0.1411 -0.0702  0.1698
    7MOL    O68 1160   6.480   4.543   1.991  0.1890 -0.0916  0.6291
    7MOL    O69 1161   6.273   4.441   1.976  0.4448 -0.4440  0.3614
    7MOL    H70 1162   6.234   4.268   2.171 -0.1755 -1.7404  1.0378
    7MOL    H71 1163   6.353   4.215   2.285 -2.7092 -0.4062  1.2961
    7MOL    H72 1164   6.505   4.398   2.183  0.5795  1.0907 -0.6902
    7MOL    H73 1165   6.255   4.491   1.898  1.5825 -2.7264 -1.4299
    7MOL    C74 1166   6.486   4.221   2.047 -0.5990 -0.0957  0.1269
    7MOL    C75 1167   6.641   4.184   2.062 -0.5833  0.0050 -0.3499
    7MOL    C76 1168   6.676   4.122   2.200  0.4468  0.1868 -0.7758
    7MOL    O77 1169   6.602   4.125   2.295  0.0257 -0.1386  0.2249
    7MOL    O78 1170   6.793   4.063   2.209  0.1773 -0.1736  0.1049
    7MOL    H79 1171   6.478   4.239   1.940 -0.0023 -0.0135  0.0922
    7MOL    H80 1172   6.427   4.132   2.071 -0.1753 -0.6713 -0.8986
    7MOL    H81 1173   6.650   4.098   1.996  0.6595 -0.2399  0.1245
    7MOL    H82 1174   6.804   4.022   2.293 -2.4324  0.1543  0.6402
    7MOL    C83 1175   6.745   4.301   2.026 -0.3735 -0.3541  0.3011
    7MOL    C84 1176   6.890   4.261   2.006 -0.2624  0.3889  0.2743
    7MOL    C85 1177   6.984   4.385   2.025  0.0494  0.1226 -0.1869
    7MOL    O86 1178   7.070   4.399   2.116 -0.0230  0.9681  0.7495
    7MOL    O87 1179   6.958   4.467   1.927 -0.0985 -0.1991  0.0752
    7MOL    H88 1180   6.752   4.368   2.111 -1.5142  2.5391 -1.7947
    7MOL    H89 1181   6.705   4.345   1.934 -2.7468 -0.8579  1.0575
    7MOL    H90 1182   6.929   4.204   2.090 -1.9087  2.4841  2.5277
    7MOL    H91 1183   7.003   4.549   1.940 -0.5622 -0.2191  1.9279
    7MOL    C92 1184   6.906   4.177   1.880  0.7632 -0.1175  0.4792
    7MOL    C93 1185   7.047   4.122   1.854  0.4296 -0.5878  0.4586
    7MOL    C94 1186   7.041   4.027   1.730  0.2903 -0.0404  0.4000
    7MOL    O95 1187   7.091   4.047   1.620 -0.4151 -0.4110  0.3257
    7MOL    O96 1188   6.966   3.921   1.757 -0.1198  0.0291 -0.0442
    7MOL    H97 1189   6.891   4.234   1.789 -0.2319 -1.5459 -0.2754
    7MOL    H98 1190   6.831   4.098   1.873  0.7532  0.0477 -1.6292
    7MOL    H99 1191   7.116   4.205   1.840 -0.4034  0.4074  2.0481
    7MOL   H100 1192   6.950   3.859   1.687  1.2749 -2.6440  1.9042
    7MOL   C101 1193   7.115   4.042   1.979 -0.3217  0.4755 -0.4259
    7MOL   C102 1194   7.251   3.962   1.965 -0.0118 -0.0615  0.0304
    7MOL   C103 1195   7.254   3.844   2.064  0.5231 -0.2506 -0.1415
    7MOL   O104 1196   7.339   3.842   2.153  0.5333  0.0311  0.0259
    7MOL   O105 1197   7.164   3.745   2.051  0.1873  0.0812 -0.4378
    7MOL   H106 1198   7.037   3.968   1.998 -0.5181  0.7297 -0.2296
    7MOL   H107 1199   7.126   4.102   2.069  0.0265 -0.9429  0.4963
    7MOL   H108 1200   7.252   3.902   1.874 -0.2523 -1.0593  0.6678
    7MOL   H109 1201   7.161   3.691   2.129  0.8282  3.0659  1.7477
    7MOL   C110 1202   7.364   4.064   1.964 -0.4176  0.4872 -0.5132
    7MOL   C111 1203   7.409   4.124   1.830 -0.2119  0.4979 -0.0959
    7MOL   C112 1204   7.497   4.035   1.735  0.2322  0.2551  0.1831
    7MOL   O113 1205   7.559   3.934   1.769  0.0568  0.1185  0.5327
    7MOL   O114 1206   7.489   4.081   1.604 -0.5318 -0.1603 -0.3835
    7MOL   H115 1207   7.452   4.015   2.004  0.5679  1.3211 -1.6155
    7MOL   H116 1208   7.351   4.140   2.041 -1.3054 -0.9281  0.7653
    7MOL   H117 1209   7.321   4.146   1.770 -0.0990  0.9879 -0.0900
    7MOL   H118 1210   7.544   4.036   1.542 -0.9758 -0.8165 -0.3047
    7MOL   C119 1211   7.482   4.263   1.864 -0.0699  0.2261  0.5373
    7MOL   C120 1212   7.394   4.387   1.876  0.1912  1.1776 -0.2123
    7MOL   C121 1213   7.335   4.446   1.746 -0.2605 -0.3219 -0.1660
    7MOL   O122 1214   7.217   4.484   1.737  0.1163 -0.0355  0.1136
    7MOL   O123 1215   7.426   4.442   1.643 -0.4140  0.6660  0.2332
    7MOL   H124 1216   7.556   4.286   1.788 -1.3616 -2.3448 -1.5433
    7MOL   H125 1217   7.530   4.253   1.962 -2.1835 -0.5139  1.5301
    7MOL   H126 1218   7.302   4.353   1.923  2.4043 -1.4229  2.4035
    7MOL   H127 1219   7.384   4.487   1.572 -3.3089 -0.6633  1.0168
    7MOL   C128 1220   7.452   4.497   1.970  0.5473 -0.0642  0.1946
    7MOL   C129 1221   7.600   4.537   1.944 -0.4239 -0.3457 -0.1405
    7MOL   C130 1222   7.660   4.600   2.073  0.3806  0.5183  0.5913
    7MOL   O131 1223   7.673   4.717   2.088  0.1141 -0.0949 -0.1176
    7MOL   O132 1224   7.699   4.508   2.168  0.6945 -0.5680  0.7703
    7MOL   H133 1225   7.457   4.455   2.070 -1.4012 -0.0482  0.3342
    7MOL   H134 1226   7.373   4.572   1.978 -0.4541 -1.0919  0.2050
    7MOL   H135 1227   7.648   4.442   1.921  1.0015  0.5708 -0.9937
    7MOL   H136 1228   7.724   4.556   2.246  2.5752 -0.8191  0.3343
    7MOL   C137 1229   7.610   4.625   1.814 -0.5727  0.0141 -0.2343
    7MOL   C138 1230   7.734   4.607   1.734  0.0958 -0.0239  0.3006
    7MOL   C139 1231   7.848   4.673   1.811  0.0529 -1.2094  0.0082
    7MOL   O140 1232   0.012   4.798   1.811  0.3354  0.0111 -0.6126
    7MOL   O141 1233   0.082   4.586   1.865 -0.1350  0.0180  0.2217
    7MOL   H142 1234   7.601   4.728   1.848 -0.9372 -0.3817  0.8863
    7MOL   H143 1235   7.523   4.631   1.748 -0.1892 -0.0529 -0.7455
    7MOL   H144 1236   7.754   4.501   1.725 -1.6459 -0.3150 -0.4128
    7MOL   H145 1237   0.174   4.602   1.874  0.0176 -1.4654  1.5754
    7MOL   C146 1238   7.717   4.656   1.591  0.8626  0.2299  0.4533
    7MOL   C147 1239   7.829   4.628   1.491 -0.2465 -0.1839 -0.2843
    7MOL   C148 1240   0.057   4.762   1.474 -0.2174  0.2561  0.0896
    7MOL   O149 1241   0.167   4.783   1.525 -0.2063  1.0023 -0.6553
    7MOL   O150 1242   7.852   4.853   1.383  0.0831  0.6386  0.0172
    7MOL   H151 1243   7.705   4.764   1.599 -0.0793  0.0713  1.2938
    7MOL   H152 1244   7.619   4.635   1.549  0.5011  0.2860  1.2478
    7MOL   H153 1245   0.044   4.557   1.537 -1.2451  0.2959  2.0334
    7MOL   H154 1246   0.057   4.927   1.372 -0.3918  1.0414  0.2097
    7MOL   C155 1247   7.775   4.573   1.353 -0.7430 -0.4887  0.2230
    7MOL   C156 1248   7.665   4.464   1.347 -0.1598  0.6155  0.7812
    7MOL   C157 1249   7.724   4.323   1.391 -0.0841  0.0219 -0.2065
    7MOL   O158 1250   7.763   4.241   1.312  0.6446  0.0976  0.5606
    7MOL   O159 1251   7.746   4.309   1.526  0.0368  0.0592 -0.1075
    7MOL   H160 1252   0.005   4.531   1.295 -0.2391  2.4507 -1.3023
    7MOL   H161 1253   7.739   4.660   1.298  0.4794 -0.0715  0.0693
    7MOL   H162 1254   7.587   4.485   1.421 -0.6828  1.5867 -0.0231
    7MOL   H163 1255   7.785   4.226   1.547  1.2627  0.5111 -0.5279
    7MOL   C164 1256   7.597   4.458   1.204  0.1227  0.3535  0.0298
    7MOL   C165 1257   7.467   4.372   1.175  0.0762  0.4832 -1.1138
    7MOL   C166 1258   7.434   4.392   1.030  0.0414 -0.6964  0.1310
    7MOL   O167 1259   7.485   4.478   0.964  0.2770  0.2024  0.1612
    7MOL   O168 1260   7.330   4.314   0.985  0.3620  0.0629 -0.0507
    7MOL   H169 1261   7.684   4.421   1.150 -0.0148 -2.8918  1.8395
    7MOL   H170 1262   7.584   4.562   1.177  0.0743  0.2534 -0.3397
    7MOL   H171 1263   7.507   4.271   1.184 -1.3937  0.0234  0.5140
    7MOL   H172 1264   7.306   4.343   0.899 -0.7428 -0.6334  0.0189
    7MOL   C173 1265   7.362   4.384   1.284 -0.5737 -0.5682  0.3694
    7MOL   C174 1266   7.265   4.262   1.288  0.1001  0.0848  0.0400
    7MOL   C175 1267   7.144   4.292   1.373 -0.3605 -0.2289  0.4567
    7MOL   O176 1268   7.033   4.294   1.326 -0.0684  1.0032 -0.0135
    7MOL   O177 1269   7.171   4.320   1.503  0.1736 -0.0083  0.1720
    7MOL   H178 1270   7.301   4.469   1.256  0.4459 -0.1097 -0.4945
    7MOL   H179 1271   7.406   4.382   1.383  3.7001  0.4640 -1.3838
    7MOL   H180 1272   7.232   4.241   1.186  0.9403  2.6349 -0.8145
    7MOL   H181 1273   7.089   4.337   1.547  0.6016 -0.2655  1.0904
    7MOL   H182 1274   7.317   4.170   1.314  1.5244  1.0433  0.6801
    8MOL     C1 1275   2.562   5.781   6.048 -0.0924 -0.0517  0.0412
    8MOL     C2 1276   2.609   5.896   6.132 -0.4314 -0.4842 -0.0718
    8MOL     C3 1277   2.503   5.936   6.240  0.0641 -0.1318 -0.0364
    8MOL     O4 1278   2.433   6.039   6.233 -0.0675  0.6814  0.2187
    8MOL     O5 1279   2.498   5.839   6.335 -0.0327 -0.7326 -0.4868
    8MOL     H6 1280   2.492   5.812   5.970 -1.1448  0.7938  1.2974
    8MOL     H7 1281   2.646   5.727   6.004  2.1581  1.4873  2.3131
    8MOL     H8 1282   2.700   5.868   6.185 -0.2560 -0.2515 -0.2456
    8MOL     H9 1283   2.423   5.842   6.393 -0.1969 -1.3762 -0.6497
    8MOL    H10 1284   2.512   5.713   6.117 -0.0205  1.2200  1.3515
    8MOL    C11 1285   2.645   6.012   6.041  0.1847  0.1075 -0.1881
    8MOL    C12 1286   2.712   6.137   6.114 -0.0082 -0.4674  0.4452
    8MOL    C13 1287   2.738   6.247   6.008  0.0368  0.0717  0.2164
    8MOL    O14 1288   2.651   6.290   5.929  0.3033 -0.7942 -0.5892
    8MOL    O15 1289   2.864   6.290   6.004 -0.2193  0.0947  0.6631
    8MOL    H16 1290   2.553   6.041   5.991  0.2504 -2.8743 -2.1653
    8MOL    H17 1291   2.716   5.976   5.966 -0.3241 -2.1021  0.3367
    8MOL    H18 1292   2.631   6.172   6.178 -1.1719 -0.1447 -1.1719
    8MOL    H19 1293   2.862   6.368   5.950 -1.7028  0.3656  1.1024
    8MOL    C20 1294   2.825   6.102   6.214  0.2898 -0.2640 -0.4569
    8MOL    C21 1295   2.873   6.224   6.307 -0.1550  0.0511  0.3172
    8MOL    C22 1296   2.982   6.165   6.397  0.2195  0.6640 -0.5755
    8MOL    O23 1297   2.978   6.157   6.518 -0.3442  0.3439  0.1230
    8MOL    O24 1298   3.087   6.108   6.328  0.2053 -0.2794  0.4748
    8MOL    H25 1299   2.910   6.061   6.160  0.3670 -0.7496  0.0373
    8MOL    H26 1300   2.790   6.024   6.281  0.1585  0.7864  0.7215
    8MOL    H27 1301   2.926   6.297   6.245 -4.4767  3.4471  0.4330
    8MOL    H28 1302   3.148   6.059   6.381 -0.3587 -2.1623 -0.5788
    8MOL    C29 1303   2.764   6.297   6.388  0.3572  0.2453  0.1204
    8MOL    C30 1304   2.735   6.440   6.338 -0.8193 -0.0469 -0.9609
    8MOL    C31 1305   2.848   6.535   6.376 -1.3999  0.0157  0.4864
    8MOL    O32 1306   2.934   6.496   6.453  0.1098  0.2258  0.2592
    8MOL    O33 1307   2.838   6.653   6.330  0.0559 -0.5497 -0.0310
    8MOL    H34 1308   2.790   6.301   6.494  0.8323  2.9992 -0.0801
    8MOL    H35 1309   2.677   6.231   6.397  1.8236 -1.4309  2.8862
    8MOL    H36 1310   2.724   6.434   6.230 -1.2588 -1.3091 -0.8595
    8MOL    H37 1311   2.925   6.689   6.338 -0.0027 -0.1240 -1.2141
    8MOL    C38 1312   2.604   6.506   6.390 -0.0476  0.4230 -0.4972
    8MOL    C39 1313   2.530   6.578   6.271 -0.3986  0.2031 -1.0125
    8MOL    C40 1314   2.456   6.701   6.329  0.3932  0.3681 -0.0418
    8MOL    O41 1315   2.479   6.811   6.295  0.6846 -0.3058 -0.3055
    8MOL    O42 1316   2.367   6.674   6.427  0.0348  0.3230  0.2954
    8MOL    H43 1317   2.623   6.574   6.472  1.4732  0.0754 -0.5447
    8MOL    H44 1318   2.539   6.426   6.424  0.3919 -0.5035 -1.7571
    8MOL    H45 1319   2.600   6.616   6.197  0.9683  1.0689  0.7154
    8MOL    H46 1320   2.329   6.750   6.467 -1.8579 -1.0009  1.0964
    8MOL    C47 1321   2.426   6.485   6.201  0.2395 -0.8012 -0.3911
    8MOL    C48 1322   2.427   6.497   6.046 -0.4280 -0.4535 -0.9520
    8MOL    C49 1323   2.401   6.638   5.982  0.0120  0.2865  0.1923
    8MOL    O50 1324   2.357   6.740   6.037 -0.1258 -0.4257  0.1883
    8MOL    O51 1325   2.435   6.645   5.853 -0.2567  0.1517  0.4230
    8MOL    H52 1326   2.323   6.501   6.235 -0.1942 -0.9967 -1.6058
    8MOL    H53 1327   2.432   6.384   6.243 -1.7691 -0.8554 -0.2007
    8MOL    H54 1328   2.534   6.487   6.029 -0.4909 -0.7348 -1.1838
    8MOL    H55 1329   2.423   6.730   5.813  1.8613  0.0440 -0.5086
    8MOL    C56 1330   2.370   6.373   5.971 -0.4844 -0.1410 -0.8517
    8MOL    C57 1331   2.218   6.351   5.972  0.4490  0.3491 -0.2807
    8MOL    C58 1332   2.146   6.336   6.105  0.1548 -0.1308  0.5710
    8MOL    O59 1333   2.045   6.399   6.131  0.3568 -0.2759 -0.4329
    8MOL    O60 1334   2.193   6.236   6.184  0.3489  0.3983  0.3011
    8MOL    H61 1335   2.424   6.284   6.004 -0.2853  0.8491  1.5450
    8MOL    H62 1336   2.401   6.373   5.867  1.6398  0.3583 -0.2371
    8MOL    H63 1337   2.170   6.443   5.937  2.2099  1.1246 -0.7453
    8MOL    H64 1338   2.150   6.254   6.266  2.3850  0.2869  1.4329
    8MOL    C65 1339   2.163   6.248   5.868  0.2674 -0.1974 -0.8384
    8MOL    C66 1340   2.232   6.111   5.876 -0.1112  0.4403  0.7793
    8MOL    C67 1341   2.330   6.089   5.759  0.0525 -0.3957 -1.0812
    8MOL    O68 1342   2.323   6.142   5.655  0.5241  0.1052 -0.0998
    8MOL    O69 1343   2.415   5.991   5.792  0.6138  0.2253 -0.4252
    8MOL    H70 1344   2.156   6.288   5.767  0.2991  2.9250  0.3416
    8MOL    H71 1345   2.057   6.231   5.888 -0.2226  1.2047 -2.1722
    8MOL    H72 1346   2.283   6.105   5.972  0.3119  0.2884  0.5476
    8MOL    H73 1347   2.464   5.967   5.715  0.5023 -1.6335  0.0545
    8MOL    C74 1348   2.134   5.994   5.884  0.5510  0.4069  0.2722
    8MOL    C75 1349   2.033   5.979   6.001 -0.1641  0.6854  0.1976
    8MOL    C76 1350   2.099   5.931   6.134 -0.4762 -0.2894 -0.2624
    8MOL    O77 1351   2.189   5.842   6.132  0.3544  0.0015  0.6853
    8MOL    O78 1352   2.050   5.980   6.250 -0.4417 -0.1582  0.0437
    8MOL    H79 1353   2.186   5.899   5.872  2.2164  1.2215  0.8809
    8MOL    H80 1354   2.077   5.999   5.791  1.5111 -4.1025 -0.6707
    8MOL    H81 1355   1.993   6.080   6.015  0.4321  1.0928 -0.9485
    8MOL    H82 1356   2.079   5.933   6.327  1.3357 -0.4429 -0.7855
    8MOL    C83 1357   1.912   5.890   5.957  0.8097  0.5833 -0.0303
    8MOL    C84 1358   1.795   5.907   6.052  0.2810  0.4419 -0.2959
    8MOL    C85 1359   1.727   5.773   6.088 -0.0339 -0.0110  0.8525
    8MOL    O86 1360   1.700   5.736   6.201 -0.3995  0.8728  0.1582
    8MOL    O87 1361   1.719   5.701   5.972  0.0917 -0.8107  0.2408
    8MOL    H88 1362   1.954   5.790   5.963 -0.9082 -0.1747 -0.4352
    8MOL    H89 1363   1.891   5.913   5.852 -1.1314 -1.3639 -0.1089
    8MOL    H90 1364   1.839   5.945   6.145  1.8167 -0.3681 -0.6629
    8MOL    H91 1365   1.681   5.619   5.999  1.4531 -1.6619 -0.3658
    8MOL    C92 1366   1.690   6.005   6.000  0.2386  0.7616  0.2288
    8MOL    C93 1367   1.630   6.102   6.103  0.8647 -0.3569  0.2741
    8MOL    C94 1368   1.743   6.189   6.158  0.5696 -0.3489 -0.6199
    8MOL    O95 1369   1.790   6.183   6.270 -0.0178  0.2381 -0.8273
    8MOL    O96 1370   1.792   6.272   6.066 -0.1502 -0.1676  0.0583
    8MOL    H97 1371   1.612   5.949   5.949  0.8540 -0.2558  0.3931
    8MOL    H98 1372   1.718   6.064   5.912 -1.7052  0.5013 -0.6037
    8MOL    H99 1373   1.562   6.159   6.040 -1.5992 -1.7456  1.5871
    8MOL   H100 1374   1.866   6.314   6.109 -0.8872  0.8568  0.3511
    8MOL   C101 1375   1.547   6.034   6.218  0.1085  0.4704  0.3602
    8MOL   C102 1376   1.451   6.128   6.297  0.7439 -0.0288  0.3862
    8MOL   C103 1377   1.401   6.055   6.423 -0.4165 -0.2879  0.4159
    8MOL   O104 1378   1.309   5.972   6.424 -0.0816 -0.5862  0.0222
    8MOL   O105 1379   1.460   6.104   6.535 -0.9288  0.5353  0.9767
    8MOL   H106 1380   1.611   5.978   6.286 -2.7844 -1.6580  1.4059
    8MOL   H107 1381   1.491   5.949   6.179  1.1578 -0.6684  1.2720
    8MOL   H108 1382   1.510   6.211   6.338 -0.2750  1.5847 -1.3380
    8MOL   H109 1383   1.437   6.069   6.619 -1.7775  0.8978  0.8996
    8MOL   C110 1384   1.326   6.184   6.214 -0.1999  0.3897 -0.0525
    8MOL   C111 1385   1.267   6.306   6.284  0.0889  0.2215  0.3430
    8MOL   C112 1386   1.111   6.298   6.292 -0.0529 -0.5469  0.1965
    8MOL   O113 1387   1.038   6.320   6.198 -0.9901 -0.2668  0.1694
    8MOL   O114 1388   1.060   6.269   6.413  0.0809 -0.4436  0.7210
    8MOL   H115 1389   1.243   6.113   6.207  1.6782 -1.9080  0.3169
    8MOL   H116 1390   1.361   6.203   6.113  1.1004  0.1605  0.3414
    8MOL   H117 1391   1.304   6.315   6.386  2.5770  1.9159 -0.6507
    8MOL   H118 1392   0.966   6.269   6.408  0.2047  0.3112 -3.6760
    8MOL   C119 1393   1.306   6.435   6.207 -0.3319  0.1979 -0.1092
    8MOL   C120 1394   1.442   6.511   6.225  0.2992  0.5893 -0.1500
    8MOL   C121 1395   1.493   6.490   6.361  0.0504  0.2340  0.4032
    8MOL   O122 1396   1.430   6.497   6.466 -0.5664 -0.5054  0.0664
    8MOL   O123 1397   1.626   6.457   6.362 -0.0216 -0.6259 -0.2251
    8MOL   H124 1398   1.229   6.507   6.234 -0.1314  1.0426 -1.7293
    8MOL   H125 1399   1.282   6.433   6.100 -1.0054 -0.0771  0.0429
    8MOL   H126 1400   1.513   6.461   6.159 -1.6961 -1.5965 -0.6984
    8MOL   H127 1401   1.662   6.455   6.450  0.9982  2.7975 -0.4753
    8MOL   C128 1402   1.435   6.666   6.206 -0.0368 -0.4626  0.5128
    8MOL   C129 1403   1.572   6.725   6.154 -0.6259 -0.2060 -0.4654
    8MOL   C130 1404   1.588   6.864   6.209 -0.1851  0.3999 -0.1174
    8MOL   O131 1405   1.675   6.889   6.295 -0.2376 -0.0191  0.0932
    8MOL   O132 1406   1.501   6.957   6.154  0.4385  0.6353  0.2746
    8MOL   H133 1407   1.395   6.716   6.294  2.6997  0.0775  1.5138
    8MOL   H134 1408   1.360   6.690   6.131  0.6091  0.0597  0.0202
    8MOL   H135 1409   1.654   6.665   6.192 -0.2331 -0.2818 -1.4238
    8MOL   H136 1410   1.527   7.047   6.164  1.0163  0.4339  0.5572
    8MOL   C137 1411   1.579   6.728   6.004 -0.5108 -1.1506 -0.1248
    8MOL   C138 1412   1.723   6.739   5.944  0.7884  0.2305  1.0987
    8MOL   C139 1413   1.794   6.603   5.956 -0.2756  0.2100 -0.2204
    8MOL   O140 1414   1.786   6.508   5.884  0.0878  0.0773  0.6693
    8MOL   O141 1415   1.868   6.603   6.069  0.1449 -0.1537 -0.7885
    8MOL   H142 1416   1.519   6.806   5.959  0.2338 -0.6022 -0.1834
    8MOL   H143 1417   1.545   6.635   5.959 -0.6404 -0.8379 -0.6751
    8MOL   H144 1418   1.707   6.740   5.837  0.0595 -1.4104  1.1811
    8MOL   H145 1419   1.921   6.525   6.070 -1.0573 -0.9952 -0.7313
    8MOL   C146 1420   1.807   6.870   5.973 -0.2019 -0.7582 -0.1044
    8MOL   C147 1421   1.917   6.893   5.867  0.1662  0.1305 -0.3926
    8MOL   C148 1422   2.033   6.971   5.928 -0.9481 -1.0362 -0.2689
    8MOL   O149 1423   2.073   7.082   5.895 -0.0613  0.0093  0.2674
    8MOL   O150 1424   2.083   6.906   6.040  0.0063  0.7934  0.2158
    8MOL   H151 1425   1.849   6.870   6.073  1.7412  3.0293 -0.8678
    8MOL   H152 1426   1.750   6.962   5.965 -0.2141 -0.8163 -0.7580
    8MOL   H153 1427   1.966   6.797   5.848 -1.5417 -0.6792 -0.8523
    8MOL   H154 1428   2.144   6.950   6.098 -0.8992  0.4146  1.4657
    8MOL   C155 1429   1.864   6.942   5.724  0.2437  0.0431 -0.9771
    8MOL   C156 1430   1.878   6.845   5.602  0.1554 -0.4440  0.1083
    8MOL   C157 1431   2.026   6.816   5.576 -0.1004  0.0850  0.5186
    8MOL   O158 1432   2.111   6.877   5.630  0.2798  0.3633 -0.0574
    8MOL   O159 1433   2.053   6.725   5.477 -0.3479  0.0804 -1.1783
    8MOL   H160 1434   1.920   7.030   5.694 -0.9455  0.8512 -0.8517
    8MOL   H161 1435   1.759   6.970   5.735  0.2704  0.0427 -0.7193
    8MOL   H162 1436   1.840   6.747   5.632  0.0430 -0.2701  0.5350
    8MOL   H163 1437   2.145   6.716   5.456  0.1352 -0.1286  0.9577
    8MOL   C164 1438   1.823   6.890   5.465  0.0784 -0.1704  0.4377
    8MOL   C165 1439   1.689   6.971   5.469  0.3583 -0.5915  0.3387
    8MOL   C166 1440   1.575   6.896   5.543 -0.1554  0.1652  0.0248
    8MOL   O167 1441   1.583   6.788   5.598 -0.5846 -0.1542 -0.4365
    8MOL   O168 1442   1.458   6.972   5.549 -0.1098 -0.3154 -0.7359
    8MOL   H169 1443   1.813   6.798   5.407  0.3826  1.1616 -1.7759
    8MOL   H170 1444   1.892   6.962   5.421 -0.0814 -0.4169 -0.2251
    8MOL   H171 1445   1.701   7.070   5.514  0.1840 -0.0786 -0.7137
    8MOL   H172 1446   1.383   6.934   5.591 -0.4956  0.7082 -0.4695
    8MOL   C173 1447   1.635   6.979   5.321  0.6791 -0.0919 -0.6810
    8MOL   C174 1448   1.677   7.103   5.236  0.5188  0.3821 -0.0818
    8MOL   C175 1449   1.802   7.102   5.160  0.3514  0.3192  0.0434
    8MOL   O176 1450   1.844   7.199   5.101 -0.8377 -0.0414 -0.0665
    8MOL   O177 1451   1.867   6.983   5.169 -0.0219 -0.0639  0.8061
    8MOL   H178 1452   1.529   7.002   5.328  0.5230 -1.1051  0.5568
    8MOL   H179 1453   1.646   6.887   5.262 -1.8143 -0.1133 -1.1377
    8MOL   H180 1454   1.604   7.097   5.155  0.9933 -3.8292 -0.3046
    8MOL   H181 1455   1.942   6.972   5.112 -0.5397 -1.3532  0.3637
    8MOL   H182 1456   1.663   7.197   5.288  0.0247 -1.3524  3.0738
    9MOL     C1 1457   3.775   7.118   0.159  0.5997 -0.2580 -0.4051
    9MOL     C2 1458   3.817   6.983   0.233 -0.1166  0.1317  0.2511
    9MOL     C3 1459   3.822   6.997   0.383 -0.5162  0.8896 -0.2631
    9MOL     O4 1460   3.853   7.100   0.437 -0.3893  0.3855 -0.5345
    9MOL     O5 1461   3.782   6.885   0.449 -0.2196 -0.2623 -0.4146
    9MOL     H6 1462   3.719   7.182   0.227 -1.6355 -1.2409 -1.2593
    9MOL     H7 1463   3.863   7.151   0.103 -1.1460  0.5632 -2.7385
    9MOL     H8 1464   3.732   6.916   0.216  0.0420  0.2103 -0.8666
    9MOL     H9 1465   3.775   6.894   0.543  2.4457  0.9401 -0.2591
    9MOL    H10 1466   3.709   7.099   0.074  1.5832  1.7659 -1.6782
    9MOL    C11 1467   3.945   6.920   0.180  0.4328  0.1873  0.4193
    9MOL    C12 1468   3.959   6.876   0.034 -0.3791  0.4000  0.1813
    9MOL    C13 1469   3.867   6.760   7.843 -0.5360 -1.3094  0.2650
    9MOL    O14 1470   3.839   6.749   7.721 -0.7571 -0.0113 -0.3095
    9MOL    O15 1471   3.821   6.680   0.088  0.4423 -0.3717 -0.0295
    9MOL    H16 1472   3.961   6.840   0.253 -1.2173  0.9445  1.6464
    9MOL    H17 1473   4.016   6.998   0.205  1.2360 -0.9421  1.7363
    9MOL    H18 1474   3.926   6.959   7.825  0.7061 -0.0094 -0.9711
    9MOL    H19 1475   3.748   6.630   0.055  0.5796  1.0086 -2.5814
    9MOL    C20 1476   4.103   6.841   7.843  0.1131 -0.8060 -0.1894
    9MOL    C21 1477   4.207   6.953   0.004 -0.0037 -0.0054  0.4576
    9MOL    C22 1478   4.151   7.088   7.802 -0.1638  0.7959 -0.3008
    9MOL    O23 1479   4.136   7.185   0.023  0.4285  0.5603  0.5570
    9MOL    O24 1480   4.139   7.078   7.665 -0.2123  0.1957 -0.2572
    9MOL    H25 1481   4.099   6.809   7.739 -3.0360 -0.9573 -0.0698
    9MOL    H26 1482   4.131   6.757   0.053  1.3599  0.4255  0.9277
    9MOL    H27 1483   4.239   6.972   0.107  0.7538 -0.5350  0.3220
    9MOL    H28 1484   4.119   7.162   7.627 -1.0186 -0.1909 -0.6766
    9MOL    C29 1485   4.339   6.903   7.790 -0.2461 -1.5251  0.2194
    9MOL    C30 1486   4.470   6.894   0.022  0.5592 -0.6374  0.1820
    9MOL    C31 1487   4.518   7.029   0.089 -0.1011 -0.4741  0.8402
    9MOL    O32 1488   4.480   7.139   0.049  0.5236  0.4107 -0.4668
    9MOL    O33 1489   4.604   7.013   0.193  0.2159 -0.1618 -0.4521
    9MOL    H34 1490   4.359   6.955   7.696 -2.0927 -0.1544  0.5415
    9MOL    H35 1491   4.311   6.803   7.760  0.3037 -1.3215 -0.9996
    9MOL    H36 1492   4.433   6.835   0.106  0.7071 -1.8473 -0.5992
    9MOL    H37 1493   4.639   7.099   0.212  1.9042 -1.1960  1.1906
    9MOL    C38 1494   4.577   6.795   7.817 -0.8235 -0.1666 -0.0163
    9MOL    C39 1495   4.692   6.856   7.741 -0.0650 -1.3989 -0.0109
    9MOL    C40 1496   4.654   6.936   7.617  0.0172 -0.0841  0.0794
    9MOL    O41 1497   4.696   7.047   7.600 -0.0716 -0.4245  0.8114
    9MOL    O42 1498   4.576   6.870   7.531  0.4151  0.1539 -0.8030
    9MOL    H43 1499   4.525   6.726   7.751 -0.5695 -0.3296 -0.0425
    9MOL    H44 1500   4.615   6.727   0.040  0.2707 -0.6594 -1.0007
    9MOL    H45 1501   4.738   6.929   7.807  0.1157 -0.3598 -1.2735
    9MOL    H46 1502   4.556   6.917   7.451 -1.4183 -1.0736 -1.1130
    9MOL    C47 1503   4.791   6.751   7.697  0.0569 -1.1862 -0.3519
    9MOL    C48 1504   4.876   6.689   7.811 -0.4645  0.9676  0.1831
    9MOL    C49 1505   5.009   6.764   0.002  0.2277  0.0968 -0.0696
    9MOL    O50 1506   5.091   6.713   0.075 -0.0817  0.5267  0.6149
    9MOL    O51 1507   5.007   6.898   7.825  0.0490 -0.6231 -0.7710
    9MOL    H52 1508   4.853   6.793   7.617  0.1593  0.7927  0.7440
    9MOL    H53 1509   4.751   6.670   7.635 -0.7971  1.3190 -3.2014
    9MOL    H54 1510   4.811   6.691   0.046 -1.1457  0.4568 -0.3022
    9MOL    H55 1511   5.073   6.950   0.014 -0.4083 -0.5748 -0.1007
    9MOL    C56 1512   4.904   6.538   7.798  0.2167 -0.4172  0.3364
    9MOL    C57 1513   4.998   6.483   7.682 -0.3823 -0.6236 -0.5729
    9MOL    C58 1514   4.926   6.362   7.618  0.2034  0.5944  1.0376
    9MOL    O59 1515   4.936   6.247   7.664 -1.2988 -0.3057  0.2018
    9MOL    O60 1516   4.859   6.414   7.511  0.3701 -0.0689 -0.3188
    9MOL    H61 1517   4.806   6.493   7.785 -0.0573  0.5478 -1.0508
    9MOL    H62 1518   4.931   6.492   0.040 -4.0857  1.5438  2.6856
    9MOL    H63 1519   5.004   6.559   7.604 -0.0492  2.9390  2.7401
    9MOL    H64 1520   4.814   6.337   7.481 -0.4674  0.3189 -0.0756
    9MOL    C65 1521   5.134   6.458   7.743 -0.6375 -0.7268 -0.2615
    9MOL    C66 1522   5.247   6.380   7.663 -0.0743  0.5494 -0.7108
    9MOL    C67 1523   5.369   6.353   7.760  0.1049 -0.3702  0.1302
    9MOL    O68 1524   5.393   6.239   7.801 -0.0721 -0.3190  0.6858
    9MOL    O69 1525   5.448   6.465   7.777  0.3515 -0.0417 -0.6683
    9MOL    H70 1526   5.118   6.396   7.831 -0.0877 -1.1376 -0.4557
    9MOL    H71 1527   5.176   6.556   7.765 -1.3335 -0.2082 -1.1497
    9MOL    H72 1528   5.203   6.284   7.635 -0.8411  0.3710  1.0468
    9MOL    H73 1529   5.525   6.448   7.829  2.1448  4.4754 -1.6442
    9MOL    C74 1530   5.291   6.449   7.535 -0.0147 -0.1485 -0.4037
    9MOL    C75 1531   5.341   6.359   7.412  0.9303  0.1142  0.1441
    9MOL    C76 1532   5.231   6.291   7.326 -0.4971  0.4372 -0.4047
    9MOL    O77 1533   5.226   6.305   7.204  1.0004  0.5046  0.2498
    9MOL    O78 1534   5.139   6.216   7.400 -0.3407 -0.2013 -0.1806
    9MOL    H79 1535   5.356   6.536   7.540  0.6510 -0.5454 -1.8226
    9MOL    H80 1536   5.204   6.509   7.506  0.6381  1.4130  0.8443
    9MOL    H81 1537   5.396   6.431   7.352  0.2400  0.7708  0.2926
    9MOL    H82 1538   5.080   6.177   7.338 -1.2438 -2.5729  2.0668
    9MOL    C83 1539   5.440   6.255   7.463  0.3777 -0.0093  0.2304
    9MOL    C84 1540   5.551   6.227   7.366  0.7604  0.0657  0.1031
    9MOL    C85 1541   5.500   6.126   7.265 -0.6242  0.2507  0.8139
    9MOL    O86 1542   5.458   6.158   7.153 -0.1370  0.3983  0.1862
    9MOL    O87 1543   5.479   6.006   7.321 -0.1556  0.8418  0.1676
    9MOL    H88 1544   5.388   6.166   7.499  0.5564 -0.1025  0.2570
    9MOL    H89 1545   5.498   6.286   7.550 -1.5396  0.4681  1.3786
    9MOL    H90 1546   5.566   6.319   7.308 -0.7718  1.7297  2.2803
    9MOL    H91 1547   5.446   5.941   7.260  0.9081  0.2840  0.1823
    9MOL    C92 1548   5.673   6.176   7.440 -0.3317  0.3258  0.0367
    9MOL    C93 1549   5.804   6.177   7.358  0.0164  0.3603  0.4180
    9MOL    C94 1550   5.904   6.075   7.421 -0.1928 -0.2971 -0.6069
    9MOL    O95 1551   5.969   6.096   7.520  0.2948  0.1090  0.5427
    9MOL    O96 1552   5.903   5.956   7.356  0.0474 -0.3971 -0.2029
    9MOL    H97 1553   5.654   6.074   7.474  0.1842  0.8943  2.1107
    9MOL    H98 1554   5.693   6.235   7.530  0.0346 -0.2638  0.3424
    9MOL    H99 1555   5.785   6.145   7.256 -0.5765 -1.2854  1.0323
    9MOL   H100 1556   5.950   5.892   7.408 -1.5910 -1.3027  0.2179
    9MOL   C101 1557   5.867   6.323   7.366  0.6447 -0.0293 -0.5129
    9MOL   C102 1558   5.997   6.347   7.287  0.2337  0.2407  0.0754
    9MOL   C103 1559   6.027   6.498   7.287  0.3506 -0.0248 -0.3063
    9MOL   O104 1560   6.125   6.544   7.344 -0.0981  0.2115  0.3030
    9MOL   O105 1561   5.931   6.576   7.222 -0.0037  0.1794 -0.1003
    9MOL   H106 1562   5.891   6.336   7.471 -2.9456  0.7931  0.2779
    9MOL   H107 1563   5.793   6.399   7.339  0.7611  0.6302  0.9741
    9MOL   H108 1564   6.079   6.295   7.337 -0.2871 -1.4324 -0.7829
    9MOL   H109 1565   5.944   6.669   7.229  0.4725  0.0699  0.5316
    9MOL   C110 1566   5.988   6.293   7.144  0.0178  0.4882  1.4457
    9MOL   C111 1567   6.115   6.251   7.066 -0.4311 -0.1712  0.1208
    9MOL   C112 1568   6.186   6.138   7.137 -0.6340  0.1551 -0.5318
    9MOL   O113 1569   6.294   6.147   7.191 -0.2700 -0.5827 -0.1159
    9MOL   O114 1570   6.113   6.019   7.149  0.0964 -0.4807 -0.4240
    9MOL   H115 1571   5.950   6.363   7.069  1.8896  1.0791  1.0377
    9MOL   H116 1572   5.910   6.218   7.127  1.4546 -0.4292 -1.3967
    9MOL   H117 1573   6.085   6.205   6.972 -2.2911  0.5696  0.3295
    9MOL   H118 1574   6.042   6.009   7.088 -1.3212  1.0212  0.9240
    9MOL   C119 1575   6.195   6.384   7.032  0.4969 -0.0071 -0.5693
    9MOL   C120 1576   6.264   6.376   6.891  0.4928 -0.2632  0.4779
    9MOL   C121 1577   6.384   6.471   6.895  0.0508  1.2984  0.1339
    9MOL   O122 1578   6.387   6.573   6.841 -0.3710 -0.2044 -0.2682
    9MOL   O123 1579   6.476   6.428   6.981  0.0919 -0.0437  0.5355
    9MOL   H124 1580   6.273   6.395   7.107  0.9828 -0.2976 -1.0237
    9MOL   H125 1581   6.136   6.475   7.028  0.7547  0.2277  0.8928
    9MOL   H126 1582   6.313   6.279   6.881  1.8546  0.5786 -1.1289
    9MOL   H127 1583   6.558   6.474   6.975 -0.4170  0.9489  1.0266
    9MOL   C128 1584   6.161   6.416   6.772 -0.4173  0.8989  0.1306
    9MOL   C129 1585   6.210   6.423   6.624  0.0437 -0.8690  0.0334
    9MOL   C130 1586   6.120   6.498   6.524  0.3622 -0.0852 -0.2143
    9MOL   O131 1587   6.012   6.547   6.559 -0.1993  0.0375  0.2146
    9MOL   O132 1588   6.167   6.499   6.398  0.2179 -0.1989 -0.0083
    9MOL   H133 1589   6.130   6.520   6.785  0.6561  1.1445  0.7354
    9MOL   H134 1590   6.072   6.354   6.786 -1.7159  2.8999  1.0013
    9MOL   H135 1591   6.299   6.486   6.630 -0.0975 -0.8554  2.6509
    9MOL   H136 1592   6.258   6.480   6.382  1.0693  1.7401  2.3262
    9MOL   C137 1593   6.259   6.284   6.580 -0.2235  0.1582 -0.1718
    9MOL   C138 1594   6.153   6.174   6.543 -0.0411  0.4349 -0.2780
    9MOL   C139 1595   6.136   6.074   6.654 -0.8444  0.2860  0.0280
    9MOL   O140 1596   6.217   6.065   6.742 -0.9992 -0.2713  0.2031
    9MOL   O141 1597   6.028   5.993   6.635  0.2739 -0.3612 -0.3011
    9MOL   H142 1598   6.334   6.245   6.649  0.2259  1.4449  0.0834
    9MOL   H143 1599   6.324   6.298   6.494  0.9977  0.9661  0.8624
    9MOL   H144 1600   6.065   6.238   6.536 -0.4980 -0.1540  0.0136
    9MOL   H145 1601   6.010   5.931   6.704 -2.7977  0.5407 -0.2221
    9MOL   C146 1602   6.180   6.117   6.399 -0.1897  0.6303  0.2270
    9MOL   C147 1603   6.323   6.035   6.386  0.1089 -0.6596 -0.4890
    9MOL   C148 1604   6.399   6.095   6.269 -0.3979 -0.2068  0.1234
    9MOL   O149 1605   6.348   6.096   6.159  0.2494  0.4905  0.4496
    9MOL   O150 1606   6.507   6.168   6.308 -0.1098 -0.2715 -0.3184
    9MOL   H151 1607   6.172   6.193   6.322  0.9705  0.5689  0.0312
    9MOL   H152 1608   6.105   6.039   6.389  1.5664 -0.9649 -0.7828
    9MOL   H153 1609   6.374   6.058   6.480 -0.6083  0.9475 -0.4681
    9MOL   H154 1610   6.535   6.206   6.227  3.0727  1.6820  1.5698
    9MOL   C155 1611   6.308   5.880   6.350 -0.0817 -0.0442 -0.2862
    9MOL   C156 1612   6.438   5.796   6.376 -0.2462 -0.1390 -0.7896
    9MOL   C157 1613   6.485   5.801   6.523  0.3380 -0.3554 -0.0591
    9MOL   O158 1614   6.477   5.709   6.599 -0.4408  0.7058  0.3317
    9MOL   O159 1615   6.553   5.917   6.555  0.3352 -0.1271  0.6139
    9MOL   H160 1616   6.272   5.873   6.247  0.4091  0.0297 -0.4617
    9MOL   H161 1617   6.225   5.842   6.409  2.2412  0.6150  3.5525
    9MOL   H162 1618   6.406   5.691   6.372  1.2042 -0.5559 -1.6891
    9MOL   H163 1619   6.598   5.900   6.636  0.0292  1.1485  1.0582
    9MOL   C164 1620   6.548   5.825   6.263 -0.0033 -0.1197 -0.4909
    9MOL   C165 1621   6.644   5.709   6.214  0.7033 -0.5812 -0.0030
    9MOL   C166 1622   6.691   5.619   6.328  0.5263  0.2219  0.6453
    9MOL   O167 1623   6.670   5.503   6.322  0.6341  0.2843 -0.2504
    9MOL   O168 1624   6.760   5.685   6.421  0.1380 -0.1560  0.2496
    9MOL   H169 1625   6.612   5.908   6.291 -0.6956  0.3097 -0.1658
    9MOL   H170 1626   6.493   5.860   6.176  2.9868 -0.8871 -2.7954
    9MOL   H171 1627   6.592   5.645   6.143  0.2571  0.5693 -0.7240
    9MOL   H172 1628   6.774   5.617   6.484 -2.3261  0.6403  1.7120
    9MOL   C173 1629   6.766   5.778   6.145 -0.6816  0.2925  0.3529
    9MOL   C174 1630   6.891   5.698   6.115  0.7856  0.2238  0.4280
    9MOL   C175 1631   6.878   5.605   6.001 -0.4479 -0.0863 -0.6840
    9MOL   O176 1632   6.769   5.579   5.956 -0.4604  0.3940 -0.0647
    9MOL   O177 1633   6.996   5.569   5.949 -0.4955 -0.5652  0.0758
    9MOL   H178 1634   6.806   5.852   6.214  1.1479 -1.3668  1.1235
    9MOL   H179 1635   6.745   5.842   6.059 -2.1517 -0.4463  0.1480
    9MOL   H180 1636   6.968   5.767   6.081  0.7456 -1.4369 -3.2405
    9MOL   H181 1637   6.981   5.539   5.861 -0.2053  0.5712 -0.3714
    9MOL   H182 1638   6.924   5.653   6.209  0.0093 -0.0221  0.5863
   10MOL     C1 1639   0.265   1.359   2.298 -0.4759  0.1421 -0.2176
   10MOL     C2 1640   0.219   1.476   2.205 -0.4399  0.7260  0.4057
   10MOL     C3 1641   0.093   1.430   2.133  0.2952 -0.6332  0.3925
   10MOL     O4 1642   7.837   1.487   2.142  0.1479 -0.6902 -0.3892
   10MOL     O5 1643   0.122   1.321   2.054 -0.0400 -0.2702 -0.1210
   10MOL     H6 1644   0.181   1.342   2.366 -1.2969 -1.4577 -1.6034
   10MOL     H7 1645   0.278   1.262   2.251 -1.1291 -0.6216  1.1400
   10MOL     H8 1646   0.190   1.567   2.256 -0.9888  1.7398 -1.6627
   10MOL     H9 1647   0.043   1.302   2.006  0.8236 -0.8162 -1.3613
   10MOL    H10 1648   0.357   1.377   2.353 -0.4616 -1.7292  0.4106
   10MOL    C11 1649   0.342   1.522   2.114 -0.4037 -0.4772 -0.1738
   10MOL    C12 1650   0.333   1.646   2.026  0.9110  0.0050  0.3070
   10MOL    C13 1651   0.209   1.663   1.937 -0.1999 -0.1336  0.1045
   10MOL    O14 1652   0.122   1.744   1.966  0.7925  0.0693  0.2997
   10MOL    O15 1653   0.221   1.584   1.828  0.3592 -0.3641 -0.5723
   10MOL    H16 1654   0.396   1.445   2.059  0.5529 -1.9173  2.6632
   10MOL    H17 1655   0.412   1.542   2.196 -1.7631  2.6097  0.3018
   10MOL    H18 1656   0.306   1.721   2.100  0.7389  1.1335 -0.8882
   10MOL    H19 1657   0.141   1.586   1.777  0.4664  2.6628 -0.6817
   10MOL    C20 1658   0.468   1.673   1.954 -0.1771  0.5207  0.3141
   10MOL    C21 1659   0.585   1.707   2.048  0.0825  0.6670  0.2776
   10MOL    C22 1660   0.635   1.846   2.016 -0.0122 -0.1535 -0.4135
   10MOL    O23 1661   0.735   1.866   1.952 -0.4589 -0.2168  0.3905
   10MOL    O24 1662   0.546   1.935   2.048  0.1137  0.1192  0.1960
   10MOL    H25 1663   0.442   1.750   1.882  1.3107  1.1300  0.3961
   10MOL    H26 1664   0.488   1.586   1.891  0.2208 -0.8747  2.2937
   10MOL    H27 1665   0.548   1.718   2.150  0.2172  0.9382  0.2981
   10MOL    H28 1666   0.572   2.022   2.022  0.9361  0.4051  1.8666
   10MOL    C29 1667   0.694   1.598   2.057 -0.7137 -0.0870  0.3622
   10MOL    C30 1668   0.794   1.612   2.178 -0.3984 -0.5091  0.1605
   10MOL    C31 1669   0.939   1.587   2.137 -0.5364  0.1728 -0.3785
   10MOL    O32 1670   0.995   1.483   2.138  0.0240  0.4612  0.0231
   10MOL    O33 1671   1.003   1.698   2.089 -0.1040 -0.4773 -0.1151
   10MOL    H34 1672   0.750   1.617   1.965 -0.5497 -0.8044  0.3042
   10MOL    H35 1673   0.662   1.494   2.050 -0.4471 -0.0268 -2.5327
   10MOL    H36 1674   0.791   1.717   2.209  2.4331 -0.2850 -0.1855
   10MOL    H37 1675   1.086   1.675   2.049  0.8358 -0.4875  1.7714
   10MOL    C38 1676   0.748   1.522   2.299  0.3470 -0.2457 -0.5000
   10MOL    C39 1677   0.831   1.553   2.433 -0.2286  0.1298  0.3483
   10MOL    C40 1678   0.853   1.426   2.527  0.5724 -0.5641 -0.4802
   10MOL    O41 1679   0.828   1.420   2.648  0.0649  0.1880  0.2270
   10MOL    O42 1680   0.891   1.314   2.459  0.0003  0.4448  0.1944
   10MOL    H43 1681   0.763   1.417   2.274  0.5417  0.3515 -2.9617
   10MOL    H44 1682   0.645   1.538   2.329  0.7758  0.6602  0.5335
   10MOL    H45 1683   0.937   1.564   2.411  0.0607 -0.9915  1.1479
   10MOL    H46 1684   0.877   1.242   2.518 -1.8730 -0.1277 -0.9144
   10MOL    C47 1685   0.808   1.682   2.521 -0.2446 -0.3825 -0.2116
   10MOL    C48 1686   0.672   1.688   2.598  0.3596  0.2246 -0.2444
   10MOL    C49 1687   0.564   1.773   2.540  0.2437  0.6850 -0.7557
   10MOL    O50 1688   0.461   1.802   2.598  0.2557  0.3533 -0.1781
   10MOL    O51 1689   0.584   1.816   2.412 -0.1344 -1.1174  0.5452
   10MOL    H52 1690   0.830   1.762   2.452 -0.6354 -1.8031 -2.0264
   10MOL    H53 1691   0.889   1.695   2.593 -0.5521 -0.5322  0.1664
   10MOL    H54 1692   0.633   1.586   2.593 -1.1220  0.8239 -1.2868
   10MOL    H55 1693   0.511   1.859   2.370 -0.3475  0.0024  2.0508
   10MOL    C56 1694   0.671   1.702   2.749  0.4151  0.3692 -0.3375
   10MOL    C57 1695   0.685   1.841   2.817  0.2202  0.0944  0.4024
   10MOL    C58 1696   0.820   1.900   2.783  0.1633 -0.4509  1.3672
   10MOL    O59 1697   0.838   1.974   2.687  0.3630  0.4625  0.0703
   10MOL    O60 1698   0.922   1.849   2.850  0.0285 -0.4868  0.4081
   10MOL    H61 1699   0.755   1.645   2.789 -1.5170 -0.8912  2.0333
   10MOL    H62 1700   0.588   1.642   2.784  0.9476 -1.9201 -2.8802
   10MOL    H63 1701   0.607   1.909   2.784 -1.3523 -2.7176 -1.8912
   10MOL    H64 1702   0.999   1.893   2.820 -0.2883  1.5423  2.4397
   10MOL    C65 1703   0.652   1.853   2.973 -0.0629  1.3868  0.2125
   10MOL    C66 1704   0.508   1.878   3.019 -0.6206 -0.1343 -0.1574
   10MOL    C67 1705   0.455   2.004   2.963  0.1564 -0.1469 -0.2791
   10MOL    O68 1706   0.525   2.091   2.909  0.0376 -0.0195 -0.1487
   10MOL    O69 1707   0.320   2.014   2.984  0.0036  0.1514  0.4336
   10MOL    H70 1708   0.705   1.936   3.020 -0.3435  1.5476  0.2426
   10MOL    H71 1709   0.692   1.760   3.015 -2.2098 -0.0254 -0.7526
   10MOL    H72 1710   0.452   1.791   2.984  1.2752 -0.2247 -3.1170
   10MOL    H73 1711   0.293   2.098   2.949 -1.3135 -0.2465  0.5076
   10MOL    C74 1712   0.505   1.876   3.174  0.2719 -0.1216 -0.4035
   10MOL    C75 1713   0.489   1.743   3.247 -0.8228 -0.1505 -0.0500
   10MOL    C76 1714   0.346   1.705   3.280 -0.6463  0.0270  0.5258
   10MOL    O77 1715   0.254   1.785   3.290  0.2855 -0.3540  0.4060
   10MOL    O78 1716   0.337   1.572   3.310  0.8841 -0.1539  0.3491
   10MOL    H79 1717   0.426   1.935   3.220  0.8249 -1.2718  2.1259
   10MOL    H80 1718   0.596   1.929   3.203  1.1096 -0.8323 -1.6819
   10MOL    H81 1719   0.530   1.676   3.172  1.7185  0.4648  0.7444
   10MOL    H82 1720   0.248   1.555   3.337  0.2421  2.9827  0.4453
   10MOL    C83 1721   0.589   1.733   3.369  0.5170  1.1723 -0.3799
   10MOL    C84 1722   0.543   1.777   3.510  0.0885 -0.1346 -0.3634
   10MOL    C85 1723   0.530   1.935   3.529 -0.4990  0.5584 -0.3743
   10MOL    O86 1724   0.605   2.008   3.595  0.3403  0.1599  0.3662
   10MOL    O87 1725   0.411   1.976   3.471  0.2110  0.2867 -0.0589
   10MOL    H88 1726   0.683   1.781   3.341  0.6993  0.6788 -0.6297
   10MOL    H89 1727   0.620   1.629   3.381  2.3833  1.9401  1.8852
   10MOL    H90 1728   0.440   1.747   3.529 -0.1046  1.6255  1.6443
   10MOL    H91 1729   0.398   2.070   3.469 -0.6386  0.1553 -1.6658
   10MOL    C92 1730   0.645   1.708   3.611  0.0246 -0.7964 -0.5669
   10MOL    C93 1731   0.621   1.741   3.761  0.0170 -0.2742 -0.6544
   10MOL    C94 1732   0.745   1.800   3.820  0.0838 -0.3614 -0.7883
   10MOL    O95 1733   0.855   1.757   3.795 -0.4226 -0.0677  0.3456
   10MOL    O96 1734   0.725   1.909   3.902 -0.2389 -0.1055 -0.6397
   10MOL    H97 1735   0.739   1.758   3.590 -0.6906  2.8235  3.9091
   10MOL    H98 1736   0.663   1.603   3.590  3.8413 -0.4403  0.5441
   10MOL    H99 1737   0.539   1.812   3.767  1.9896  2.2288 -2.3214
   10MOL   H100 1738   0.633   1.917   3.921  0.0776 -0.0268  0.9287
   10MOL   C101 1739   0.585   1.602   3.836 -0.5610  0.2496  0.6027
   10MOL   C102 1740   0.518   1.618   3.977  0.7899 -0.7129 -0.7448
   10MOL   C103 1741   0.540   1.484   4.054  0.2693  0.0008 -0.3009
   10MOL   O104 1742   0.453   1.397   4.059 -0.1459  0.6226 -0.2271
   10MOL   O105 1743   0.665   1.472   4.106  0.2278  0.1275 -0.3289
   10MOL   H106 1744   0.679   1.548   3.845 -1.5868 -1.1603  3.6126
   10MOL   H107 1745   0.526   1.541   3.768  0.7091  0.8307 -1.0487
   10MOL   H108 1746   0.580   1.687   4.033  0.1123 -2.3064  2.0562
   10MOL   H109 1747   0.721   1.547   4.091  2.9008 -1.3846  1.5021
   10MOL   C110 1748   0.372   1.666   3.962 -0.2609 -0.5830  1.0709
   10MOL   C111 1749   0.336   1.789   4.052 -0.8155  0.6937  0.6391
   10MOL   C112 1750   0.365   1.922   3.983  0.2120 -0.7609 -0.5218
   10MOL   O113 1751   0.479   1.970   3.955 -0.7292 -0.4176  0.0776
   10MOL   O114 1752   0.246   1.976   3.947 -0.4210 -0.8123 -0.2936
   10MOL   H115 1753   0.302   1.585   3.979  1.7878 -2.4292  0.9428
   10MOL   H116 1754   0.358   1.705   3.861  0.8847 -1.0581  0.7230
   10MOL   H117 1755   0.230   1.777   4.073 -0.1721 -1.8313  2.6897
   10MOL   H118 1756   0.270   2.045   3.888  1.9249 -1.2359  0.1186
   10MOL   C119 1757   0.387   1.777   4.197  0.0299 -0.7605  0.3144
   10MOL   C120 1758   0.297   1.854   4.305  0.0671  0.3371  0.2623
   10MOL   C121 1759   0.361   1.964   4.390 -0.9122 -0.4104  0.2532
   10MOL   O122 1760   0.327   1.993   4.503  0.6545  0.3146 -0.0454
   10MOL   O123 1761   0.458   2.031   4.328  0.5776  0.1839 -0.0133
   10MOL   H124 1762   0.491   1.806   4.213 -0.5829  1.3199  0.6944
   10MOL   H125 1763   0.387   1.672   4.227  0.0721 -0.1981  2.4010
   10MOL   H126 1764   0.229   1.909   4.240  1.4638  0.7833 -0.8516
   10MOL   H127 1765   0.490   2.100   4.383  0.7503 -0.9856  1.3688
   10MOL   C128 1766   0.204   1.759   4.384  0.5558 -0.2089 -1.0573
   10MOL   C129 1767   0.090   1.701   4.299  0.9509  0.2982 -0.3990
   10MOL   C130 1768   7.848   1.809   4.234  0.0613  0.6369 -1.0060
   10MOL   O131 1769   7.832   1.918   4.290 -0.2400 -0.3231  0.1036
   10MOL   O132 1770   7.806   1.776   4.109 -0.1089  0.0826  0.1167
   10MOL   H133 1771   0.158   1.804   4.473  0.8154  0.0401 -1.0499
   10MOL   H134 1772   0.261   1.670   4.412  0.1308  0.1757  1.1441
   10MOL   H135 1773   0.128   1.646   4.213 -1.8926  0.5208 -1.8482
   10MOL   H136 1774   7.782   1.854   4.061  0.9371  1.3415  1.5928
   10MOL   C137 1775   0.018   1.599   4.386 -0.4694 -0.2502  0.6620
   10MOL   C138 1776   7.754   1.518   4.315  0.1533  0.1153 -0.9840
   10MOL   C139 1777   7.621   1.561   4.393 -0.5558  0.6127 -0.4993
   10MOL   O140 1778   7.561   1.485   4.472  0.2617  0.0534 -0.4587
   10MOL   O141 1779   7.584   1.685   4.365 -0.4972  0.3818 -0.5302
   10MOL   H142 1780   7.823   1.647   4.471 -0.0077 -1.4632  1.6330
   10MOL   H143 1781   0.090   1.522   4.415  0.4980  0.3419 -0.1381
   10MOL   H144 1782   7.742   1.561   4.216 -0.4572 -2.4477 -2.0521
   10MOL   H145 1783   7.503   1.705   4.410 -2.0135 -2.0689 -2.0772
   10MOL   C146 1784   7.780   1.365   4.308  0.3165 -0.1689 -0.3848
   10MOL   C147 1785   7.664   1.294   4.224  0.5851  0.3801  0.6586
   10MOL   C148 1786   7.662   1.145   4.247 -0.1747  0.1849  0.2732
   10MOL   O149 1787   7.569   1.086   4.296  0.0740 -0.2784  0.5131
   10MOL   O150 1788   7.773   1.090   4.196 -0.6800 -0.1157 -0.2303
   10MOL   H151 1789   7.781   1.320   4.408  0.9605  0.0188 -0.3061
   10MOL   H152 1790   0.026   1.360   4.263  0.7428  0.3460  0.4792
   10MOL   H153 1791   7.568   1.328   4.264 -1.2359 -1.1081 -2.3106
   10MOL   H154 1792   7.834   1.162   4.184 -0.8190  0.0911  0.2981
   10MOL   C155 1793   7.673   1.324   4.074  0.3693  0.5951  0.2159
   10MOL   C156 1794   7.564   1.423   4.022  0.8057 -0.3976  0.1705
   10MOL   C157 1795   7.415   1.376   4.025 -0.3599 -0.0069  0.8960
   10MOL   O158 1796   7.341   1.416   4.112 -0.2547  0.0333  0.1364
   10MOL   O159 1797   7.389   1.277   3.936 -0.2612 -0.0792 -0.3017
   10MOL   H160 1798   7.656   1.230   4.024 -0.4435  0.6763  0.3417
   10MOL   H161 1799   7.774   1.356   4.046  0.0284 -0.4717 -2.2451
   10MOL   H162 1800   7.566   1.509   4.089 -0.7837 -0.7495  0.6729
   10MOL   H163 1801   7.302   1.239   3.937  0.3183 -1.6099 -2.4879
   10MOL   C164 1802   7.604   1.482   3.879  0.3479  0.7171  0.5541
   10MOL   C165 1803   7.593   1.634   3.862 -0.6173  0.1034 -0.1781
   10MOL   C166 1804   7.453   1.688   3.840  0.2777 -0.4188 -0.2208
   10MOL   O167 1805   7.354   1.619   3.812 -0.8661 -0.1801  0.0793
   10MOL   O168 1806   7.448   1.826   3.840 -0.2528  0.5739  0.8480
   10MOL   H169 1807   7.561   1.425   3.797 -0.2929 -0.1180  1.4602
   10MOL   H170 1808   7.711   1.461   3.868  0.0719  0.0863 -1.1216
   10MOL   H171 1809   7.637   1.697   3.940  0.0381 -0.1402 -0.3456
   10MOL   H172 1810   7.362   1.864   3.842 -0.1864  0.7077  1.3328
   10MOL   C173 1811   7.680   1.676   3.743 -0.7182 -0.3612 -0.1353
   10MOL   C174 1812   7.816   1.719   3.780 -0.0722  0.3149  0.4092
   10MOL   C175 1813   0.053   1.798   3.677 -0.5847  0.0442 -0.6803
   10MOL   O176 1814   0.163   1.768   3.632  1.1248  0.2246 -0.1162
   10MOL   O177 1815   7.827   1.900   3.631 -0.3289  0.1877 -0.1157
   10MOL   H178 1816   7.633   1.753   3.682  1.9802  0.4565 -1.2146
   10MOL   H179 1817   7.677   1.594   3.671 -1.1792  0.1023 -0.6414
   10MOL   H180 1818   7.814   1.778   3.872 -1.5935  0.8544  0.0358
   10MOL   H181 1819   7.849   1.924   3.542 -0.0426  1.0752  0.1876
   10MOL   H182 1820   0.030   1.633   3.791 -0.1726 -0.0045 -1.2928
   11MOL     C1 1821   5.421   0.671   5.105 -0.8155  0.2810  0.1436
   11MOL     C2 1822   5.471   0.819   5.101  0.2651 -0.4198  0.5421
   11MOL     C3 1823   5.364   0.912   5.029  0.2241 -0.4082 -1.2631
   11MOL     O4 1824   5.379   0.967   4.924 -0.3370 -0.3047 -0.3568
   11MOL     O5 1825   5.245   0.914   5.095  0.4161  0.5091 -0.2688
   11MOL     H6 1826   5.321   0.655   5.063 -0.4580  2.6872 -1.7786
   11MOL     H7 1827   5.491   0.607   5.052 -2.4690 -0.9493 -0.6234
   11MOL     H8 1828   5.466   0.854   5.204  1.9397  2.2573 -0.2192
   11MOL     H9 1829   5.167   0.958   5.064  0.0408  0.9020  1.1755
   11MOL    H10 1830   5.421   0.637   5.208  2.9282 -1.2574 -0.2942
   11MOL    C11 1831   5.609   0.831   5.041 -0.9298 -0.3132 -0.4991
   11MOL    C12 1832   5.685   0.960   5.021  0.1918 -0.3978  1.2500
   11MOL    C13 1833   5.792   0.949   4.912 -0.6862 -0.6925 -0.2376
   11MOL    O14 1834   5.773   0.970   4.790  0.0708  0.4048  0.3665
   11MOL    O15 1835   5.918   0.934   4.967 -0.0578 -0.3624 -0.4087
   11MOL    H16 1836   5.613   0.765   4.954  0.4659  0.1139 -0.7697
   11MOL    H17 1837   5.670   0.776   5.112 -0.0938  1.7356  0.3906
   11MOL    H18 1838   5.609   1.029   4.984  1.2078 -0.1729 -0.4551
   11MOL    H19 1839   5.981   0.956   4.900 -0.7187  3.2216  0.0535
   11MOL    C20 1840   5.743   1.002   5.159 -0.0392  0.1171  0.0223
   11MOL    C21 1841   5.773   1.155   5.161  0.1782  0.4235 -0.7506
   11MOL    C22 1842   5.903   1.176   5.247 -0.4642  0.2611 -0.0388
   11MOL    O23 1843   6.008   1.232   5.210  0.3587 -0.2966 -0.3441
   11MOL    O24 1844   5.894   1.118   5.367 -0.1644  0.3005 -0.3301
   11MOL    H25 1845   5.831   0.941   5.174  1.7159  1.7562 -3.1446
   11MOL    H26 1846   5.677   0.978   5.243 -0.5663  1.8226  0.1323
   11MOL    H27 1847   5.808   1.182   5.061  1.7300  2.2520  0.2704
   11MOL    H28 1848   5.812   1.075   5.383  0.8596 -2.4219 -2.1196
   11MOL    C29 1849   5.666   1.264   5.190 -0.6274  0.4021 -0.1822
   11MOL    C30 1850   5.600   1.271   5.329  0.4894 -0.0890 -0.0861
   11MOL    C31 1851   5.505   1.152   5.352 -0.2009 -0.3471 -0.0484
   11MOL    O32 1852   5.419   1.116   5.272 -0.1747  0.9567  0.0965
   11MOL    O33 1853   5.532   1.088   5.468  0.6746 -0.2328  0.0066
   11MOL    H34 1854   5.585   1.253   5.118 -0.1727  3.3008 -1.2186
   11MOL    H35 1855   5.706   1.362   5.163 -0.2102  0.4407  0.5628
   11MOL    H36 1856   5.670   1.276   5.413 -1.8943  0.3845  1.9604
   11MOL    H37 1857   5.472   1.018   5.490  0.1358  0.0038 -0.6818
   11MOL    C38 1858   5.518   1.407   5.326  0.1740 -0.7330  0.1525
   11MOL    C39 1859   5.601   1.533   5.346 -0.2779  0.4434  0.3498
   11MOL    C40 1860   5.684   1.521   5.477  0.2069 -0.2507 -0.3204
   11MOL    O41 1861   5.630   1.533   5.586  0.2627  0.7985 -0.5125
   11MOL    O42 1862   5.815   1.513   5.448 -0.0686 -0.1502 -0.1212
   11MOL    H43 1863   5.436   1.393   5.397  0.0081  1.6256  0.4608
   11MOL    H44 1864   5.470   1.411   5.228  0.6535  2.2462 -0.0192
   11MOL    H45 1865   5.670   1.536   5.261 -0.1194 -0.5205  0.4356
   11MOL    H46 1866   5.861   1.532   5.529  0.0954 -1.6181  0.1455
   11MOL    C47 1867   5.506   1.650   5.343  0.8190  0.5790  0.4383
   11MOL    C48 1868   5.557   1.787   5.289  0.5548 -0.2117  0.1259
   11MOL    C49 1869   5.703   1.832   5.316 -0.0418 -0.8263  0.1944
   11MOL    O50 1870   5.794   1.810   5.238  0.6411  0.6432 -0.0187
   11MOL    O51 1871   5.721   1.879   5.443 -0.0571  0.0737  0.0055
   11MOL    H52 1872   5.451   1.653   5.437  0.9841 -1.1216  0.6164
   11MOL    H53 1873   5.433   1.620   5.268  0.8049  3.8011 -0.9233
   11MOL    H54 1874   5.573   1.763   5.184  2.4208 -1.0698  0.5902
   11MOL    H55 1875   5.644   1.897   5.495  0.3629  1.0779  0.2864
   11MOL    C56 1876   5.450   1.899   5.308 -0.0908  0.0611  0.3572
   11MOL    C57 1877   5.340   1.902   5.205 -0.5414  0.0040 -0.0393
   11MOL    C58 1878   5.396   1.937   5.069 -0.7298 -0.2251 -0.8181
   11MOL    O59 1879   5.364   1.882   4.969  0.1406  0.2892 -0.8596
   11MOL    O60 1880   5.497   2.023   5.077 -0.0651 -0.0561 -0.0438
   11MOL    H61 1881   5.497   1.998   5.308 -0.6632  0.3364  0.8517
   11MOL    H62 1882   5.399   1.885   5.403 -0.3422 -1.2491  0.0338
   11MOL    H63 1883   5.317   1.796   5.203  4.2813 -1.1948  1.1759
   11MOL    H64 1884   5.552   2.029   5.000  0.3086 -1.2615  0.1222
   11MOL    C65 1885   5.221   2.000   5.242 -0.6739  0.9398  0.1273
   11MOL    C66 1886   5.105   1.920   5.315 -0.2513  0.4511 -0.6458
   11MOL    C67 1887   5.031   1.823   5.227  0.2721 -0.3026 -1.0597
   11MOL    O68 1888   5.025   1.836   5.108  0.5024 -0.2190  0.1332
   11MOL    O69 1889   4.987   1.716   5.296 -0.1631  0.6989  0.1330
   11MOL    H70 1890   5.178   2.045   5.153  2.1616 -0.1679 -1.8721
   11MOL    H71 1891   5.257   2.084   5.301 -0.3168  0.1954  0.9894
   11MOL    H72 1892   5.146   1.849   5.387 -1.7396 -1.0226 -1.2437
   11MOL    H73 1893   4.936   1.661   5.239  1.0911  0.2421 -0.5765
   11MOL    C74 1894   5.007   2.013   5.388  0.2000  0.2509 -0.1830
   11MOL    C75 1895   5.066   2.086   5.510  0.3505 -0.2351  0.5034
   11MOL    C76 1896   5.085   1.990   5.629 -0.8661  0.0925  0.1272
   11MOL    O77 1897   4.998   1.965   5.705  0.4979 -0.7560  0.0452
   11MOL    O78 1898   5.212   1.946   5.636 -0.0479  0.0043  0.6476
   11MOL    H79 1899   4.923   1.953   5.422 -0.2708  0.9369 -0.1128
   11MOL    H80 1900   4.967   2.077   5.309 -1.1455  0.9619  1.0324
   11MOL    H81 1901   5.164   2.118   5.473  0.9762  0.7759  2.9504
   11MOL    H82 1902   5.225   1.896   5.716  0.8616 -0.8470 -0.0217
   11MOL    C83 1903   4.982   2.211   5.546 -0.1938 -0.4862 -0.2112
   11MOL    C84 1904   5.056   2.305   5.632 -0.2124  0.2654  0.0507
   11MOL    C85 1905   4.967   2.381   5.732  0.2369 -0.1767  0.1779
   11MOL    O86 1906   4.850   2.409   5.710  0.5803  0.5615 -0.0084
   11MOL    O87 1907   5.031   2.413   5.844  0.4814  0.3271  0.3663
   11MOL    H88 1908   4.895   2.176   5.603 -1.2204 -1.1263 -2.1337
   11MOL    H89 1909   4.932   2.260   5.463 -2.6049 -0.7507  1.0561
   11MOL    H90 1910   5.108   2.233   5.696 -0.4339 -0.0823 -0.1585
   11MOL    H91 1911   4.953   2.446   5.886  0.3103 -0.7747  0.9392
   11MOL    C92 1912   5.155   2.391   5.553 -0.0642  0.2846  0.0802
   11MOL    C93 1913   5.303   2.399   5.610 -0.1374  0.4872  0.3082
   11MOL    C94 1914   5.363   2.533   5.584 -0.3818  0.1173  0.4375
   11MOL    O95 1915   5.448   2.548   5.490 -0.4740 -0.3695 -0.9479
   11MOL    O96 1916   5.321   2.635   5.662  0.7995  0.0264 -0.4563
   11MOL    H97 1917   5.115   2.493   5.547  1.2253  0.7253 -1.4632
   11MOL    H98 1918   5.156   2.365   5.447  1.0035  2.1775 -0.4006
   11MOL    H99 1919   5.304   2.391   5.719  3.3331  0.6298  0.3226
   11MOL   H100 1920   5.352   2.717   5.627  1.6761 -0.0103  0.1935
   11MOL   C101 1921   5.392   2.287   5.561  0.2054  0.6570  0.2620
   11MOL   C102 1922   5.526   2.280   5.638  0.8366  0.0817 -0.0922
   11MOL   C103 1923   5.635   2.222   5.552  0.0028 -0.3725 -0.3327
   11MOL   O104 1924   5.682   2.111   5.572 -0.0420  0.5209  0.3364
   11MOL   O105 1925   5.672   2.310   5.457  0.2984  0.4170 -0.1307
   11MOL   H106 1926   5.408   2.294   5.453  0.0076 -0.2627  0.1693
   11MOL   H107 1927   5.340   2.192   5.569  1.2409 -0.0148 -0.8476
   11MOL   H108 1928   5.549   2.381   5.669  0.2978  0.1050  0.2270
   11MOL   H109 1929   5.727   2.271   5.390 -0.7563  3.1993 -2.7091
   11MOL   C110 1930   5.490   2.200   5.769  0.0322 -0.4466 -0.0396
   11MOL   C111 1931   5.557   2.249   5.901  0.3383  0.7979  0.1710
   11MOL   C112 1932   5.495   2.379   5.949 -0.4740 -0.0470 -0.3457
   11MOL   O113 1933   5.551   2.486   5.953 -0.4407 -0.4118 -0.1058
   11MOL   O114 1934   5.366   2.362   5.993 -0.3510  0.3102  0.1796
   11MOL   H115 1935   5.511   2.093   5.762  2.1032 -0.1463  1.3093
   11MOL   H116 1936   5.382   2.211   5.785 -0.0180 -0.1357 -0.5731
   11MOL   H117 1937   5.524   2.178   5.977 -0.2655  0.1632 -0.6647
   11MOL   H118 1938   5.333   2.448   6.016 -1.8064 -0.1400 -0.1831
   11MOL   C119 1939   5.710   2.233   5.905  1.3304 -0.2806  0.0213
   11MOL   C120 1940   5.771   2.209   6.047  0.0968  0.2548 -0.1627
   11MOL   C121 1941   5.790   2.340   6.122 -0.0079  0.1609 -0.1014
   11MOL   O122 1942   5.869   2.424   6.080  0.7144  0.1325  0.2537
   11MOL   O123 1943   5.705   2.359   6.228 -0.4360  0.0415 -0.0526
   11MOL   H124 1944   5.757   2.322   5.864  1.9155 -0.3812  0.4490
   11MOL   H125 1945   5.747   2.156   5.836  2.4906 -0.3016  0.6390
   11MOL   H126 1946   5.706   2.141   6.102  1.8320 -0.7187  0.7307
   11MOL   H127 1947   5.725   2.437   6.279  1.0554 -0.0022 -0.5284
   11MOL   C128 1948   5.911   2.138   6.028 -0.5145 -0.2968  0.5587
   11MOL   C129 1949   5.998   2.124   6.161  0.2851 -0.8365  0.5959
   11MOL   C130 1950   6.139   2.064   6.129  0.3256  0.2277  0.6133
   11MOL   O131 1951   6.246   2.127   6.140  0.9614 -0.5506  0.2630
   11MOL   O132 1952   6.137   1.937   6.083  0.2656 -0.4105  0.0784
   11MOL   H133 1953   5.972   2.197   5.959 -2.2134  2.0134  0.9790
   11MOL   H134 1954   5.893   2.043   5.978  1.4679 -0.1294 -0.5324
   11MOL   H135 1955   6.019   2.228   6.185  0.7620 -1.3394  2.3893
   11MOL   H136 1956   6.222   1.907   6.053  0.6607  0.0762  0.7076
   11MOL   C137 1957   5.928   2.056   6.284  0.1750 -0.3366 -0.2633
   11MOL   C138 1958   5.997   2.075   6.423  1.0030 -0.0612 -0.7394
   11MOL   C139 1959   5.938   1.967   6.524  0.3498 -0.0509 -0.3221
   11MOL   O140 1960   5.820   1.938   6.541 -0.3556  0.4560  0.0505
   11MOL   O141 1961   6.028   1.927   6.610  0.7082 -0.3714 -0.2913
   11MOL   H142 1962   5.922   1.949   6.266  2.2572 -0.0958 -2.6029
   11MOL   H143 1963   5.827   2.098   6.280  0.5847  0.6895 -0.1276
   11MOL   H144 1964   6.106   2.080   6.414  1.1744  0.5525  1.4315
   11MOL   H145 1965   5.984   1.877   6.676  0.5939 -0.6511 -0.5766
   11MOL   C146 1966   5.966   2.219   6.472  0.0729  0.2772 -0.0384
   11MOL   C147 1967   6.034   2.272   6.605  0.0430 -0.2545  0.3728
   11MOL   C148 1968   5.929   2.293   6.719  0.3463 -0.4312  0.3807
   11MOL   O149 1969   5.926   2.219   6.816 -0.1201  0.2688 -0.4290
   11MOL   O150 1970   5.843   2.392   6.696  0.2100 -0.1277 -0.2799
   11MOL   H151 1971   5.861   2.221   6.500  0.5298 -0.8874  1.8523
   11MOL   H152 1972   5.976   2.291   6.391  0.9991 -0.0569 -0.2324
   11MOL   H153 1973   6.100   2.190   6.633  1.0090 -0.6608 -2.8899
   11MOL   H154 1974   5.781   2.397   6.766  0.9646 -0.5510  0.4284
   11MOL   C155 1975   6.115   2.398   6.590  0.1382  0.5539 -0.1857
   11MOL   C156 1976   6.265   2.401   6.559 -0.8141 -0.2765  0.4786
   11MOL   C157 1977   6.296   2.355   6.419 -0.1298  0.0618 -0.3690
   11MOL   O158 1978   6.292   2.427   6.318  0.4354 -0.1711  0.0346
   11MOL   O159 1979   6.315   2.224   6.408 -0.0719 -0.2692  0.4221
   11MOL   H160 1980   6.101   2.460   6.679 -1.0487  1.7176 -1.1624
   11MOL   H161 1981   6.078   2.462   6.510 -0.0885 -0.0167 -0.5436
   11MOL   H162 1982   6.296   2.506   6.561 -0.0501 -0.5067  1.8523
   11MOL   H163 1983   6.302   2.199   6.318  1.0627  0.8279 -0.0771
   11MOL   C164 1984   6.357   2.325   6.667  0.1872  0.2029 -0.1252
   11MOL   C165 1985   6.505   2.362   6.666  0.1032 -0.3247 -0.2610
   11MOL   C166 1986   6.579   2.247   6.733 -0.2612 -0.5432  0.0776
   11MOL   O167 1987   6.637   2.249   6.849  0.1962  0.0042 -0.2934
   11MOL   O168 1988   6.582   2.137   6.658  0.4009  0.8056 -0.2828
   11MOL   H169 1989   6.346   2.218   6.650  1.4258  0.2804 -1.4748
   11MOL   H170 1990   6.312   2.338   6.766 -0.8066  0.5152 -0.6153
   11MOL   H171 1991   6.538   2.364   6.562 -1.2690 -0.4566 -0.7066
   11MOL   H172 1992   6.630   2.061   6.688 -0.0923  1.2119  1.6249
   11MOL   C173 1993   6.537   2.506   6.719 -0.4503  0.6612 -0.0859
   11MOL   C174 1994   6.470   2.539   6.858 -0.6486  0.1254 -0.2435
   11MOL   C175 1995   6.496   2.687   6.894 -0.7351 -0.1833 -0.3962
   11MOL   O176 1996   6.419   2.778   6.864  0.0374 -0.5116 -0.0156
   11MOL   O177 1997   6.613   2.707   6.957  0.2607 -0.4407  0.0590
   11MOL   H178 1998   6.505   2.586   6.652  1.1190  1.8062  0.5336
   11MOL   H179 1999   6.642   2.531   6.728 -0.3210 -0.4961  1.8749
   11MOL   H180 2000   6.363   2.515   6.854 -0.6491  0.2976 -1.6290
   11MOL   H181 2001   6.664   2.628   6.960  1.5850  0.3576 -1.0128
   11MOL   H182 2002   6.510   2.477   6.937 -0.9114  1.6893  1.1461
   12MOL     C1 2003   1.771   5.265   6.319  0.1172  0.9686 -0.4461
   12MOL     C2 2004   1.896   5.191   6.252  0.2844  0.1368  0.1226
   12MOL     C3 2005   1.954   5.279   6.138  0.0556  0.6371  0.2057
   12MOL     O4 2006   1.970   5.236   6.025  0.5131  0.4878 -0.8425
   12MOL     O5 2007   1.970   5.409   6.169  0.0831 -0.6146  0.0832
   12MOL     H6 2008   1.687   5.267   6.248 -1.8466  2.0609  1.8381
   12MOL     H7 2009   1.732   5.212   6.405 -0.2140 -1.5921 -2.1210
   12MOL     H8 2010   1.976   5.178   6.325 -0.4024  0.0027  0.8594
   12MOL     H9 2011   2.009   5.460   6.100  0.5566  0.2921  0.9976
   12MOL    H10 2012   1.788   5.365   6.359  3.2661  1.3178 -2.4699
   12MOL    C11 2013   1.844   5.053   6.212 -0.2638 -0.3043 -0.1110
   12MOL    C12 2014   1.943   4.946   6.159 -0.3494  0.3028  0.3314
   12MOL    C13 2015   1.864   4.834   6.103  0.2150  0.6466 -0.4395
   12MOL    O14 2016   1.856   4.728   6.163  0.5427  0.2712  0.0716
   12MOL    O15 2017   1.801   4.863   5.987  0.1927  1.0300  0.6947
   12MOL    H16 2018   1.779   5.078   6.128  1.5425  0.5445 -1.2809
   12MOL    H17 2019   1.788   5.015   6.297  0.0901  1.4410  0.9389
   12MOL    H18 2020   1.999   5.005   6.086 -1.9209 -0.1666 -1.2788
   12MOL    H19 2021   1.744   4.790   5.967  0.3488  1.1507 -0.2511
   12MOL    C20 2022   2.046   4.906   6.268  0.2279 -0.0153  0.3307
   12MOL    C21 2023   2.181   4.858   6.209 -0.2756  0.2121  0.3011
   12MOL    C22 2024   2.185   4.705   6.178  0.4784 -0.1282 -0.1783
   12MOL    O23 2025   2.192   4.665   6.060 -0.4175  0.1102 -0.1241
   12MOL    O24 2026   2.182   4.634   6.289  0.2431  0.2178 -0.2112
   12MOL    H25 2027   2.007   4.829   6.335 -3.6017  0.1436 -1.5515
   12MOL    H26 2028   2.061   4.983   6.343 -2.0132 -0.5056  1.3271
   12MOL    H27 2029   2.211   4.920   6.125  2.9804 -0.7925  0.6489
   12MOL    H28 2030   2.166   4.546   6.258 -4.3012  0.8812 -0.0741
   12MOL    C29 2031   2.293   4.892   6.310  0.0684  0.5134  0.1285
   12MOL    C30 2032   2.315   5.043   6.333  0.3410  0.2985 -0.5494
   12MOL    C31 2033   2.442   5.094   6.253  0.2103  0.0598  0.3667
   12MOL    O32 2034   2.443   5.178   6.165  0.0001  0.2118  0.2522
   12MOL    O33 2035   2.553   5.038   6.315  0.3543  0.4606 -0.3017
   12MOL    H34 2036   2.389   4.858   6.270  0.1102  1.6896 -0.7817
   12MOL    H35 2037   2.276   4.838   6.403  1.5064 -0.1156  0.0429
   12MOL    H36 2038   2.241   5.105   6.283  0.3996 -1.5657 -3.1067
   12MOL    H37 2039   2.626   5.070   6.265 -0.4074  4.3856  0.9068
   12MOL    C38 2040   2.308   5.089   6.479 -0.3085 -0.0976  0.4632
   12MOL    C39 2041   2.320   5.243   6.524  0.0458  1.0383 -0.2716
   12MOL    C40 2042   2.311   5.256   6.677 -0.3108  0.1832  0.3646
   12MOL    O41 2043   2.252   5.178   6.745  0.2543  0.5270 -0.2618
   12MOL    O42 2044   2.393   5.355   6.721 -0.3723 -0.1024 -0.4279
   12MOL    H43 2045   2.376   5.041   6.549  2.1333  1.8233 -0.5029
   12MOL    H44 2046   2.208   5.058   6.507 -0.4596  1.5197  1.7870
   12MOL    H45 2047   2.421   5.274   6.498  0.4717 -0.3263 -0.2916
   12MOL    H46 2048   2.393   5.363   6.815  0.6901 -0.8826 -0.3645
   12MOL    C47 2049   2.222   5.327   6.441  0.1804  0.1989  0.0785
   12MOL    C48 2050   2.226   5.488   6.444  0.0869  0.7381  0.5377
   12MOL    C49 2051   2.373   5.538   6.434  0.5184  0.3345 -0.2226
   12MOL    O50 2052   2.433   5.589   6.532  1.0117 -0.0067  0.0405
   12MOL    O51 2053   2.437   5.504   6.318  0.3089 -0.1355  0.0674
   12MOL    H52 2054   2.119   5.293   6.457 -0.2814  1.1170 -0.8938
   12MOL    H53 2055   2.254   5.308   6.339 -0.1158  0.1326 -0.0039
   12MOL    H54 2056   2.193   5.537   6.352  0.3851 -0.2492 -0.1047
   12MOL    H55 2057   2.523   5.543   6.325 -0.4825  1.4626  1.0799
   12MOL    C56 2058   2.157   5.554   6.568 -0.7011 -0.4014 -0.8063
   12MOL    C57 2059   2.000   5.553   6.564  0.3431 -0.0622  0.1486
   12MOL    C58 2060   1.947   5.648   6.452 -0.2733  0.9362  0.3756
   12MOL    O59 2061   2.012   5.749   6.415  0.5430  0.2844 -0.2074
   12MOL    O60 2062   1.822   5.618   6.409 -0.6210 -0.3666  0.1280
   12MOL    H61 2063   2.192   5.657   6.564 -2.4852  0.2954  0.4576
   12MOL    H62 2064   2.183   5.510   6.665 -2.8142  0.8604  0.3719
   12MOL    H63 2065   1.961   5.453   6.545  3.6172 -1.1470 -1.3390
   12MOL    H64 2066   1.807   5.682   6.341  1.4387  0.1599  0.1473
   12MOL    C65 2067   1.951   5.593   6.701 -0.6292  0.1003  0.0749
   12MOL    C66 2068   1.928   5.469   6.793 -0.8723 -1.2443 -0.1722
   12MOL    C67 2069   1.802   5.399   6.744 -0.7600 -0.2756  0.5720
   12MOL    O68 2070   1.810   5.305   6.664  0.0313  0.2306  0.3257
   12MOL    O69 2071   1.693   5.453   6.800  0.2035  0.5153 -0.1559
   12MOL    H70 2072   1.852   5.639   6.695 -1.8545 -2.3592  0.2938
   12MOL    H71 2073   2.023   5.666   6.736  0.1087 -0.3562 -0.4664
   12MOL    H72 2074   2.014   5.403   6.784  1.7145  2.2152 -1.6589
   12MOL    H73 2075   1.614   5.410   6.772 -0.4524  0.6532  1.4105
   12MOL    C74 2076   1.926   5.512   6.936 -0.7826 -0.6658 -0.7408
   12MOL    C75 2077   1.971   5.399   7.030  0.6344  0.1390  0.0847
   12MOL    C76 2078   1.859   5.297   7.053 -0.0541 -0.4114  0.4210
   12MOL    O77 2079   1.738   5.321   7.071  0.0447 -0.1694 -0.3824
   12MOL    O78 2080   1.904   5.165   7.073 -0.2881 -0.2042  0.1641
   12MOL    H79 2081   1.833   5.551   6.978 -0.2238 -2.7776  2.6241
   12MOL    H80 2082   1.993   5.597   6.942 -1.3942 -0.2657  0.4903
   12MOL    H81 2083   2.058   5.350   6.987  0.8520 -1.0707  1.8456
   12MOL    H82 2084   1.836   5.105   7.100  0.6952 -0.2549  2.6796
   12MOL    C83 2085   1.995   5.438   7.175 -0.4505 -0.2683 -0.3412
   12MOL    C84 2086   2.090   5.345   7.255  0.1743  0.4105  0.2975
   12MOL    C85 2087   2.035   5.310   7.396  0.4411 -0.1359 -0.0529
   12MOL    O86 2088   1.999   5.197   7.431 -0.2288  0.0789 -0.2699
   12MOL    O87 2089   2.035   5.421   7.471  0.5092 -0.1478 -0.3552
   12MOL    H88 2090   1.903   5.465   7.227 -2.0959  1.2613 -3.8773
   12MOL    H89 2091   2.051   5.532   7.171  2.7986 -2.1181  0.2052
   12MOL    H90 2092   2.092   5.245   7.212 -0.6158  0.0307  1.1464
   12MOL    H91 2093   2.013   5.389   7.558 -1.2505 -1.2402 -1.1701
   12MOL    C92 2094   2.237   5.396   7.267  0.6314 -0.1062 -0.0136
   12MOL    C93 2095   2.312   5.437   7.139  0.4281  0.1730  0.5980
   12MOL    C94 2096   2.345   5.308   7.062 -0.4386 -0.1516  0.1787
   12MOL    O95 2097   2.290   5.198   7.087 -0.1878  0.3939  0.2240
   12MOL    O96 2098   2.444   5.325   6.969  0.0082  0.0893 -0.0894
   12MOL    H97 2099   2.290   5.319   7.323 -1.2611 -0.7857  0.9019
   12MOL    H98 2100   2.237   5.486   7.329 -0.3018 -0.0734 -0.0499
   12MOL    H99 2101   2.254   5.492   7.064 -0.1125 -1.9887 -0.5866
   12MOL   H100 2102   2.481   5.242   6.944  1.6000  0.9957 -0.8602
   12MOL   C101 2103   2.431   5.517   7.179 -0.8538  0.1978  0.0150
   12MOL   C102 2104   2.468   5.633   7.083  0.3826  0.5605 -0.5075
   12MOL   C103 2105   2.599   5.703   7.115  0.3964  0.1033 -0.8358
   12MOL   O104 2106   2.675   5.664   7.202  0.5267 -0.4488  0.3276
   12MOL   O105 2107   2.611   5.814   7.039 -0.2134  0.7146 -0.1313
   12MOL   H106 2108   2.509   5.441   7.183 -0.0393  1.0270 -0.0610
   12MOL   H107 2109   2.436   5.565   7.277 -2.0608 -0.1519  0.2609
   12MOL   H108 2110   2.491   5.598   6.983  1.9422  0.5773 -0.1725
   12MOL   H109 2111   2.680   5.863   7.080 -1.9102  2.4818  0.6841
   12MOL   C110 2112   2.345   5.734   7.075 -0.3359 -0.0054 -0.0290
   12MOL   C111 2113   2.330   5.816   7.207  0.1219  0.5057  0.3909
   12MOL   C112 2114   2.202   5.780   7.278  1.0106 -0.3966 -0.0447
   12MOL   O113 2115   2.209   5.729   7.391  0.4514 -0.1262 -0.2865
   12MOL   O114 2116   2.090   5.815   7.208 -0.0338 -0.0783 -0.0973
   12MOL   H115 2117   2.251   5.693   7.038 -1.3404 -0.7732  3.2611
   12MOL   H116 2118   2.362   5.800   6.990  0.7653 -2.4694 -1.8126
   12MOL   H117 2119   2.401   5.781   7.281  0.6425  0.0435 -0.3238
   12MOL   H118 2120   2.019   5.787   7.264  1.7265  0.8990  2.7361
   12MOL   C119 2121   2.367   5.967   7.198  0.3237  0.3913 -0.2096
   12MOL   C120 2122   2.407   6.040   7.327  0.5166  0.3100  0.2560
   12MOL   C121 2123   2.297   6.029   7.439 -0.3085  0.7757 -0.5648
   12MOL   O122 2124   2.191   6.083   7.430 -0.1832  0.0228 -0.1133
   12MOL   O123 2125   2.335   5.956   7.543  0.1960  0.7968  0.2669
   12MOL   H124 2126   2.286   6.019   7.146  0.0799  0.7972  0.5720
   12MOL   H125 2127   2.443   5.975   7.120 -0.8193  2.2695 -1.1764
   12MOL   H126 2128   2.493   5.989   7.370  0.6986  1.7110  1.6028
   12MOL   H127 2129   2.257   5.939   7.594 -0.2748  1.6889 -0.1495
   12MOL   C128 2130   2.449   6.183   7.300 -0.1064  0.8414  0.2398
   12MOL   C129 2131   2.516   6.258   7.422  0.4267  0.6669  0.1563
   12MOL   C130 2132   2.514   6.413   7.409 -0.4692 -0.4691 -0.3774
   12MOL   O131 2133   2.484   6.475   7.305 -0.3348  0.0030  0.4170
   12MOL   O132 2134   2.544   6.471   7.529  0.0131  0.4463  0.4251
   12MOL   H133 2135   2.356   6.232   7.271  1.4503  2.6281 -1.9111
   12MOL   H134 2136   2.505   6.196   7.207  2.1907  0.5021  1.5298
   12MOL   H135 2137   2.452   6.239   7.508  2.0871 -1.4931  0.9253
   12MOL   H136 2138   2.516   6.560   7.516  0.5024  0.4794 -0.4342
   12MOL   C137 2139   2.660   6.212   7.459 -0.1573  0.1558  0.4657
   12MOL   C138 2140   2.673   6.182   7.610 -0.0280 -0.2502  0.4290
   12MOL   C139 2141   2.792   6.264   7.659 -0.2962 -0.3946 -0.0582
   12MOL   O140 2142   2.893   6.223   7.712 -0.5564  0.2245 -0.3059
   12MOL   O141 2143   2.755   6.397   7.664 -0.1603  0.1515  0.2189
   12MOL   H142 2144   2.733   6.279   7.414 -2.3683  1.7430 -0.8738
   12MOL   H143 2145   2.675   6.113   7.418  1.7878  0.6973 -0.1459
   12MOL   H144 2146   2.585   6.202   7.672  1.3665 -0.2922  2.4576
   12MOL   H145 2147   2.665   6.404   7.636 -0.0729 -1.2371 -0.4610
   12MOL   C146 2148   2.692   6.027   7.645  0.1371  0.2444 -0.2479
   12MOL   C147 2149   2.620   5.978   7.772  0.0244 -0.2914 -0.3319
   12MOL   C148 2150   2.665   6.058   0.040 -0.7684  0.2720 -0.4769
   12MOL   O149 2151   2.595   6.130   0.113 -0.1584 -0.2796 -0.0955
   12MOL   O150 2152   2.794   6.038   0.082  0.7721  0.2725 -0.2940
   12MOL   H151 2153   2.798   6.002   7.651  0.0751  0.3864  1.9577
   12MOL   H152 2154   2.651   5.968   7.563 -1.2492  0.5982  0.1844
   12MOL   H153 2155   2.516   6.007   7.758  0.0073 -1.8314 -3.7768
   12MOL   H154 2156   2.800   6.099   0.155  0.0177 -0.5845  0.4962
   12MOL   C155 2157   2.629   5.825   7.791  0.1291  0.0838 -0.2903
   12MOL   C156 2158   2.506   5.763   0.011 -0.0220 -0.4482  0.1846
   12MOL   C157 2159   2.495   5.816   0.155  0.9073 -0.3259  0.1488
   12MOL   O158 2160   2.575   5.788   0.238  0.5137 -0.5012 -0.4655
   12MOL   O159 2161   2.382   5.882   0.175  0.3590 -0.6118  0.4160
   12MOL   H160 2162   2.724   5.794   7.832 -0.9629 -3.0101  0.0193
   12MOL   H161 2163   2.626   5.768   7.698  0.1244  0.3600 -0.4601
   12MOL   H162 2164   2.423   5.804   7.806  1.9537  2.7703 -0.4795
   12MOL   H163 2165   2.372   5.899   0.268  0.5926  1.2151  0.1271
   12MOL   C164 2166   2.499   5.610   0.008 -0.2848  1.0045  0.1838
   12MOL   C165 2167   2.352   5.545   0.005  0.4841  0.0517  0.1866
   12MOL   C166 2168   2.273   5.569   7.725  0.2033  0.2267 -0.3874
   12MOL   O167 2169   2.146   5.569   7.727 -0.1911 -0.2904 -0.5162
   12MOL   O168 2170   2.346   5.598   7.620 -0.1573  0.2122 -0.1086
   12MOL   H169 2171   2.539   5.566   0.100  0.2730 -0.3970 -0.7235
   12MOL   H170 2172   2.558   5.561   7.783  1.7157  2.2530  0.8803
   12MOL   H171 2173   2.370   5.438   0.006 -1.8631 -0.3674  1.4993
   12MOL   H172 2174   2.298   5.631   7.545  1.4272  0.2955 -1.0957
   12MOL   C173 2175   2.264   5.587   0.128 -0.0763 -0.1219  0.5475
   12MOL   C174 2176   2.144   5.483   0.157  0.0668 -0.5061 -1.0334
   12MOL   C175 2177   2.081   5.503   0.289 -0.1783 -0.2904 -0.7259
   12MOL   O176 2178   2.099   5.602   0.363 -0.0063  1.3287 -0.5618
   12MOL   O177 2179   1.992   5.402   0.320  0.8307 -0.5481  0.6953
   12MOL   H178 2180   2.225   5.686   0.106 -1.0868 -0.9887 -1.7735
   12MOL   H179 2181   2.330   5.585   0.214 -1.8784 -0.9976  1.9544
   12MOL   H180 2182   2.064   5.470   0.084 -0.6520 -1.4093 -0.1002
   12MOL   H181 2183   1.953   5.420   0.404 -0.2433  0.5045 -0.0066
   12MOL   H182 2184   2.192   5.386   0.164 -0.3861 -0.7085 -0.6936
   13MOL     C1 2185   2.575   6.942   7.051  0.6359  0.1514  0.0593
   13MOL     C2 2186   2.489   6.839   6.979  0.2364 -0.3140  0.1945
   13MOL     C3 2187   2.473   6.713   7.063 -0.3773  0.3139 -0.1982
   13MOL     O4 2188   2.505   6.602   7.024 -0.5756  0.0647 -0.3057
   13MOL     O5 2189   2.420   6.730   7.190  0.5685  0.8993  0.7134
   13MOL     H6 2190   2.582   7.041   7.006  0.7173  0.0045 -0.2461
   13MOL     H7 2191   2.533   6.955   7.151  0.1566 -0.9392  0.0092
   13MOL     H8 2192   2.387   6.877   6.984 -0.8447 -2.8401 -1.6245
   13MOL     H9 2193   2.427   6.644   7.228 -1.4878 -0.0759 -0.9812
   13MOL    H10 2194   2.680   6.913   7.062  0.8908  0.1361 -2.2190
   13MOL    C11 2195   2.509   6.809   6.831 -0.1777  0.0767  0.2173
   13MOL    C12 2196   2.471   6.924   6.734  0.2361 -0.3878  0.5247
   13MOL    C13 2197   2.325   6.932   6.676  0.0705 -0.3280  0.2100
   13MOL    O14 2198   2.300   6.894   6.567  0.1235  0.2989  0.0483
   13MOL    O15 2199   2.239   6.999   6.761 -0.0355 -0.1533 -0.1962
   13MOL    H16 2200   2.474   6.713   6.793  1.5967 -0.1054 -1.0356
   13MOL    H17 2201   2.617   6.794   6.829 -0.4701 -2.5436  1.8496
   13MOL    H18 2202   2.485   7.024   6.775 -0.2497  0.1653 -0.6390
   13MOL    H19 2203   2.146   7.011   6.746 -0.4091 -2.6906 -0.0814
   13MOL    C20 2204   2.561   6.914   6.614 -0.1304  0.6398  0.6727
   13MOL    C21 2205   2.702   6.967   6.648  0.7132  0.0820 -0.0320
   13MOL    C22 2206   2.723   7.108   6.577 -0.2613  0.2731  1.0883
   13MOL    O23 2207   2.766   7.115   6.461  0.4182 -0.6258 -0.4392
   13MOL    O24 2208   2.680   7.209   6.649  0.3203 -0.4478 -0.0497
   13MOL    H25 2209   2.527   6.976   6.532  1.5259 -0.7561 -1.1028
   13MOL    H26 2210   2.564   6.810   6.583 -2.2945  0.8896 -0.4493
   13MOL    H27 2211   2.718   6.984   6.754  0.4716  0.8252 -0.1130
   13MOL    H28 2212   2.693   7.284   6.594 -0.5065  1.5714  2.4340
   13MOL    C29 2213   2.813   6.865   6.608 -1.0899  0.7343 -0.2747
   13MOL    C30 2214   2.956   6.912   6.639 -0.0240  0.0703 -0.6182
   13MOL    C31 2215   3.053   6.831   6.551 -0.3675  0.2457 -0.8112
   13MOL    O32 2216   3.031   6.805   6.433  0.2462 -0.3919  0.0356
   13MOL    O33 2217   3.163   6.796   6.628  0.1148 -0.6326 -0.4689
   13MOL    H34 2218   2.802   6.844   6.502 -2.4743 -0.1790  0.0313
   13MOL    H35 2219   2.795   6.769   6.656  1.7651  0.4684  0.3522
   13MOL    H36 2220   2.959   7.004   6.580 -2.0164  0.8296  0.4308
   13MOL    H37 2221   3.228   6.746   6.580  2.2614  0.8564  0.7664
   13MOL    C38 2222   2.998   6.929   6.791 -0.0649  0.6926  0.2538
   13MOL    C39 2223   3.110   7.033   6.828 -0.1886 -0.2743  0.3803
   13MOL    C40 2224   3.250   6.972   6.849 -0.6756  0.4461  0.4027
   13MOL    O41 2225   3.350   7.003   6.784  0.1440  0.2121  0.0267
   13MOL    O42 2226   3.245   6.897   6.960 -0.2297  0.4046  0.3055
   13MOL    H43 2227   3.032   6.832   6.826  0.8870  0.4841 -1.2078
   13MOL    H44 2228   2.906   6.949   6.847 -0.0712  2.3738 -0.3200
   13MOL    H45 2229   3.136   7.098   6.744 -0.4254  0.2586  0.7113
   13MOL    H46 2230   3.330   6.875   6.995 -0.5500 -1.6106 -0.1379
   13MOL    C47 2231   3.080   7.136   6.943  0.3578 -0.3087  0.2425
   13MOL    C48 2232   2.988   7.266   6.922  0.3037  0.4365  0.6561
   13MOL    C49 2233   3.023   7.346   6.802 -0.9717 -0.5355  0.1156
   13MOL    O50 2234   3.142   7.354   6.769 -0.3785  0.4183 -0.3525
   13MOL    O51 2235   2.929   7.409   6.729  0.3703  0.4308  0.9104
   13MOL    H52 2236   3.174   7.165   6.991 -0.2371  1.0408  0.6094
   13MOL    H53 2237   3.019   7.074   7.009 -1.7805  1.5468  0.0945
   13MOL    H54 2238   2.888   7.228   6.901  1.2801 -2.1147  0.3742
   13MOL    H55 2239   2.988   7.440   6.663  0.2874  0.3802  0.8109
   13MOL    C56 2240   2.981   7.363   7.044 -0.0335  0.3864 -0.5728
   13MOL    C57 2241   2.858   7.457   7.043  0.6735 -0.5569  0.2228
   13MOL    C58 2242   2.876   7.575   7.150 -0.1528 -0.5572  0.2741
   13MOL    O59 2243   2.922   7.553   7.265  0.0785 -0.3831  0.5006
   13MOL    O60 2244   2.832   7.695   7.105  0.1650 -0.1553 -0.4882
   13MOL    H61 2245   3.079   7.408   7.054 -0.3698  0.8493  0.8027
   13MOL    H62 2246   2.968   7.298   7.131 -0.7429 -0.0810 -1.0210
   13MOL    H63 2247   2.855   7.504   6.944  1.7649  0.0233  0.4559
   13MOL    H64 2248   2.845   7.770   7.160  0.7267  0.4843 -1.4787
   13MOL    C65 2249   2.730   7.375   7.060  0.0394 -0.4456  0.2986
   13MOL    C66 2250   2.603   7.430   6.989  0.3259 -0.5436 -0.2929
   13MOL    C67 2251   2.523   7.525   7.088 -0.2636 -0.1833  0.0232
   13MOL    O68 2252   2.478   7.634   7.042 -0.5914 -0.0349 -0.2818
   13MOL    O69 2253   2.506   7.479   7.215  0.0947 -0.9530 -0.7085
   13MOL    H70 2254   2.722   7.376   7.169  1.4339 -3.1408  0.4930
   13MOL    H71 2255   2.736   7.266   7.054  0.8889 -0.4020  0.3173
   13MOL    H72 2256   2.632   7.495   6.906 -0.4084 -1.1574 -1.0455
   13MOL    H73 2257   2.473   7.554   7.262 -1.3364  0.2296 -3.4842
   13MOL    C74 2258   2.524   7.312   6.933 -0.3461 -0.2871  0.1807
   13MOL    C75 2259   2.393   7.337   6.850 -0.6934 -0.1143 -0.3216
   13MOL    C76 2260   2.411   7.415   6.721 -0.3080  0.3413  0.2976
   13MOL    O77 2261   2.440   7.533   6.711  0.2859 -0.4079  0.3310
   13MOL    O78 2262   2.392   7.343   6.614  0.7221 -0.4456 -0.3697
   13MOL    H79 2263   2.503   7.245   7.016 -0.6803  0.4724  0.7149
   13MOL    H80 2264   2.587   7.260   6.861 -1.0408 -0.2379 -0.4708
   13MOL    H81 2265   2.374   7.233   6.823  3.0201 -0.5326 -1.5834
   13MOL    H82 2266   2.412   7.392   6.536  0.5869  0.8830  0.4119
   13MOL    C83 2267   2.269   7.390   6.928  0.0683  0.1031  0.0472
   13MOL    C84 2268   2.233   7.330   7.069  0.0231 -0.3921 -0.4941
   13MOL    C85 2269   2.236   7.177   7.076 -0.1445  0.1587  0.8071
   13MOL    O86 2270   2.329   7.119   7.131 -0.5863 -0.0874  0.4136
   13MOL    O87 2271   2.133   7.115   7.020  0.0233  0.6160  0.3624
   13MOL    H88 2272   2.185   7.375   6.859  0.0646 -0.3327  0.1442
   13MOL    H89 2273   2.280   7.498   6.926 -0.7025  0.1721 -1.2362
   13MOL    H90 2274   2.311   7.368   7.135 -3.2923  3.7374  1.2447
   13MOL    H91 2275   2.141   7.023   7.042  0.0137  1.1538  2.7200
   13MOL    C92 2276   2.114   7.408   7.132  0.0565  0.4004  0.5784
   13MOL    C93 2277   1.982   7.412   7.062 -0.0304 -0.2855  0.3235
   13MOL    C94 2278   1.968   7.531   6.973 -0.2133 -0.2385  0.3150
   13MOL    O95 2279   2.058   7.607   6.941  0.1324  0.3436  0.8652
   13MOL    O96 2280   1.847   7.540   6.920  0.3756 -0.2959 -0.8506
   13MOL    H97 2281   2.146   7.509   7.156 -0.2825  1.0831 -1.7848
   13MOL    H98 2282   2.110   7.366   7.233  2.2821  0.9853  0.9275
   13MOL    H99 2283   1.967   7.323   7.002 -1.4801  0.2837 -0.1907
   13MOL   H100 2284   1.833   7.620   6.872 -0.9935 -0.7349 -1.2005
   13MOL   C101 2285   1.863   7.414   7.164  0.9676  0.4018 -0.0594
   13MOL   C102 2286   1.731   7.341   7.114 -0.2658  0.0291  0.2791
   13MOL   C103 2287   1.607   7.430   7.106  0.6247  0.3034 -0.2513
   13MOL   O104 2288   1.583   7.514   7.198 -0.4532 -0.1569  0.0605
   13MOL   O105 2289   1.524   7.407   7.000 -0.7516 -0.5001  0.1105
   13MOL   H106 2290   1.847   7.518   7.190  0.7772  0.5044 -0.5760
   13MOL   H107 2291   1.892   7.355   7.251  1.3915  2.2891  1.1010
   13MOL   H108 2292   1.748   7.317   7.009  1.9090  1.8532  0.1931
   13MOL   H109 2293   1.445   7.457   7.014  0.0735  0.8877 -0.0241
   13MOL   C110 2294   1.699   7.204   7.189  0.0565 -0.1331  0.1923
   13MOL   C111 2295   1.793   7.088   7.149  0.1829 -0.0052  0.4121
   13MOL   C112 2296   1.790   7.064   6.999 -0.3631  0.3098 -0.6187
   13MOL   O113 2297   1.854   7.131   6.927 -0.6449  0.6342  0.0192
   13MOL   O114 2298   1.716   6.957   6.964  0.8054  0.1979  0.1652
   13MOL   H115 2299   1.601   7.165   7.165  1.1447 -1.7438 -1.8023
   13MOL   H116 2300   1.719   7.233   7.292 -0.3417  0.8266  0.0038
   13MOL   H117 2301   1.895   7.126   7.157 -0.4564  1.9507 -0.5066
   13MOL   H118 2302   1.712   6.967   6.870 -0.4277  1.5455  0.3548
   13MOL   C119 2303   1.757   6.963   7.237 -0.3114  0.2285 -0.5605
   13MOL   C120 2304   1.848   6.837   7.226  0.2477  0.2107 -0.0299
   13MOL   C121 2305   1.767   6.721   7.286  0.1454 -0.8977 -0.1089
   13MOL   O122 2306   1.681   6.743   7.369 -0.0054  0.2446  0.5733
   13MOL   O123 2307   1.804   6.596   7.244 -0.1861  0.2956 -0.0910
   13MOL   H124 2308   1.652   6.940   7.216 -0.0637 -1.3578 -0.1851
   13MOL   H125 2309   1.754   6.993   7.341 -1.5823  0.2101 -0.5758
   13MOL   H126 2310   1.869   6.808   7.123  0.8753  1.1940 -0.1820
   13MOL   H127 2311   1.763   6.519   7.280  2.1771 -0.9875 -0.0531
   13MOL   C128 2312   1.981   6.866   7.305 -0.0821 -0.6228  0.1485
   13MOL   C129 2313   2.114   6.791   7.283 -0.6530 -0.5052 -0.7176
   13MOL   C130 2314   2.129   6.741   7.132 -0.2596  0.6945 -0.4497
   13MOL   O131 2315   2.153   6.624   7.106  0.1086 -0.0461 -0.4000
   13MOL   O132 2316   2.121   6.844   7.042  0.1776  0.1525  0.2787
   13MOL   H133 2317   1.958   6.869   7.411  0.3831  0.6450  0.2231
   13MOL   H134 2318   2.013   6.965   7.272 -0.8231 -0.3563  0.2281
   13MOL   H135 2319   2.195   6.860   7.305 -0.3926 -1.3774  1.1265
   13MOL   H136 2320   2.131   6.805   6.956 -2.4869  0.1977 -0.0971
   13MOL   C137 2321   2.134   6.676   7.385  0.2061  0.1753 -0.4490
   13MOL   C138 2322   2.160   6.710   7.535 -0.6605 -0.4770 -0.1382
   13MOL   C139 2323   2.308   6.742   7.576 -0.3639 -0.1422  0.4721
   13MOL   O140 2324   2.401   6.705   7.509 -0.5366  0.2045  0.3230
   13MOL   O141 2325   2.324   6.821   7.689  0.9383 -0.0491  0.1692
   13MOL   H142 2326   2.217   6.611   7.354  0.9658  0.6978  0.4558
   13MOL   H143 2327   2.039   6.625   7.376  0.4550 -1.0284  2.8818
   13MOL   H144 2328   2.118   6.809   7.552  0.5719  0.1284 -0.5703
   13MOL   H145 2329   2.417   6.834   7.697  0.7751  0.0726  2.0626
   13MOL   C146 2330   2.094   6.614   7.638 -0.1497  1.1430 -0.2050
   13MOL   C147 2331   2.132   6.461   7.636 -0.0907  0.0188  0.7002
   13MOL   C148 2332   2.064   6.370   7.529 -0.8735  0.3458  0.4906
   13MOL   O149 2333   1.965   6.308   7.549 -0.1864 -0.6558  0.3655
   13MOL   O150 2334   2.128   6.380   7.407  0.0478  0.2981  0.9121
   13MOL   H151 2335   1.986   6.622   7.646 -0.4083 -1.2615 -1.0092
   13MOL   H152 2336   2.130   6.656   7.733 -2.9091 -1.5784  2.1654
   13MOL   H153 2337   2.237   6.449   7.609 -0.2502 -2.8719  1.2226
   13MOL   H154 2338   2.090   6.324   7.341 -0.1246 -0.6158  1.7811
   13MOL   C155 2339   2.109   6.410   7.781 -0.3031 -0.6110 -0.3315
   13MOL   C156 2340   2.214   6.442   0.033  0.0388  0.3541 -0.1019
   13MOL   C157 2341   2.345   6.361   0.017  0.3734  0.0518 -0.8877
   13MOL   O158 2342   2.377   6.292   7.772 -0.2447  0.3952 -0.0197
   13MOL   O159 2343   2.434   6.381   0.120 -1.0492  0.1788  0.1817
   13MOL   H160 2344   2.099   6.301   7.784  1.0547 -0.7246  0.3423
   13MOL   H161 2345   2.017   6.452   7.820  0.2066  0.4917 -0.2858
   13MOL   H162 2346   2.251   6.544   0.023  0.1417  0.0679 -3.2013
   13MOL   H163 2347   2.499   6.316   0.096 -0.7028 -0.5596  2.9502
   13MOL   C164 2348   2.145   6.441   0.173 -0.3070  0.2025  0.2548
   13MOL   C165 2349   2.074   6.318   0.230  0.5003  0.3802 -0.7549
   13MOL   C166 2350   1.996   6.370   0.357  0.4455  0.4901 -0.5165
   13MOL   O167 2351   2.034   6.451   0.439 -0.2423  0.4040 -0.1780
   13MOL   O168 2352   1.861   6.336   0.357  0.1041 -0.2151  0.4529
   13MOL   H169 2353   2.061   6.512   0.173 -1.8251 -1.5561  0.2087
   13MOL   H170 2354   2.215   6.479   0.247  1.1925 -0.9308 -0.5603
   13MOL   H171 2355   2.009   6.276   0.154 -1.5252 -0.2099  1.2516
   13MOL   H172 2356   1.837   6.361   0.444 -0.1597 -1.1906  0.6609
   13MOL   C173 2357   2.169   6.205   0.281 -0.7736  0.1768  0.4128
   13MOL   C174 2358   2.264   6.224   0.401 -0.1244 -0.0598  0.4458
   13MOL   C175 2359   2.343   6.099   0.431  0.5821 -0.1034  0.1449
   13MOL   O176 2360   2.463   6.100   0.470 -0.2294 -0.4508 -0.2604
   13MOL   O177 2361   2.268   5.980   0.429 -0.0459 -0.3495  0.3944
   13MOL   H178 2362   2.240   6.189   0.200 -2.1676 -0.1682 -0.7573
   13MOL   H179 2363   2.125   6.108   0.306  0.2546 -0.5045 -0.3871
   13MOL   H180 2364   2.342   6.296   0.376  0.6052 -0.9003  0.2692
   13MOL   H181 2365   2.312   5.915   0.482 -0.4786 -0.5625  0.4999
   13MOL   H182 2366   2.209   6.265   0.486 -2.6211 -0.9539 -0.6958
   14MOL     C1 2367   0.621   2.982   7.505  0.1022 -0.5576 -0.0610
   14MOL     C2 2368   0.725   2.972   7.623 -0.2686 -0.0630 -0.2605
   14MOL     C3 2369   0.844   2.878   7.596 -0.4252  0.0546 -0.1300
   14MOL     O4 2370   0.845   2.803   7.501  0.2483  0.1602  0.9425
   14MOL     O5 2371   0.955   2.906   7.673 -0.4102 -0.0389 -0.1945
   14MOL     H6 2372   0.568   2.888   7.488  0.1579 -0.6985  0.5451
   14MOL     H7 2373   0.552   3.066   7.513  1.1358  0.2656  0.2275
   14MOL     H8 2374   0.777   3.068   7.623 -0.1241 -0.1327  0.9448
   14MOL     H9 2375   1.023   2.857   7.630  0.1594  0.3623  0.2276
   14MOL    H10 2376   0.672   2.995   7.409  1.3417 -1.3449  0.4737
   14MOL    C11 2377   0.662   2.957   7.761  0.1910 -0.1623 -0.1352
   14MOL    C12 2378   0.584   2.829   7.791 -0.2547  0.1557 -0.0971
   14MOL    C13 2379   0.432   2.854   7.795  0.1280  0.7458 -0.4320
   14MOL    O14 2380   0.362   2.823   7.698 -0.5259 -1.0090 -0.4667
   14MOL    O15 2381   0.389   2.918   0.057  0.4431  0.1556 -0.4863
   14MOL    H16 2382   0.601   3.044   7.783  1.1146  0.8697 -1.5334
   14MOL    H17 2383   0.742   2.971   7.834 -1.4546  3.5123  1.0731
   14MOL    H18 2384   0.595   2.763   7.706  0.7787 -0.6209  0.6359
   14MOL    H19 2385   0.296   2.930   0.071  0.1076 -1.1971 -1.3986
   14MOL    C20 2386   0.652   2.765   0.067  0.7107 -0.1646 -0.2768
   14MOL    C21 2387   0.629   2.609   0.090  0.8178  0.0694 -0.8326
   14MOL    C22 2388   0.694   2.517   7.842 -0.5549  0.7839 -0.1171
   14MOL    O23 2389   0.657   2.400   7.811  0.7075  0.0645  0.2418
   14MOL    O24 2390   0.806   2.576   7.784  0.4724 -0.1512  0.0167
   14MOL    H25 2391   0.614   2.813   0.157  1.5654  1.6036 -0.8293
   14MOL    H26 2392   0.761   2.771   0.075  0.6388  0.3986  0.3210
   14MOL    H27 2393   0.687   2.583   0.179  0.2105 -0.4169 -0.5813
   14MOL    H28 2394   0.845   2.521   7.718 -0.7994 -0.4976 -0.4575
   14MOL    C29 2395   0.480   2.561   0.118 -0.2129  0.2664  0.1083
   14MOL    C30 2396   0.470   2.440   0.212  0.0893 -0.4516  0.1511
   14MOL    C31 2397   0.327   2.375   0.190  0.4743 -0.2389 -0.4690
   14MOL    O32 2398   0.312   2.256   0.167  0.1250  0.0929  0.1959
   14MOL    O33 2399   0.222   2.447   0.240  0.7082 -0.1552 -0.8520
   14MOL    H34 2400   0.418   2.557   0.028  0.3923 -1.3011 -0.2493
   14MOL    H35 2401   0.432   2.647   0.165 -0.7796  1.2715 -2.2120
   14MOL    H36 2402   0.533   2.359   0.177 -1.0826  0.4876 -4.3934
   14MOL    H37 2403   0.242   2.539   0.253 -0.1988 -0.4418  3.2765
   14MOL    C38 2404   0.501   2.475   0.366  0.3505 -0.1568  0.3207
   14MOL    C39 2405   0.640   2.429   0.409  0.1922  0.4561  0.7733
   14MOL    C40 2406   0.651   2.284   0.450  0.3482 -0.2826 -0.2020
   14MOL    O41 2407   0.558   2.218   0.482  0.0842  0.2161 -0.0240
   14MOL    O42 2408   0.777   2.234   0.447  0.4805  0.3832  0.3910
   14MOL    H43 2409   0.420   2.444   0.432 -1.1806  0.9831 -0.9689
   14MOL    H44 2410   0.481   2.582   0.378 -0.2495 -0.1375 -0.7436
   14MOL    H45 2411   0.707   2.447   0.324 -0.0680 -2.4070 -0.0938
   14MOL    H46 2412   0.777   2.146   0.481  0.1385 -0.2770 -1.2623
   14MOL    C47 2413   0.694   2.515   0.522 -0.4601 -1.1897 -0.1803
   14MOL    C48 2414   0.726   2.659   0.482  0.1266  0.0292  0.2048
   14MOL    C49 2415   0.875   2.680   0.447  0.8291  0.5008 -0.9590
   14MOL    O50 2416   0.960   2.703   0.533 -0.1510  1.1759 -0.1973
   14MOL    O51 2417   0.907   2.666   0.315  0.4754  0.3232 -0.8110
   14MOL    H52 2418   0.782   2.461   0.557  1.9404  2.1661 -0.8088
   14MOL    H53 2419   0.616   2.510   0.598 -0.9740 -1.6830 -0.7357
   14MOL    H54 2420   0.688   2.684   0.383  0.6193 -1.9766 -0.5248
   14MOL    H55 2421   1.000   2.668   0.297  0.3149  2.1591 -1.5954
   14MOL    C56 2422   0.681   2.763   0.591 -0.3416  0.3177 -0.4462
   14MOL    C57 2423   0.528   2.792   0.590 -0.4502 -0.1426  0.7732
   14MOL    C58 2424   0.497   2.853   0.455 -0.0643 -0.0378 -0.5588
   14MOL    O59 2425   0.396   2.821   0.394  0.5307 -0.6464 -0.5202
   14MOL    O60 2426   0.571   2.964   0.425 -0.6755 -0.2725 -0.1341
   14MOL    H61 2427   0.742   2.854   0.582 -0.1654  0.0306 -2.3699
   14MOL    H62 2428   0.712   2.725   0.688  1.2689  1.3239 -0.5433
   14MOL    H63 2429   0.467   2.702   0.590  0.2370 -0.6055  0.8060
   14MOL    H64 2430   0.539   3.005   0.345  0.5095  0.4446 -0.2523
   14MOL    C65 2431   0.489   2.891   0.706  0.2788  0.0262 -0.1376
   14MOL    C66 2432   0.335   2.891   0.716 -0.6380  0.1535  0.0637
   14MOL    C67 2433   0.285   3.025   0.778  0.2461  0.7356 -0.2509
   14MOL    O68 2434   0.220   3.037   0.883  0.1662  0.2945  0.5208
   14MOL    O69 2435   0.312   3.133   0.703 -0.4164  0.3051  0.3017
   14MOL    H70 2436   0.544   2.985   0.695  0.4063 -0.1253 -0.8218
   14MOL    H71 2437   0.533   2.855   0.799 -1.7523 -1.5293  0.2298
   14MOL    H72 2438   0.291   2.890   0.616 -0.5313 -0.8653  0.0161
   14MOL    H73 2439   0.272   3.207   0.747  1.0916  0.7244  1.0173
   14MOL    C74 2440   0.287   2.770   0.800 -0.1016  0.7419  0.0247
   14MOL    C75 2441   0.159   2.702   0.746  0.5953 -0.1075  0.3772
   14MOL    C76 2442   0.042   2.798   0.723  0.7992 -0.0016 -0.4559
   14MOL    O77 2443   0.020   2.866   0.624  0.3928  0.1616 -0.2784
   14MOL    O78 2444   7.813   2.800   0.832  0.5799 -0.1463 -0.6527
   14MOL    H79 2445   0.279   2.795   0.906  0.0764 -0.2682  0.2900
   14MOL    H80 2446   0.355   2.685   0.816 -0.6699  0.3409  0.3354
   14MOL    H81 2447   0.183   2.673   0.644 -0.7972 -0.6930  0.2087
   14MOL    H82 2448   7.743   2.858   0.806  1.5211  0.7701 -1.2088
   14MOL    C83 2449   0.120   2.565   0.811 -0.2419 -0.2550  0.2678
   14MOL    C84 2450   0.062   2.454   0.713 -0.6813  0.3349 -0.2842
   14MOL    C85 2451   7.765   2.479   0.672 -0.1149  0.5665  0.4559
   14MOL    O86 2452   7.664   2.438   0.735 -0.0958  0.6759 -0.0471
   14MOL    O87 2453   7.754   2.562   0.571 -0.5610  0.1839 -0.0607
   14MOL    H88 2454   0.059   2.587   0.898 -1.6955 -2.5073 -0.1178
   14MOL    H89 2455   0.205   2.514   0.856 -1.5279 -1.2118  1.6821
   14MOL    H90 2456   0.122   2.459   0.622  0.8471 -1.3628  0.5807
   14MOL    H91 2457   7.669   2.570   0.530 -0.3714 -1.5510 -0.8536
   14MOL    C92 2458   0.078   2.310   0.778  0.0542  0.0517 -0.2042
   14MOL    C93 2459   0.083   2.182   0.677  0.1506 -0.1924  0.0682
   14MOL    C94 2460   0.172   2.199   0.553  0.1626  0.1965  0.6649
   14MOL    O95 2461   0.133   2.178   0.436 -0.4730  0.3773 -0.3471
   14MOL    O96 2462   0.300   2.226   0.589  0.5436 -0.1840  0.2307
   14MOL    H97 2463   0.004   2.305   0.857  2.3907 -1.5836  1.9646
   14MOL    H98 2464   0.173   2.302   0.831  0.9962 -2.2042 -2.1410
   14MOL    H99 2465   0.132   2.095   0.721 -1.5241 -1.3531 -0.3260
   14MOL   H100 2466   0.356   2.215   0.513 -0.7505 -3.0183 -0.3436
   14MOL   C101 2467   7.797   2.142   0.626  0.6562  0.2425  0.2510
   14MOL   C102 2468   7.708   2.075   0.729  0.0722 -0.0581 -0.7177
   14MOL   C103 2469   7.782   1.961   0.803  0.1602  0.4654 -0.1009
   14MOL   O104 2470   7.801   1.957   0.925  0.3724  0.7695  0.0359
   14MOL   O105 2471   7.826   1.867   0.712  0.7308  0.5748 -0.0860
   14MOL   H106 2472   7.808   2.059   0.556  0.5541 -0.8563  1.5211
   14MOL   H107 2473   7.729   2.219   0.589 -1.4087 -0.7591  1.8857
   14MOL   H108 2474   7.702   2.154   0.804 -0.4985 -1.0037  0.2645
   14MOL   H109 2475   0.021   1.800   0.759 -1.3896  0.3698  1.8565
   14MOL   C110 2476   7.572   2.021   0.673  0.3212 -0.3903 -0.0146
   14MOL   C111 2477   7.462   2.136   0.680  0.1830  0.5641 -0.2733
   14MOL   C112 2478   7.396   2.147   0.820  0.6667 -0.4048 -0.1330
   14MOL   O113 2479   7.394   2.058   0.901 -0.1364 -0.0060 -0.1636
   14MOL   O114 2480   7.331   2.261   0.832 -0.2388 -0.2637 -0.8332
   14MOL   H115 2481   7.538   1.932   0.727 -0.3734 -0.4291 -0.5179
   14MOL   H116 2482   7.603   1.987   0.575  0.1093  0.8815 -0.5344
   14MOL   H117 2483   7.499   2.234   0.651 -0.7493  0.8993 -0.3564
   14MOL   H118 2484   7.285   2.277   0.914  0.7394 -0.2144 -0.2868
   14MOL   C119 2485   7.348   2.123   0.570  0.1229  0.1357  0.4755
   14MOL   C120 2486   7.290   1.980   0.529 -0.8759  0.1183  0.5641
   14MOL   C121 2487   7.228   1.975   0.391 -0.9059  0.4962  0.0056
   14MOL   O122 2488   7.243   1.883   0.312  0.2004  0.6463 -0.8911
   14MOL   O123 2489   7.171   2.087   0.351 -0.2134  0.3821 -0.0818
   14MOL   H124 2490   7.395   2.171   0.483 -2.1600 -0.3172 -1.0497
   14MOL   H125 2491   7.266   2.193   0.585 -1.3079 -1.3285 -0.3071
   14MOL   H126 2492   7.375   1.913   0.518  1.2405  2.5618  1.4488
   14MOL   H127 2493   7.162   2.156   0.415 -1.1228 -0.8926  1.1926
   14MOL   C128 2494   7.179   1.938   0.631 -0.5463 -0.2159 -0.4512
   14MOL   C129 2495   7.167   1.781   0.652  0.0519  0.3986 -0.2235
   14MOL   C130 2496   7.041   1.742   0.748 -0.3191  0.0202  0.2907
   14MOL   O131 2497   6.967   1.827   0.797  0.0473 -0.2139 -0.5483
   14MOL   O132 2498   7.028   1.612   0.746  0.1776  0.0898 -0.3893
   14MOL   H133 2499   7.077   1.969   0.607 -0.7944 -1.2889 -0.8355
   14MOL   H134 2500   7.193   1.986   0.727 -0.8965 -0.1003 -0.4560
   14MOL   H135 2501   7.141   1.745   0.552  1.6207  0.0699 -0.5211
   14MOL   H136 2502   6.954   1.582   0.798 -0.0405  0.0960 -0.6953
   14MOL   C137 2503   7.297   1.713   0.702  0.3314  0.0812 -0.1798
   14MOL   C138 2504   7.362   1.613   0.588  0.2171 -0.3693  0.1956
   14MOL   C139 2505   7.332   1.468   0.627  0.3982  0.1262 -0.4139
   14MOL   O140 2506   7.413   1.390   0.676 -0.3597 -0.4367  0.3032
   14MOL   O141 2507   7.207   1.430   0.597  0.1327  0.3383  0.1705
   14MOL   H142 2508   7.276   1.659   0.794 -0.1760  1.4757  0.5353
   14MOL   H143 2509   7.368   1.791   0.726 -0.7508  0.7388  0.9649
   14MOL   H144 2510   7.314   1.620   0.490  0.3691  0.3657  0.1677
   14MOL   H145 2511   7.209   1.338   0.618  0.9818  0.1982 -0.4879
   14MOL   C146 2512   7.507   1.656   0.562  0.3891  0.0483  0.3814
   14MOL   C147 2513   7.601   1.567   0.476 -0.6327  0.5175 -0.1837
   14MOL   C148 2514   7.534   1.524   0.343  0.3132 -0.1144  0.3960
   14MOL   O149 2515   7.550   1.418   0.291  0.0043  0.4838  0.2658
   14MOL   O150 2516   7.436   1.605   0.302 -0.2674 -0.5120  0.4337
   14MOL   H151 2517   7.556   1.688   0.654  1.7271  0.1810 -0.3637
   14MOL   H152 2518   7.500   1.751   0.509 -1.1075 -0.1805  0.1506
   14MOL   H153 2519   7.669   1.639   0.428  0.7386 -1.5047 -1.3353
   14MOL   H154 2520   7.389   1.556   0.237  1.7312 -1.1728 -0.5524
   14MOL   C155 2521   7.678   1.463   0.556 -0.3897  0.0770  0.1626
   14MOL   C156 2522   7.833   1.467   0.531 -0.1512 -0.1591 -0.1437
   14MOL   C157 2523   0.030   1.450   0.388 -0.1132 -0.4435  0.3689
   14MOL   O158 2524   0.088   1.538   0.326  0.0043  0.1550 -0.6875
   14MOL   O159 2525   0.011   1.318   0.343 -0.1222 -0.3490 -0.0896
   14MOL   H160 2526   7.633   1.368   0.526  0.3148 -0.0165 -0.5926
   14MOL   H161 2527   7.658   1.469   0.663 -0.0278 -0.4222  0.2618
   14MOL   H162 2528   0.016   1.566   0.561  0.7776 -0.1583 -1.2204
   14MOL   H163 2529   0.046   1.320   0.255 -1.7854  0.7765 -0.7571
   14MOL   C164 2530   0.051   1.369   0.623  0.6934 -0.0794  0.1625
   14MOL   C165 2531   0.069   1.438   0.765 -0.0957  1.0643 -0.0777
   14MOL   C166 2532   0.196   1.526   0.773 -0.3817 -0.2053  0.9754
   14MOL   O167 2533   0.191   1.648   0.794 -0.4099 -0.3762 -0.1615
   14MOL   O168 2534   0.305   1.454   0.743  0.3777  0.2347  0.3296
   14MOL   H169 2535   0.140   1.325   0.579  0.0098 -1.2985 -0.0268
   14MOL   H170 2536   7.832   1.288   0.638  1.4174 -0.7555  0.0052
   14MOL   H171 2537   7.847   1.507   0.801 -1.2136 -1.6389  3.0630
   14MOL   H172 2538   0.385   1.500   0.765 -0.8612  1.3761  2.5559
   14MOL   C173 2539   0.074   1.339   0.885  0.5013 -0.5787 -0.0344
   14MOL   C174 2540   0.108   1.391   1.030 -0.8447  0.2698 -0.0644
   14MOL   C175 2541   0.106   1.275   1.133  0.5196  0.1573 -0.5830
   14MOL   O176 2542   0.077   1.158   1.116  0.2348 -0.5173  0.0398
   14MOL   O177 2543   0.138   1.317   1.259 -0.8926 -0.3653 -0.1853
   14MOL   H178 2544   0.132   1.249   0.861  3.5204  1.2285  0.2211
   14MOL   H179 2545   7.826   1.299   0.890 -0.0911  0.9753  0.3965
   14MOL   H180 2546   0.209   1.429   1.045 -0.3860 -1.1269  0.4659
   14MOL   H181 2547   0.144   1.262   1.336 -1.1394 -0.2013 -0.0461
   14MOL   H182 2548   0.044   1.476   1.054 -0.9129  0.5493 -1.2307
   15MOL     C1 2549   3.551   1.892   3.061  0.0714  0.3118  0.1706
   15MOL     C2 2550   3.494   1.751   3.072  0.0884  0.2166 -0.0520
   15MOL     C3 2551   3.382   1.737   3.180 -0.2150  0.2848  0.1197
   15MOL     O4 2552   3.358   1.627   3.232  0.1547  0.1587 -0.0771
   15MOL     O5 2553   3.319   1.852   3.213 -0.2627 -0.6225  0.3174
   15MOL     H6 2554   3.633   1.911   3.130 -0.2332  0.3551  0.5195
   15MOL     H7 2555   3.599   1.918   2.966  0.1591  2.2360  0.7031
   15MOL     H8 2556   3.444   1.724   2.979  0.1511  2.0311 -0.6154
   15MOL     H9 2557   3.257   1.833   3.281 -0.6636 -1.4805 -0.2792
   15MOL    H10 2558   3.470   1.964   3.072 -2.3330 -1.7504 -3.1121
   15MOL    C11 2559   3.608   1.647   3.085 -0.2610 -0.3984  0.1366
   15MOL    C12 2560   3.696   1.647   2.949  0.4222 -0.3348 -0.3039
   15MOL    C13 2561   3.640   1.545   2.842  0.0186  0.1305 -1.0706
   15MOL    O14 2562   3.681   1.428   2.832  0.3439  0.1795 -0.6341
   15MOL    O15 2563   3.551   1.610   2.755  0.1800 -0.4878  0.4326
   15MOL    H16 2564   3.568   1.547   3.103 -1.4705 -0.2326 -1.4710
   15MOL    H17 2565   3.674   1.687   3.161 -0.6932 -0.5337  0.5826
   15MOL    H18 2566   3.691   1.746   2.902  0.8208 -0.6261 -0.9656
   15MOL    H19 2567   3.507   1.546   2.700  0.6079 -1.5768  1.3316
   15MOL    C20 2568   3.840   1.619   2.989 -1.0661  0.6499  0.1340
   15MOL    C21 2569   3.948   1.613   2.880  0.6070 -0.5446 -0.4653
   15MOL    C22 2570   4.019   1.477   2.890  0.0446 -0.2652  0.2817
   15MOL    O23 2571   4.043   1.409   2.792 -0.0623  0.3464  0.2818
   15MOL    O24 2572   4.077   1.447   3.008  0.4348  0.0253  0.2837
   15MOL    H25 2573   3.844   1.538   3.061 -1.8626  1.9799  1.7215
   15MOL    H26 2574   3.872   1.703   3.052  1.6983  1.6272 -2.4349
   15MOL    H27 2575   3.898   1.603   2.784  0.1418 -1.8490 -0.0916
   15MOL    H28 2576   4.137   1.375   3.004  0.5239  0.0495  1.1218
   15MOL    C29 2577   4.058   1.723   2.882  0.0550 -0.7489  0.3434
   15MOL    C30 2578   4.007   1.860   2.843  0.1377  0.0643  0.2684
   15MOL    C31 2579   3.949   1.866   2.703 -0.7822  0.1688 -0.3672
   15MOL    O32 2580   3.834   1.897   2.686  0.2833 -0.4939 -0.3122
   15MOL    O33 2581   4.045   1.825   2.610  0.1398  0.0659 -0.0227
   15MOL    H34 2582   4.138   1.709   2.809  0.3823 -1.3804  0.8089
   15MOL    H35 2583   4.106   1.732   2.980  1.0875  1.6188 -0.3453
   15MOL    H36 2584   3.920   1.880   2.905  1.1695 -2.7692  2.7861
   15MOL    H37 2585   4.021   1.847   2.522 -1.4660 -3.2146 -0.4877
   15MOL    C38 2586   4.117   1.970   2.866 -0.0716 -0.3023  0.0272
   15MOL    C39 2587   4.082   2.116   2.827  0.2292  0.5511  0.1743
   15MOL    C40 2588   4.104   2.149   2.679 -0.4917  0.1021 -0.1351
   15MOL    O41 2589   4.199   2.108   2.614  0.0893  0.3304 -0.2180
   15MOL    O42 2590   4.001   2.209   2.621 -0.0224 -0.0501 -0.1672
   15MOL    H43 2591   4.202   1.935   2.808  0.5042  1.4637 -0.2179
   15MOL    H44 2592   4.152   1.966   2.969  0.9848 -0.6922 -0.3486
   15MOL    H45 2593   3.978   2.117   2.860 -0.0249  1.7174 -0.6445
   15MOL    H46 2594   4.019   2.223   2.529  2.2674  1.6905  0.4837
   15MOL    C47 2595   4.158   2.221   2.906  0.4700 -0.0812  0.5108
   15MOL    C48 2596   4.099   2.367   2.909 -0.3068  0.6738  0.4948
   15MOL    C49 2597   4.207   2.472   2.923  0.4192 -0.9647 -0.2473
   15MOL    O50 2598   4.245   2.530   2.820 -0.1725 -0.2276 -0.8584
   15MOL    O51 2599   4.248   2.516   3.048 -0.1683  0.2791 -0.2649
   15MOL    H52 2600   4.252   2.214   2.850 -0.1597 -1.4690 -0.4043
   15MOL    H53 2601   4.189   2.204   3.009 -1.9536  1.1691  1.4707
   15MOL    H54 2602   4.050   2.377   2.812 -0.0924  1.6385  0.4807
   15MOL    H55 2603   4.319   2.579   3.046  1.8979 -1.9633  0.2609
   15MOL    C56 2604   3.989   2.383   3.008 -0.2225 -0.1951  0.2067
   15MOL    C57 2605   3.922   2.518   3.001  0.3411 -0.5178 -0.1393
   15MOL    C58 2606   3.937   2.599   3.133  0.1491 -0.0787  0.4891
   15MOL    O59 2607   4.001   2.570   3.231 -0.5571 -0.3540  0.1375
   15MOL    O60 2608   3.885   2.724   3.123  0.1046 -0.0803  0.3404
   15MOL    H61 2609   4.040   2.375   3.104  4.8431 -1.7067 -2.4369
   15MOL    H62 2610   3.912   2.308   2.990  0.8125 -0.9158 -1.3591
   15MOL    H63 2611   3.972   2.582   2.929 -0.4859  1.0499  0.6581
   15MOL    H64 2612   3.896   2.764   3.208  0.0097  0.7478 -0.0293
   15MOL    C65 2613   3.781   2.511   2.948  0.2201  0.1938 -0.4120
   15MOL    C66 2614   3.778   2.489   2.793  0.2975  0.1929 -0.6641
   15MOL    C67 2615   3.858   2.587   2.707 -0.7663 -0.9498  0.5903
   15MOL    O68 2616   3.845   2.710   2.717 -0.2706 -0.6283 -0.0553
   15MOL    O69 2617   3.943   2.530   2.620 -0.1790 -0.4439  0.2851
   15MOL    H70 2618   3.726   2.602   2.971 -1.4885 -0.6856 -0.9663
   15MOL    H71 2619   3.722   2.432   2.994  0.0334 -1.0404 -2.6925
   15MOL    H72 2620   3.831   2.397   2.770  0.1313  0.3110 -1.5535
   15MOL    H73 2621   4.008   2.592   2.590  0.3901 -0.9236  0.5282
   15MOL    C74 2622   3.635   2.475   2.733  0.3468  0.1477 -0.0937
   15MOL    C75 2623   3.556   2.351   2.777 -0.5930  0.3060  0.4832
   15MOL    C76 2624   3.598   2.232   2.689 -0.2828  0.0719 -0.4282
   15MOL    O77 2625   3.560   2.205   2.577 -0.2164  0.0592  0.3601
   15MOL    O78 2626   3.688   2.158   2.759 -0.0244  0.1978  0.0481
   15MOL    H79 2627   3.635   2.468   2.624 -2.3738  2.8686 -0.3324
   15MOL    H80 2628   3.584   2.566   2.765  0.1004 -0.1955  0.5136
   15MOL    H81 2629   3.576   2.339   2.883 -0.9910 -1.2363  0.3885
   15MOL    H82 2630   3.719   2.089   2.702  0.3448  2.2942 -2.3570
   15MOL    C83 2631   3.404   2.370   2.783  0.5307 -0.4537 -0.4445
   15MOL    C84 2632   3.320   2.282   2.892  0.4129  0.8436  0.5718
   15MOL    C85 2633   3.365   2.315   3.033  0.0132 -0.4660 -0.1477
   15MOL    O86 2634   3.405   2.227   3.107  0.3040 -0.5228 -0.2491
   15MOL    O87 2635   3.355   2.449   3.073  0.1015 -0.0768  0.7539
   15MOL    H88 2636   3.359   2.362   2.684 -0.7081 -0.7725  0.1305
   15MOL    H89 2637   3.382   2.476   2.799  1.0254 -0.6422  1.6470
   15MOL    H90 2638   3.215   2.312   2.895  0.0384 -0.6027  2.5908
   15MOL    H91 2639   3.379   2.454   3.164 -0.0114 -0.4356  0.8055
   15MOL    C92 2640   3.321   2.126   2.863 -0.3292 -0.2673  0.6613
   15MOL    C93 2641   3.219   2.087   2.749  0.0580 -0.1063  0.4075
   15MOL    C94 2642   3.098   2.015   2.818 -1.0122  0.1586  0.6550
   15MOL    O95 2643   2.986   2.066   2.810 -0.5529 -0.0433 -0.5230
   15MOL    O96 2644   3.130   1.890   2.868 -0.2064  0.1427 -0.0114
   15MOL    H97 2645   3.304   2.070   2.954  1.7517  1.5404  2.2099
   15MOL    H98 2646   3.417   2.093   2.823  0.3620 -0.5937  2.5404
   15MOL    H99 2647   3.182   2.181   2.706  0.4125  0.1067  0.5694
   15MOL   H100 2648   3.060   1.844   2.912 -0.0684  1.6199  1.8005
   15MOL   C101 2649   3.283   2.002   2.632 -0.0526  0.2382  0.1453
   15MOL   C102 2650   3.198   1.911   2.541  0.6747 -0.0260 -0.1805
   15MOL   C103 2651   3.188   1.762   2.575 -0.5394  0.0956  1.3014
   15MOL   O104 2652   3.079   1.702   2.592  0.0618 -0.2234 -0.3921
   15MOL   O105 2653   3.316   1.700   2.585 -0.3467  0.1568  0.0412
   15MOL   H106 2654   3.370   1.954   2.676 -1.2129  0.1778  2.4178
   15MOL   H107 2655   3.333   2.077   2.569  1.3304  0.1486  1.1098
   15MOL   H108 2656   3.099   1.955   2.551  0.9166  0.2110  1.3177
   15MOL   H109 2657   3.313   1.608   2.605  2.0483 -0.4363 -2.1247
   15MOL   C110 2658   3.236   1.940   2.392  0.1781 -0.6214  0.1863
   15MOL   C111 2659   3.130   1.901   2.282  0.6531 -0.3969 -0.2857
   15MOL   C112 2660   3.209   1.814   2.194 -0.6568  0.9840  0.1305
   15MOL   O113 2661   3.271   1.855   2.096  0.1706 -0.2308  0.0956
   15MOL   O114 2662   3.206   1.684   2.226  0.2915 -0.0052 -0.3798
   15MOL   H115 2663   3.337   1.917   2.359  0.4167 -2.5732  2.2178
   15MOL   H116 2664   3.236   2.049   2.392  3.1202 -0.5867  0.8633
   15MOL   H117 2665   3.061   1.830   2.326  2.6128  0.3671  4.2909
   15MOL   H118 2666   3.233   1.636   2.149 -3.6409 -2.6085 -0.2964
   15MOL   C119 2667   3.052   2.022   2.216 -0.0497  0.2908  0.1441
   15MOL   C120 2668   2.971   1.993   2.087  0.0484  0.3361 -0.0068
   15MOL   C121 2669   2.892   2.119   2.037  0.3944 -0.0433  0.5680
   15MOL   O122 2670   2.857   2.204   2.121  0.2559 -0.0333 -0.3042
   15MOL   O123 2671   2.851   2.109   1.906 -0.2179 -0.4481 -0.0802
   15MOL   H124 2672   3.123   2.103   2.200 -0.1676  0.6211  1.2452
   15MOL   H125 2673   2.995   2.063   2.300  1.9005  1.7463  0.7990
   15MOL   H126 2674   3.044   1.982   2.007  0.3326 -2.1069  0.5566
   15MOL   H127 2675   2.862   2.022   1.872  1.5909  0.4883 -2.0096
   15MOL   C128 2676   2.868   1.868   2.102 -0.4250 -0.0299  0.3998
   15MOL   C129 2677   2.906   1.741   2.021 -0.0030  0.2733 -0.1742
   15MOL   C130 2678   2.946   1.760   1.882  0.4363 -0.9296 -1.0841
   15MOL   O131 2679   2.916   1.858   1.815  0.0984 -0.3360  0.0200
   15MOL   O132 2680   3.009   1.654   1.829  0.4714  0.3536  0.5167
   15MOL   H133 2681   2.769   1.900   2.069 -0.2868 -2.1317 -2.2050
   15MOL   H134 2682   2.850   1.834   2.205 -0.3401  0.2158  0.4958
   15MOL   H135 2683   2.989   1.688   2.067  0.5009  2.1132  1.1221
   15MOL   H136 2684   3.010   1.647   1.735 -1.8026 -0.4781  0.5151
   15MOL   C137 2685   2.793   1.636   2.023 -0.2822  0.2401 -0.3900
   15MOL   C138 2686   2.746   1.580   2.164 -0.6280  1.0668  0.0566
   15MOL   C139 2687   2.863   1.503   2.224 -0.2915 -0.0745  0.0389
   15MOL   O140 2688   2.880   1.388   2.206  0.3846  0.3420  0.1832
   15MOL   O141 2689   2.953   1.586   2.284 -0.3103 -0.5242 -0.5473
   15MOL   H142 2690   2.810   1.559   1.948 -1.4831 -0.0138 -0.3982
   15MOL   H143 2691   2.711   1.691   1.977 -0.6388 -1.3432 -1.6898
   15MOL   H144 2692   2.718   1.655   2.237  0.9603  0.2716  1.5457
   15MOL   H145 2693   3.026   1.535   2.315  0.1139  1.6817  2.2365
   15MOL   C146 2694   2.618   1.495   2.135 -0.5333 -0.2920 -0.1990
   15MOL   C147 2695   2.562   1.401   2.244  0.0153 -0.2968  0.3466
   15MOL   C148 2696   2.421   1.357   2.196 -0.4297  0.2773 -0.4441
   15MOL   O149 2697   2.409   1.260   2.121 -0.1214 -0.4753 -0.3161
   15MOL   O150 2698   2.322   1.442   2.242 -0.0857  0.0357 -0.4784
   15MOL   H151 2699   2.633   1.432   2.047  3.3032 -3.0123  2.2263
   15MOL   H152 2700   2.538   1.562   2.107 -1.8749 -1.0139  1.7445
   15MOL   H153 2701   2.625   1.312   2.240 -0.3166 -0.5918  1.4165
   15MOL   H154 2702   2.231   1.424   2.222 -0.6025  0.1228  1.6742
   15MOL   C155 2703   2.553   1.470   2.382  0.4220 -0.9004 -1.0411
   15MOL   C156 2704   2.481   1.399   2.502  0.2486 -0.2394  0.0415
   15MOL   C157 2705   2.458   1.500   2.624  0.1990  0.3543  0.3222
   15MOL   O158 2706   2.391   1.601   2.614  0.2410  0.5875  0.0234
   15MOL   O159 2707   2.533   1.479   2.734  0.5011  0.1686  0.1764
   15MOL   H160 2708   2.514   1.570   2.367 -1.6240 -1.6053 -0.5692
   15MOL   H161 2709   2.656   1.495   2.408 -0.0323  0.6372 -0.6961
   15MOL   H162 2710   2.379   1.369   2.479 -0.7012  0.7036  2.7986
   15MOL   H163 2711   2.511   1.556   2.784 -0.7300  0.1616 -0.3486
   15MOL   C164 2712   2.549   1.266   2.542  0.2974 -0.5003 -0.0598
   15MOL   C165 2713   2.464   1.181   2.636  0.3276  0.0878 -0.1132
   15MOL   C166 2714   2.561   1.105   2.726 -0.5305 -0.7236 -0.5129
   15MOL   O167 2715   2.633   1.019   2.674  0.1368 -0.6531  0.1683
   15MOL   O168 2716   2.558   1.146   2.853  0.7286  0.9109 -0.6469
   15MOL   H169 2717   2.648   1.285   2.583  0.1790 -2.7248  1.3349
   15MOL   H170 2718   2.555   1.217   2.444 -0.4406 -0.4538 -0.1318
   15MOL   H171 2719   2.409   1.250   2.701  1.3322  0.5572  0.2510
   15MOL   H172 2720   2.615   1.094   2.908 -1.0500  0.3781  0.7502
   15MOL   C173 2721   2.368   1.082   2.564  0.0220 -0.3612  0.2168
   15MOL   C174 2722   2.240   1.055   2.638 -0.5677 -0.0118 -0.2280
   15MOL   C175 2723   2.133   1.159   2.616  0.1022 -0.8191  0.8964
   15MOL   O176 2724   2.148   1.262   2.558  0.2741 -0.4421 -0.1989
   15MOL   O177 2725   2.011   1.116   2.665 -0.1763 -0.1631  0.3182
   15MOL   H178 2726   2.415   0.983   2.555  0.2458 -0.2892  0.5785
   15MOL   H179 2727   2.350   1.108   2.460 -0.8679  2.1132  0.9715
   15MOL   H180 2728   2.204   0.953   2.622 -1.8497  0.5810 -1.2818
   15MOL   H181 2729   1.942   1.174   2.638  2.0192  1.3305 -2.3506
   15MOL   H182 2730   2.274   1.048   2.741  3.6730 -1.2612 -1.6205
   16MOL     C1 2731   4.605   6.537   2.723 -0.0614  0.0251  0.1968
   16MOL     C2 2732   4.611   6.694   2.702  0.8596 -0.1775  0.4591
   16MOL     C3 2733   4.475   6.731   2.646 -0.4680 -0.1044  0.1542
   16MOL     O4 2734   4.455   6.738   2.524 -0.5898 -0.3549 -0.3217
   16MOL     O5 2735   4.395   6.760   2.748 -0.5012 -0.4836  0.1306
   16MOL     H6 2736   4.699   6.484   2.739 -0.9180 -1.8754 -0.9808
   16MOL     H7 2737   4.533   6.521   2.803 -1.7677 -0.6924 -1.4712
   16MOL     H8 2738   4.620   6.737   2.802  0.7050 -1.2888  0.9554
   16MOL     H9 2739   4.310   6.787   2.716 -0.5212 -2.6737 -1.7552
   16MOL    H10 2740   4.566   6.485   2.636 -0.9682  2.1692 -0.7288
   16MOL    C11 2741   4.722   6.740   2.608 -0.7132 -0.2113  0.1608
   16MOL    C12 2742   4.869   6.707   2.641 -0.5692  0.0827  0.4456
   16MOL    C13 2743   4.904   6.775   2.773  0.5645  0.0779 -0.7072
   16MOL    O14 2744   4.854   6.882   2.813 -0.4453 -0.0414  0.3941
   16MOL    O15 2745   4.989   6.714   2.851  0.0621  0.2245 -0.4394
   16MOL    H16 2746   4.708   6.847   2.595 -1.5578 -0.0943  1.8152
   16MOL    H17 2747   4.703   6.687   2.514 -1.9297  2.6331 -1.2592
   16MOL    H18 2748   4.885   6.600   2.659  1.0137  0.0223 -1.2007
   16MOL    H19 2749   5.027   6.639   2.808 -0.1177 -0.5299  0.7207
   16MOL    C20 2750   4.973   6.742   2.532  0.3729  0.7623  0.1114
   16MOL    C21 2751   4.977   6.658   2.399 -0.4431 -0.5361 -0.1900
   16MOL    C22 2752   4.993   6.511   2.429  0.3559 -0.6772  0.4227
   16MOL    O23 2753   5.086   6.469   2.493  0.2008 -0.1081 -0.1617
   16MOL    O24 2754   4.899   6.439   2.363 -0.3447  0.1698  0.5286
   16MOL    H25 2755   5.072   6.745   2.576  0.3710  1.4510  0.0783
   16MOL    H26 2756   4.959   6.846   2.501  0.1224 -0.2705 -3.4637
   16MOL    H27 2757   4.876   6.679   2.364 -0.7609 -1.5007  0.1379
   16MOL    H28 2758   4.905   6.345   2.369 -3.0075 -0.2675 -2.4708
   16MOL    C29 2759   5.088   6.699   2.302 -0.2039  0.8669  0.5306
   16MOL    C30 2760   5.077   6.635   2.156 -0.0158  0.4594 -0.0762
   16MOL    C31 2761   5.211   6.624   2.082  0.9569 -0.4280 -0.2340
   16MOL    O32 2762   5.313   6.677   2.118  0.1330  0.1124 -0.3802
   16MOL    O33 2763   5.199   6.543   1.977  0.1956  0.4205 -0.0807
   16MOL    H34 2764   5.183   6.677   2.350 -1.3343  0.3209  2.5580
   16MOL    H35 2765   5.088   6.808   2.309 -0.3341  0.7249  2.9800
   16MOL    H36 2766   5.043   6.531   2.161 -1.4014  0.8938 -0.3576
   16MOL    H37 2767   5.289   6.527   1.955  0.6127  1.3034  0.9700
   16MOL    C38 2768   4.981   6.712   2.061 -0.1506  0.2043 -0.5733
   16MOL    C39 2769   4.839   6.652   2.053 -0.6637  0.3431  0.7476
   16MOL    C40 2770   4.825   6.540   1.947  0.7238  0.0731  0.2503
   16MOL    O41 2771   4.839   6.557   1.831  0.8458  0.1079  0.3924
   16MOL    O42 2772   4.788   6.425   1.993 -0.6621  0.4606 -0.2551
   16MOL    H43 2773   5.017   6.722   1.958  0.0713  2.9977 -0.2412
   16MOL    H44 2774   4.967   6.815   2.094 -0.9495 -0.2956  0.6752
   16MOL    H45 2775   4.814   6.604   2.148 -1.2234 -0.5049  0.1830
   16MOL    H46 2776   4.777   6.351   1.935 -2.2358 -0.2938  0.9741
   16MOL    C47 2777   4.733   6.760   2.027  0.0729  0.3283 -0.7252
   16MOL    C48 2778   4.712   6.867   2.140  0.1216  0.4905  0.5952
   16MOL    C49 2779   4.586   6.845   2.222 -0.5127  0.5560  0.2772
   16MOL    O50 2780   4.474   6.887   2.201  0.6561  0.4495 -0.4430
   16MOL    O51 2781   4.609   6.752   2.309  0.1631  0.7895 -0.0341
   16MOL    H52 2782   4.634   6.719   2.009 -0.5499  0.4537  2.2365
   16MOL    H53 2783   4.759   6.810   1.933  0.0430  0.6305 -0.5729
   16MOL    H54 2784   4.783   6.855   2.223  0.6564  0.1442  0.0958
   16MOL    H55 2785   4.530   6.756   2.362 -0.9144  1.9368 -1.6681
   16MOL    C56 2786   4.715   7.019   2.095 -0.7391  0.0370  0.6500
   16MOL    C57 2787   4.851   7.082   2.072 -0.5954 -0.4500 -0.4138
   16MOL    C58 2788   4.927   7.108   2.205  0.3822 -0.6134 -0.2968
   16MOL    O59 2789   4.912   7.045   2.311  0.3091  0.0057  0.1179
   16MOL    O60 2790   5.021   7.206   2.192 -0.4929  0.2437  0.2509
   16MOL    H61 2791   4.662   7.075   2.172 -0.4646  2.7516 -1.0422
   16MOL    H62 2792   4.656   7.031   2.004 -0.5967 -1.2551  0.3871
   16MOL    H63 2793   4.922   7.022   2.015 -0.5152  0.0517 -0.8392
   16MOL    H64 2794   5.075   7.207   2.270  0.7303 -0.3255 -0.5744
   16MOL    C65 2795   4.824   7.218   1.995 -0.6952 -0.2141  0.0708
   16MOL    C66 2796   4.814   7.201   1.836 -0.6646 -0.7004  0.0219
   16MOL    C67 2797   4.947   7.147   1.775 -0.7842 -0.0237 -0.3116
   16MOL    O68 2798   5.062   7.168   1.829 -0.6444 -0.2119 -0.3525
   16MOL    O69 2799   4.930   7.080   1.651  0.0058 -0.6866  0.4042
   16MOL    H70 2800   4.896   7.296   2.016  0.4415 -0.7953 -1.5514
   16MOL    H71 2801   4.739   7.269   2.040 -1.9323 -2.0094 -0.1677
   16MOL    H72 2802   4.745   7.124   1.803 -0.7953  1.1573 -4.3567
   16MOL    H73 2803   4.843   7.069   1.614 -0.1415  2.0623 -0.1880
   16MOL    C74 2804   4.772   7.343   1.785  0.3769 -0.1875 -0.1347
   16MOL    C75 2805   4.632   7.396   1.820 -0.0465 -0.7361  0.4893
   16MOL    C76 2806   4.530   7.316   1.739 -0.0871 -0.1481  0.3048
   16MOL    O77 2807   4.462   7.372   1.656  0.0221  0.7260 -0.0350
   16MOL    O78 2808   4.506   7.183   1.766  0.7500  0.1625  0.7927
   16MOL    H79 2809   4.785   7.348   1.676  0.0763  1.2218 -0.1136
   16MOL    H80 2810   4.846   7.413   1.825  0.2858 -0.3086  0.2372
   16MOL    H81 2811   4.609   7.363   1.922 -1.4869 -2.5216 -0.3703
   16MOL    H82 2812   4.441   7.141   1.711  0.5830  3.0402 -1.3351
   16MOL    C83 2813   4.618   7.543   1.787 -0.1425 -0.1993  0.3899
   16MOL    C84 2814   4.490   7.612   1.843 -0.2569  0.4375  0.0601
   16MOL    C85 2815   4.488   7.758   1.795 -0.2546 -0.0508 -0.0937
   16MOL    O86 2816   4.413   7.788   1.706  0.2427  0.0466 -0.0115
   16MOL    O87 2817   4.577   7.847   1.846 -0.0366 -0.0289  0.1447
   16MOL    H88 2818   4.622   7.561   1.680  1.2570  0.8612  0.6009
   16MOL    H89 2819   4.704   7.595   1.831 -0.5457  0.8301 -0.0294
   16MOL    H90 2820   4.402   7.575   1.791 -2.3407  1.6390  2.6296
   16MOL    H91 2821   4.562   0.079   1.807 -2.0902 -0.9078 -1.0861
   16MOL    C92 2822   4.473   7.591   1.997  0.1253 -0.3884 -0.0473
   16MOL    C93 2823   4.343   7.658   2.042  0.5991 -0.1874 -0.1025
   16MOL    C94 2824   4.344   7.649   2.196  0.3229  0.2223  0.0378
   16MOL    O95 2825   4.276   7.576   2.264  0.3968  0.6287 -0.4093
   16MOL    O96 2826   4.432   7.728   2.262  0.0614  0.2907 -0.5615
   16MOL    H97 2827   4.549   7.637   2.060 -2.3891  1.1774  1.9592
   16MOL    H98 2828   4.473   7.486   2.027 -0.7773 -0.8276 -1.5062
   16MOL    H99 2829   4.347   7.764   2.018  0.8334 -0.5128 -1.5575
   16MOL   H100 2830   4.415   7.691   2.347 -0.5765 -0.8795 -1.1785
   16MOL   C101 2831   4.213   7.601   1.978 -0.4204  0.1737 -0.8162
   16MOL   C102 2832   4.083   7.674   2.012 -0.4626  0.1599 -0.6238
   16MOL   C103 2833   3.966   7.598   1.966 -0.4019  1.0798 -0.2156
   16MOL   O104 2834   3.891   7.625   1.874  0.1766  0.4282 -0.1646
   16MOL   O105 2835   3.954   7.485   2.045 -0.4589  0.2954 -0.8364
   16MOL   H106 2836   4.204   7.496   2.007  1.9423  0.0728 -0.3598
   16MOL   H107 2837   4.219   7.593   1.869  0.1322  2.0409 -0.9341
   16MOL   H108 2838   4.083   7.671   2.121  0.2225 -0.3671 -0.6337
   16MOL   H109 2839   3.868   7.445   2.037 -1.9465  3.6123 -2.1956
   16MOL   C110 2840   4.078   7.824   1.961  0.1161  0.3408 -0.7030
   16MOL   C111 2841   4.092   0.076   2.071 -0.9053  0.1502 -0.0415
   16MOL   C112 2842   3.962   0.085   2.154  0.0113 -0.3195  0.1350
   16MOL   O113 2843   3.953   0.036   2.270  0.1537 -0.4541  0.4620
   16MOL   O114 2844   3.865   0.144   2.082 -0.2923  0.4368 -0.5492
   16MOL   H115 2845   3.998   0.002   1.895 -0.6415 -0.8482 -0.3648
   16MOL   H116 2846   4.161   7.845   1.893  0.9272 -1.0931 -0.1872
   16MOL   H117 2847   4.182   0.052   2.129  0.2259  1.1673 -1.3468
   16MOL   H118 2848   3.784   0.123   2.125  0.4779  0.8161  1.1359
   16MOL   C119 2849   4.132   0.220   2.018  0.1080 -0.0679  0.6468
   16MOL   C120 2850   4.236   0.294   2.106 -0.1301  0.4332 -0.1380
   16MOL   C121 2851   4.174   0.330   2.245  0.4039 -0.9736  0.0830
   16MOL   O122 2852   4.069   0.395   2.265 -0.6301 -0.0332 -0.4817
   16MOL   O123 2853   4.253   0.285   2.351 -0.2189  0.1396  0.0087
   16MOL   H124 2854   4.047   0.287   2.011 -1.0449 -1.4481  1.1853
   16MOL   H125 2855   4.162   0.202   1.915 -1.8515 -1.6993  0.3347
   16MOL   H126 2856   4.326   0.232   2.102 -1.3242 -1.2900 -1.1092
   16MOL   H127 2857   4.234   0.326   2.434  0.0224 -0.3880  0.3285
   16MOL   C128 2858   4.286   0.430   2.045  0.2552  0.4806 -0.3109
   16MOL   C129 2859   4.341   0.434   1.903  0.9610  0.5929  0.0898
   16MOL   C130 2860   4.473   0.350   1.888  0.6020  0.3430 -0.8600
   16MOL   O131 2861   4.483   0.236   1.835  0.6503 -0.0611 -0.4485
   16MOL   O132 2862   4.583   0.416   1.926 -0.2260  0.0255 -0.5258
   16MOL   H133 2863   4.364   0.469   2.110  1.4814 -1.5773 -0.5033
   16MOL   H134 2864   4.202   0.500   2.043 -0.7917 -0.7623 -0.4419
   16MOL   H135 2865   4.278   0.371   1.840  0.4534 -0.5350  1.6953
   16MOL   H136 2866   4.657   0.362   1.906  0.7519  0.3216  2.0997
   16MOL   C137 2867   4.347   0.580   1.836  0.0555 -0.6101  0.3793
   16MOL   C138 2868   4.216   0.646   1.789 -0.3897  0.0154  0.2150
   16MOL   C139 2869   4.157   0.739   1.898  0.2024  0.4427  0.4409
   16MOL   O140 2870   4.206   0.756   2.008  0.2272  0.0167  0.0893
   16MOL   O141 2871   4.049   0.806   1.858  0.2746 -0.1515 -0.3268
   16MOL   H142 2872   4.413   0.568   1.750 -1.2738  1.6032 -0.9665
   16MOL   H143 2873   4.400   0.641   1.909  0.8654 -1.3542  0.4232
   16MOL   H144 2874   4.253   0.712   1.710  1.8020 -2.0193 -0.5232
   16MOL   H145 2875   4.024   0.873   1.920  1.7138 -0.1139  0.2178
   16MOL   C146 2876   4.107   0.561   1.709  0.1393 -0.3371  1.0034
   16MOL   C147 2877   4.165   0.485   1.582 -0.3406 -0.0725 -0.2616
   16MOL   C148 2878   4.228   0.579   1.484  0.4063  0.7569  0.1608
   16MOL   O149 2879   4.348   0.607   1.484 -0.0235 -0.2996 -0.0238
   16MOL   O150 2880   4.131   0.625   1.398 -0.1462  0.4732 -0.2055
   16MOL   H151 2881   4.029   0.631   1.677  0.7998 -0.1365 -0.2056
   16MOL   H152 2882   4.068   0.489   1.781 -0.2730  0.4216  1.5457
   16MOL   H153 2883   4.253   0.439   1.627  0.6460  1.2414 -0.7814
   16MOL   H154 2884   4.169   0.667   1.322  1.7248 -1.6796 -0.4841
   16MOL   C155 2885   4.056   0.387   1.523 -0.0941 -0.9299 -0.6849
   16MOL   C156 2886   4.053   0.242   1.569  0.2637 -0.1142 -0.3347
   16MOL   C157 2887   4.181   0.161   1.559 -0.4691 -0.1435  0.4940
   16MOL   O158 2888   4.285   0.205   1.506 -0.6186 -0.6253 -0.3928
   16MOL   O159 2889   4.168   0.046   1.626 -0.0656 -0.0922  0.3521
   16MOL   H160 2890   4.067   0.394   1.415  0.9986  0.9634 -0.4788
   16MOL   H161 2891   3.964   0.443   1.541  1.0060  1.0054 -0.8770
   16MOL   H162 2892   4.036   0.247   1.677 -0.9821  3.2350 -0.6289
   16MOL   H163 2893   4.250   0.000   1.624 -0.1001 -0.2623  1.8168
   16MOL   C164 2894   3.947   0.158   1.497 -0.1304 -0.2506  0.0053
   16MOL   C165 2895   3.807   0.146   1.567  0.1212  0.3255  0.5506
   16MOL   C166 2896   3.799   0.040   1.671  0.1157  0.1780 -0.1425
   16MOL   O167 2897   3.761   0.057   1.784  0.1656  0.7974 -0.2452
   16MOL   O168 2898   3.832   7.769   1.627 -0.6293  1.0851 -0.2424
   16MOL   H169 2899   3.985   0.062   1.461  2.4662  0.5011  0.6683
   16MOL   H170 2900   3.936   0.214   1.404 -1.8147 -1.0908 -0.3307
   16MOL   H171 2901   3.789   0.244   1.613  1.5654  1.6297 -1.5740
   16MOL   H172 2902   3.825   7.708   1.698 -0.2014 -0.0918 -1.2020
   16MOL   C173 2903   3.692   0.149   1.462 -0.2747  0.3889 -0.4621
   16MOL   C174 2904   3.548   0.138   1.514  0.6141  0.4423 -0.1160
   16MOL   C175 2905   3.444   0.183   1.420 -0.6702 -0.0808 -0.0190
   16MOL   O176 2906   3.461   0.203   1.299  0.5371  0.1434 -0.2916
   16MOL   O177 2907   3.321   0.166   1.477 -0.2246  0.8034 -0.0722
   16MOL   H178 2908   3.695   0.062   1.395 -1.7706 -0.7100  0.8801
   16MOL   H179 2909   3.705   0.240   1.403  0.6920  0.6660  0.1661
   16MOL   H180 2910   3.522   0.036   1.540 -0.5997  0.9234  0.5567
   16MOL   H181 2911   3.257   0.181   1.410 -0.0322  0.9856 -0.2158
   16MOL   H182 2912   3.534   0.186   1.610  0.9049 -1.2158  0.7769
   17MOL     C1 2913   3.079   1.236   0.775 -0.3958  0.1807  0.4764
   17MOL     C2 2914   3.140   1.121   0.684 -0.6805  0.5478  0.2592
   17MOL     C3 2915   3.096   1.128   0.537 -0.0214 -0.0302 -0.3212
   17MOL     O4 2916   3.060   1.037   0.470  0.0920 -0.0437 -0.0355
   17MOL     O5 2917   3.110   1.255   0.493 -0.4226  0.5339  0.7146
   17MOL     H6 2918   2.971   1.224   0.766 -0.3408  0.5191 -0.7819
   17MOL     H7 2919   3.113   1.243   0.878  2.1867 -0.9873 -0.2616
   17MOL     H8 2920   3.249   1.121   0.693 -0.6618  0.6605  0.0291
   17MOL     H9 2921   3.077   1.263   0.405 -1.4704 -1.9336  0.8698
   17MOL    H10 2922   3.101   1.337   0.741 -1.4768  0.4363  0.5397
   17MOL    C11 2923   3.093   0.988   0.744  0.0141  0.3834  0.0955
   17MOL    C12 2924   3.143   0.958   0.890 -0.8107 -0.2654 -0.5643
   17MOL    C13 2925   3.297   0.961   0.906 -0.4491  0.2742 -0.2192
   17MOL    O14 2926   3.355   1.027   0.988  0.1630  0.3929  0.5883
   17MOL    O15 2927   3.359   0.884   0.806 -0.1372 -0.3242 -0.3449
   17MOL    H16 2928   3.124   0.901   0.687 -1.0920  0.9996 -1.4646
   17MOL    H17 2929   2.984   0.985   0.753  0.0669 -3.1587  0.0951
   17MOL    H18 2930   3.110   1.041   0.952 -0.6517 -1.0541  0.5867
   17MOL    H19 2931   3.445   0.911   0.834 -1.1505  1.4508  1.2425
   17MOL    C20 2932   3.095   0.825   0.949  0.4026  0.5922  0.4439
   17MOL    C21 2933   2.942   0.823   0.983 -0.7901  0.4811  0.0038
   17MOL    C22 2934   2.912   0.924   1.086 -0.0030  0.0859  0.1684
   17MOL    O23 2935   2.963   0.923   1.197  0.3794 -0.2389 -0.0457
   17MOL    O24 2936   2.822   1.009   1.032 -0.9362 -0.5478  0.6628
   17MOL    H25 2937   3.156   0.802   1.037 -0.0391 -0.5005  0.4801
   17MOL    H26 2938   3.112   0.748   0.873 -1.8670  0.8831 -0.4144
   17MOL    H27 2939   2.878   0.829   0.895 -1.1571 -0.5195  0.1878
   17MOL    H28 2940   2.788   0.986   0.947 -1.0563 -0.9313  0.8098
   17MOL    C29 2941   2.913   0.682   1.037 -0.4707  0.3679 -0.0549
   17MOL    C30 2942   2.770   0.652   1.084  0.7146  0.0953 -0.0561
   17MOL    C31 2943   2.784   0.543   1.198  0.3382 -0.2106 -0.3964
   17MOL    O32 2944   2.871   0.458   1.200  0.2591  0.4145  0.0598
   17MOL    O33 2945   2.685   0.555   1.293  0.0258 -0.1157  0.1875
   17MOL    H34 2946   2.984   0.656   1.115  0.8530 -0.1824 -1.4277
   17MOL    H35 2947   2.926   0.623   0.946 -1.3781  1.7133 -1.0828
   17MOL    H36 2948   2.736   0.745   1.129 -0.3930 -0.7252  0.8163
   17MOL    H37 2949   2.707   0.483   1.350  1.3431 -0.5731 -0.8539
   17MOL    C38 2950   2.680   0.608   0.967  0.3801  0.2442  0.6908
   17MOL    C39 2951   2.528   0.594   0.980 -0.8701 -0.1169  0.4297
   17MOL    C40 2952   2.475   0.725   1.046  0.1091  0.2946  0.1185
   17MOL    O41 2953   2.374   0.731   1.117  0.1734 -0.3268 -0.2454
   17MOL    O42 2954   2.528   0.835   0.988 -0.3371  0.2548 -0.8161
   17MOL    H43 2955   2.730   0.513   0.944 -1.6615 -0.2241 -1.9901
   17MOL    H44 2956   2.709   0.669   0.881 -0.4688 -0.1522  0.1146
   17MOL    H45 2957   2.499   0.593   0.875  2.7897 -1.8615 -0.6622
   17MOL    H46 2958   2.493   0.912   1.028  0.2894  0.8721 -1.4391
   17MOL    C47 2959   2.466   0.469   1.044  0.0016  0.6541 -0.1338
   17MOL    C48 2960   2.491   0.327   0.980 -0.0120 -0.1758 -0.1874
   17MOL    C49 2961   2.635   0.278   0.989 -0.4387  0.4314 -0.1545
   17MOL    O50 2962   2.711   0.261   0.892  0.1668  0.1428  0.1466
   17MOL    O51 2963   2.673   0.254   1.115  0.1784  0.0297 -0.5257
   17MOL    H52 2964   2.359   0.487   1.054  0.0697  1.2555 -0.4212
   17MOL    H53 2965   2.515   0.470   1.141 -0.4936 -1.9654  0.1836
   17MOL    H54 2966   2.428   0.266   1.046 -0.7966  1.2056  0.3762
   17MOL    H55 2967   2.763   0.227   1.123 -0.0792 -1.3649 -2.0326
   17MOL    C56 2968   2.450   0.324   0.837 -0.0437 -0.7573  0.0843
   17MOL    C57 2969   2.429   0.183   0.763  0.6390 -0.6520 -0.4902
   17MOL    C58 2970   2.517   0.182   0.636 -0.3832  0.2945  0.5698
   17MOL    O59 2971   2.483   0.138   0.522  0.0602 -0.0060 -0.3868
   17MOL    O60 2972   2.643   0.227   0.648  0.4100  0.3897 -0.4379
   17MOL    H61 2973   2.512   0.388   0.773 -2.5254  1.0507 -0.5904
   17MOL    H62 2974   2.362   0.388   0.838  1.0085  0.7245 -0.1733
   17MOL    H63 2975   2.474   0.107   0.827 -0.8743  0.6419  2.2247
   17MOL    H64 2976   2.673   0.230   0.738 -0.6467 -1.5627  0.0210
   17MOL    C65 2977   2.286   0.139   0.744  0.1284 -0.0511 -0.1662
   17MOL    C66 2978   2.231   0.055   0.870 -0.7036 -0.3689  0.0298
   17MOL    C67 2979   2.204   0.136   0.998 -0.9245  0.2360 -0.3188
   17MOL    O68 2980   2.201   0.085   1.110 -0.3966  0.7828  0.0782
   17MOL    O69 2981   2.180   0.271   0.974  0.2340 -0.1494  0.2515
   17MOL    H70 2982   2.268   0.078   0.656 -2.5913  0.9569 -0.3572
   17MOL    H71 2983   2.232   0.231   0.721  1.1096  0.2550 -1.3447
   17MOL    H72 2984   2.129   0.040   0.832 -0.0288  1.0687 -2.5202
   17MOL    H73 2985   2.176   0.327   1.050  0.6298 -1.1168  0.9997
   17MOL    C74 2986   2.294   7.766   0.895 -0.1820 -0.8336 -0.2991
   17MOL    C75 2987   2.276   7.657   0.786  0.4336  0.1199 -0.0052
   17MOL    C76 2988   2.144   7.581   0.771  0.2342 -0.1915 -0.1324
   17MOL    O77 2989   2.055   7.576   0.860  0.0892  0.0440 -0.2668
   17MOL    O78 2990   2.135   7.516   0.654 -0.1658  0.4747 -0.6267
   17MOL    H79 2991   2.271   7.729   0.995 -1.4405  2.2813  0.6168
   17MOL    H80 2992   2.401   7.778   0.916 -0.8425  0.8482  2.4498
   17MOL    H81 2993   2.296   7.701   0.688  2.3538  0.0818  0.3423
   17MOL    H82 2994   2.048   7.484   0.636  0.0180 -0.4057 -0.0205
   17MOL    C83 2995   2.405   7.568   0.789 -0.2854  0.4644 -0.3794
   17MOL    C84 2996   2.455   7.495   0.917 -0.4508 -0.6256 -0.1739
   17MOL    C85 2997   2.603   7.462   0.896 -0.0589  0.4512 -0.4933
   17MOL    O86 2998   2.691   7.541   0.918  0.4936  0.3364  0.1349
   17MOL    O87 2999   2.630   7.338   0.846  0.1769 -0.0297  0.1727
   17MOL    H88 3000   2.486   7.631   0.754 -0.6853  1.4583  0.4214
   17MOL    H89 3001   2.392   7.488   0.717 -1.0151 -0.6121  0.9099
   17MOL    H90 3002   2.448   7.567   0.999 -1.3495 -0.2265 -0.5893
   17MOL    H91 3003   2.724   7.342   0.834  0.1310  0.5170 -0.0196
   17MOL    C92 3004   2.372   7.373   0.965  0.4129  0.4126  0.3829
   17MOL    C93 3005   2.429   7.312   1.093 -0.3303  0.7926 -0.9332
   17MOL    C94 3006   2.402   7.158   1.087  0.2929 -0.6670  0.5764
   17MOL    O95 3007   2.484   7.082   1.043 -0.1765 -0.8625  0.1301
   17MOL    O96 3008   2.284   7.120   1.142 -0.3152  0.4329  0.0938
   17MOL    H97 3009   2.357   7.312   0.876  1.8712 -0.8309  0.9647
   17MOL    H98 3010   2.276   7.423   0.979  1.0093  2.5608 -2.7514
   17MOL    H99 3011   2.538   7.309   1.093 -0.3412 -0.4334  0.6856
   17MOL   H100 3012   2.272   7.026   1.141  2.1062  0.0940  0.5175
   17MOL   C101 3013   2.372   7.384   1.219 -0.4175 -0.1747 -0.4974
   17MOL   C102 3014   2.443   7.357   1.353 -0.0836  0.1185 -0.3916
   17MOL   C103 3015   2.431   7.212   1.397  0.2757 -0.1520 -0.0054
   17MOL   O104 3016   2.322   7.161   1.417  0.7927  0.0113  0.6939
   17MOL   O105 3017   2.549   7.148   1.420 -0.3797 -0.3125  0.1097
   17MOL   H106 3018   2.268   7.355   1.235 -0.2330 -2.3416 -2.9307
   17MOL   H107 3019   2.375   7.493   1.207 -0.8409  0.0525  1.3800
   17MOL   H108 3020   2.544   7.377   1.317  0.6586 -2.1071  0.4030
   17MOL   H109 3021   2.540   7.056   1.440  1.2918 -0.3372  0.8367
   17MOL   C110 3022   2.414   7.447   1.473 -0.4325  0.4060 -0.4377
   17MOL   C111 3023   2.524   7.437   1.582  0.2883  0.2739  0.7791
   17MOL   C112 3024   2.482   7.488   1.720 -0.4463  0.4127  0.0930
   17MOL   O113 3025   2.461   7.413   1.818 -0.1303  0.5213  0.0642
   17MOL   O114 3026   2.479   7.620   1.724 -0.1699  0.2384 -0.3684
   17MOL   H115 3027   2.317   7.413   1.510 -0.7580 -0.3793 -1.9760
   17MOL   H116 3028   2.403   7.551   1.440 -1.7644  0.3185 -0.3231
   17MOL   H117 3029   2.530   7.329   1.600 -2.4600 -0.1237 -0.4629
   17MOL   H118 3030   2.444   7.633   1.811  0.2562  1.6003 -0.3925
   17MOL   C119 3031   2.666   7.487   1.545 -0.3917 -0.0226  0.2959
   17MOL   C120 3032   2.779   7.386   1.575  0.2158 -0.0877  0.8873
   17MOL   C121 3033   2.827   7.390   1.723 -0.1707 -1.0374  0.1465
   17MOL   O122 3034   2.846   7.489   1.794 -0.1913 -0.2188  0.4592
   17MOL   O123 3035   2.839   7.266   1.777 -0.2604  0.4862 -0.0383
   17MOL   H124 3036   2.695   7.576   1.601 -1.5015  1.1996 -1.0412
   17MOL   H125 3037   2.668   7.519   1.441 -2.1574 -1.1406 -0.1137
   17MOL   H126 3038   2.735   7.288   1.553 -0.5397  0.9135 -2.3857
   17MOL   H127 3039   2.876   7.271   1.864  0.1659 -0.2669 -0.1707
   17MOL   C128 3040   2.900   7.408   1.482 -0.3185 -0.0318  0.3113
   17MOL   C129 3041   2.889   7.362   1.329 -0.3827 -0.1858 -0.5081
   17MOL   C130 3042   2.859   7.211   1.311  0.2013 -0.0737  0.2818
   17MOL   O131 3043   2.874   7.122   1.398 -0.4045 -0.1654  0.1783
   17MOL   O132 3044   2.806   7.194   1.187 -0.1786  0.2916 -0.1594
   17MOL   H133 3045   2.990   7.354   1.511 -0.9834 -2.0827 -1.3371
   17MOL   H134 3046   2.939   7.509   1.485 -2.8900  0.9778  1.7713
   17MOL   H135 3047   2.808   7.412   1.275  0.5848  2.9991  0.8921
   17MOL   H136 3048   2.800   7.100   1.174  2.6912 -0.2784  2.2034
   17MOL   C137 3049   3.021   7.401   1.261 -0.0903 -0.5597 -0.6141
   17MOL   C138 3050   3.003   7.463   1.120  0.4243  0.5815 -0.0233
   17MOL   C139 3051   2.996   7.361   1.002 -0.4606 -0.4661 -0.2975
   17MOL   O140 3052   2.909   7.356   0.921 -0.3168 -0.1794 -0.4880
   17MOL   O141 3053   3.106   7.290   0.991 -0.0294  0.4699 -0.1156
   17MOL   H142 3054   3.086   7.313   1.266 -0.9026 -1.0394  2.0317
   17MOL   H143 3055   3.065   7.475   1.327 -1.3624 -3.1409  3.2541
   17MOL   H144 3056   2.909   7.517   1.120 -0.0242 -0.1990 -0.8672
   17MOL   H145 3057   3.094   7.221   0.928 -0.6464  0.7049 -0.2541
   17MOL   C146 3058   3.107   7.576   1.100 -0.7091  0.3004  0.3501
   17MOL   C147 3059   3.063   7.717   1.050  1.3596 -0.5704 -0.2348
   17MOL   C148 3060   3.022   7.715   0.910  0.2499  0.2146  0.1479
   17MOL   O149 3061   3.104   7.693   0.823  0.1251  0.3079  0.5346
   17MOL   O150 3062   2.889   7.740   0.895 -0.0943 -0.3500  0.1143
   17MOL   H151 3063   3.170   7.541   1.019 -1.8881 -1.2851  0.0944
   17MOL   H152 3064   3.161   7.592   1.193  0.1648 -1.7909  0.2268
   17MOL   H153 3065   2.972   7.751   1.100  1.7223  0.6066 -0.3482
   17MOL   H154 3066   2.866   7.755   0.805 -1.3868 -1.1550  0.2965
   17MOL   C155 3067   3.171   7.817   1.091  0.2247 -0.2633 -0.5267
   17MOL   C156 3068   3.152   0.117   1.087  0.2694 -0.0947  0.4351
   17MOL   C157 3069   3.043   0.160   1.192  0.1327 -0.2488 -0.0307
   17MOL   O158 3070   2.922   0.166   1.172  0.4396  0.1036 -0.6955
   17MOL   O159 3071   3.100   0.184   1.316 -0.3210 -0.7022  0.5145
   17MOL   H160 3072   3.263   7.785   1.041  0.5695 -1.0107  0.5529
   17MOL   H161 3073   3.193   7.797   1.196 -0.1412 -0.8013 -0.5496
   17MOL   H162 3074   3.240   0.178   1.109  0.3736  1.3012 -3.5829
   17MOL   H163 3075   3.030   0.191   1.378 -1.4274 -3.0131 -0.4062
   17MOL   C164 3076   3.107   0.164   0.943  0.6782  0.3498 -1.2331
   17MOL   C165 3077   3.128   0.315   0.908 -0.0188 -0.4233  0.5029
   17MOL   C166 3078   3.045   0.349   0.784  0.3175 -0.4007 -0.2889
   17MOL   O167 3079   2.984   0.456   0.775 -0.1724 -0.7007  0.1122
   17MOL   O168 3080   3.055   0.263   0.682  0.3915 -0.2760 -0.5394
   17MOL   H169 3081   3.001   0.145   0.932  0.4290  1.9998 -1.7390
   17MOL   H170 3082   3.160   0.126   0.856 -2.4763 -0.2857 -2.9448
   17MOL   H171 3083   3.083   0.378   0.985  0.5944 -0.2499  0.7197
   17MOL   H172 3084   3.016   0.283   0.598  0.6964 -2.3690 -1.2056
   17MOL   C173 3085   3.276   0.354   0.897 -0.2263  0.5337 -0.3837
   17MOL   C174 3086   3.292   0.506   0.881  0.0848  0.8468  0.0992
   17MOL   C175 3087   3.441   0.550   0.877  0.1483 -0.9115  0.1810
   17MOL   O176 3088   3.503   0.564   0.770  0.2578 -0.2783 -0.0242
   17MOL   O177 3089   3.489   0.569   1.002  0.0899  0.3252 -0.2722
   17MOL   H178 3090   3.302   0.299   0.807  4.5537 -1.0372  1.7450
   17MOL   H179 3091   3.337   0.310   0.977  2.2210 -1.0532 -3.0154
   17MOL   H180 3092   3.245   0.546   0.792  0.2177 -0.5363 -0.5975
   17MOL   H181 3093   3.571   0.615   1.007 -0.1319  0.9609 -2.1640
   17MOL   H182 3094   3.259   0.568   0.965  0.9414  0.8519  0.4413
   18MOL     C1 3095   4.867   6.850   7.148 -0.4009 -0.5121 -0.0930
   18MOL     C2 3096   4.837   6.697   7.111 -0.1820  0.5304 -0.6922
   18MOL     C3 3097   4.803   6.606   7.221 -0.0841  0.3025 -0.4584
   18MOL     O4 3098   4.748   6.504   7.194 -0.3907  0.2071  0.4455
   18MOL     O5 3099   4.866   6.638   7.336 -0.4270  0.9023  0.0970
   18MOL     H6 3100   4.972   6.859   7.175  0.1481  0.2342 -2.3360
   18MOL     H7 3101   4.847   6.910   7.059 -1.7786 -0.3814  0.2966
   18MOL     H8 3102   4.739   6.696   7.063 -1.5072  0.9050  1.9095
   18MOL     H9 3103   4.842   6.576   7.404 -0.6823  3.1477  2.1354
   18MOL    H10 3104   4.801   6.892   7.224 -2.8463 -3.0266 -0.7355
   18MOL    C11 3105   4.942   6.634   7.008 -0.5632  0.3308 -0.2755
   18MOL    C12 3106   4.978   6.723   6.880  0.0043 -0.4663 -0.1686
   18MOL    C13 3107   4.860   6.738   6.787  0.3099  0.7294 -0.5834
   18MOL    O14 3108   4.786   6.838   6.794 -0.2632  0.3215 -0.5079
   18MOL    O15 3109   4.841   6.629   6.707  0.0844 -0.2939  0.0562
   18MOL    H16 3110   4.899   6.545   6.962  0.0218 -0.5055  0.7932
   18MOL    H17 3111   5.036   6.613   7.058 -1.2870 -3.2878 -0.2820
   18MOL    H18 3112   4.996   6.828   6.904 -2.8608  0.0357 -0.0859
   18MOL    H19 3113   4.757   6.629   6.664  1.3836 -1.2671 -2.6549
   18MOL    C20 3114   5.113   6.663   6.814  0.4846 -0.6291 -0.2411
   18MOL    C21 3115   5.255   6.701   6.868  1.1120  0.6616 -0.4874
   18MOL    C22 3116   5.270   6.851   6.844 -0.3659  0.6818 -0.0798
   18MOL    O23 3117   5.295   6.903   6.738  0.1462 -0.5086 -0.5611
   18MOL    O24 3118   5.268   6.918   6.958 -0.2274 -0.2013 -0.5900
   18MOL    H25 3119   5.100   6.669   6.706  0.7334  0.6427 -0.2053
   18MOL    H26 3120   5.103   6.555   6.821  0.4162 -0.5870  0.3466
   18MOL    H27 3121   5.261   6.679   6.975 -0.7603  1.2311 -0.2430
   18MOL    H28 3122   5.287   7.010   6.948 -1.4077  0.1393  0.2016
   18MOL    C29 3123   5.366   6.625   6.790  0.6008 -0.0613  0.2488
   18MOL    C30 3124   5.487   6.579   6.877 -0.2914  0.5752  0.1802
   18MOL    C31 3125   5.450   6.494   7.000  0.3426 -0.1718 -0.0223
   18MOL    O32 3126   5.419   6.544   7.112 -0.3498 -0.2599 -0.0582
   18MOL    O33 3127   5.420   6.365   6.968  0.6271  0.1852 -0.2380
   18MOL    H34 3128   5.404   6.672   6.699  0.2911 -1.3582 -0.5788
   18MOL    H35 3129   5.316   6.532   6.761  0.2913  1.2702 -3.7480
   18MOL    H36 3130   5.555   6.526   6.811 -0.3537  0.8168 -0.0773
   18MOL    H37 3131   5.406   6.312   7.045 -1.3075  0.7774 -0.1691
   18MOL    C38 3132   5.573   6.701   6.917 -0.4625  0.6508 -0.1645
   18MOL    C39 3133   5.658   6.773   6.813 -0.7741  0.5505  0.2510
   18MOL    C40 3134   5.782   6.688   6.760 -0.3970 -0.9081 -0.3451
   18MOL    O41 3135   5.816   6.582   6.809 -0.5370  0.0967  0.6568
   18MOL    O42 3136   5.851   6.751   6.659  0.2823 -0.0865  1.0163
   18MOL    H43 3137   5.638   6.670   6.999  1.0118 -0.7111 -1.7931
   18MOL    H44 3138   5.512   6.778   6.964 -0.7711  1.1227 -1.3041
   18MOL    H45 3139   5.599   6.793   6.723 -0.1820  1.0929 -0.0198
   18MOL    H46 3140   5.922   6.696   6.630 -0.5718 -0.6478 -0.0427
   18MOL    C47 3141   5.703   6.908   6.863  1.0077 -0.2184  0.1215
   18MOL    C48 3142   5.798   6.926   6.974 -0.1792  1.1148 -0.4037
   18MOL    C49 3143   5.741   6.895   7.113 -0.1540  0.4324 -0.4535
   18MOL    O50 3144   5.796   6.832   7.202  0.5437 -0.5093 -0.6104
   18MOL    O51 3145   5.628   6.968   7.137 -0.4078 -0.0350 -0.6924
   18MOL    H52 3146   5.612   6.967   6.874 -1.0014 -2.6953 -2.4000
   18MOL    H53 3147   5.749   6.964   6.781  0.4767  1.2956  0.8429
   18MOL    H54 3148   5.884   6.860   6.969 -1.3735 -0.5378  0.3807
   18MOL    H55 3149   5.602   6.965   7.228 -0.7643 -1.4779 -0.8367
   18MOL    C56 3150   5.869   7.062   6.979 -0.0095 -0.3477 -0.4820
   18MOL    C57 3151   6.024   7.062   7.007 -0.2607 -0.0842 -0.1555
   18MOL    C58 3152   6.056   7.024   7.156  0.2925 -0.2104 -0.1703
   18MOL    O59 3153   6.087   6.913   7.189  0.0591  0.9227 -0.7776
   18MOL    O60 3154   6.051   7.131   7.236  0.0648  0.2356 -0.5642
   18MOL    H61 3155   5.824   7.132   7.050 -1.3949 -1.1303 -0.5690
   18MOL    H62 3156   5.854   7.119   6.887  0.2046 -1.7771 -1.4078
   18MOL    H63 3157   6.067   6.987   6.941  0.0076  0.7842 -0.9818
   18MOL    H64 3158   6.092   7.109   7.318 -1.7459 -0.2437  0.2499
   18MOL    C65 3159   6.099   7.192   6.955 -0.3864  0.0382 -0.2360
   18MOL    C66 3160   6.075   7.243   6.813  0.3061  0.2139  0.2824
   18MOL    C67 3161   6.092   7.124   6.713  0.3925  0.8083 -0.2634
   18MOL    O68 3162   6.185   7.049   6.720  0.3862 -0.0089 -0.4336
   18MOL    O69 3163   5.983   7.112   6.634  0.4262 -0.3381  0.1096
   18MOL    H70 3164   6.206   7.173   6.958 -0.5269 -0.7511  0.2027
   18MOL    H71 3165   6.078   7.275   7.022  1.9413 -0.1932  0.8603
   18MOL    H72 3166   5.971   7.271   6.794  0.5014  0.3375 -0.6396
   18MOL    H73 3167   5.990   7.025   6.597  1.4928 -0.7239  1.1936
   18MOL    C74 3168   6.163   7.361   6.766  0.3374  0.0897 -0.1929
   18MOL    C75 3169   6.134   7.500   6.838 -0.8981 -0.0011  0.6113
   18MOL    C76 3170   6.188   7.505   6.979  0.5033 -0.3245  0.8859
   18MOL    O77 3171   6.123   7.540   7.079 -0.3171  0.6287 -0.3361
   18MOL    O78 3172   6.323   7.483   6.988 -0.2039 -0.2449  0.3223
   18MOL    H79 3173   6.165   7.366   6.657  0.2685 -2.4806 -0.3509
   18MOL    H80 3174   6.263   7.324   6.789  0.9396  2.2750  0.8848
   18MOL    H81 3175   6.197   7.575   6.789 -1.5453 -0.1472 -0.4575
   18MOL    H82 3176   6.348   7.477   7.079  1.0463 -1.1126 -0.0784
   18MOL    C83 3177   5.995   7.563   6.824 -0.1476 -0.2375 -0.4588
   18MOL    C84 3178   5.936   7.598   6.683  0.5330 -0.1845  0.0720
   18MOL    C85 3179   6.010   7.713   6.609  0.0331 -0.2013 -0.0839
   18MOL    O86 3180   6.047   7.814   6.664 -0.2866 -0.2850 -0.2271
   18MOL    O87 3181   6.033   7.677   6.480 -0.2746  0.4617 -0.0169
   18MOL    H88 3182   5.998   7.656   6.882  0.4295 -1.5084  1.6110
   18MOL    H89 3183   5.926   7.501   6.881  0.0773 -1.4396 -1.4896
   18MOL    H90 3184   5.954   7.510   6.620  0.8104 -0.1783  0.1407
   18MOL    H91 3185   6.088   7.733   6.427  0.0221  1.1852  1.0399
   18MOL    C92 3186   5.785   7.628   6.678 -0.4490 -0.4289  0.3406
   18MOL    C93 3187   5.689   7.541   6.761 -0.1535  0.1557 -0.0126
   18MOL    C94 3188   5.712   7.383   6.750  0.2251  0.1786  0.6565
   18MOL    O95 3189   5.707   7.307   6.847  0.0288 -0.6378 -0.0715
   18MOL    O96 3190   5.739   7.355   6.619  0.0297 -0.0506  0.1574
   18MOL    H97 3191   5.769   7.629   6.570 -2.9796  1.4641  0.7075
   18MOL    H98 3192   5.764   7.727   6.717  3.4735 -0.0183  1.6309
   18MOL    H99 3193   5.717   7.560   6.865 -1.2893 -1.4826  0.6122
   18MOL   H100 3194   5.749   7.265   6.593  0.4675  0.4007 -1.2907
   18MOL   C101 3195   5.540   7.563   6.740 -0.0103  0.1736  0.7010
   18MOL   C102 3196   5.473   7.541   6.595  0.4627  0.4625  0.5239
   18MOL   C103 3197   5.440   7.679   6.543  0.3261 -0.3867  0.9147
   18MOL   O104 3198   5.336   7.744   6.563  0.3698  0.3331  1.1156
   18MOL   O105 3199   5.544   7.734   6.481 -0.3419  0.1323  0.5900
   18MOL   H106 3200   5.527   7.666   6.774  2.9000  0.5301  0.8505
   18MOL   H107 3201   5.468   7.517   6.807 -2.0788  2.1006 -0.1307
   18MOL   H108 3202   5.547   7.496   6.528  0.9512 -0.2151  1.5077
   18MOL   H109 3203   5.535   7.827   6.468 -0.4397  0.3294  1.9745
   18MOL   C110 3204   5.341   7.461   6.579 -0.0736  1.0742 -0.2914
   18MOL   C111 3205   5.361   7.310   6.607 -0.1477  0.3804 -0.4989
   18MOL   C112 3206   5.415   7.239   6.481  0.5914 -0.2262  0.6072
   18MOL   O113 3207   5.423   7.286   6.368  0.2086 -0.1368  0.0452
   18MOL   O114 3208   5.438   7.112   6.509 -0.6348 -0.3698 -0.8095
   18MOL   H115 3209   5.290   7.470   6.483  1.3246 -1.2016 -1.2981
   18MOL   H116 3210   5.269   7.500   6.651 -0.7793  1.3846 -1.1537
   18MOL   H117 3211   5.433   7.300   6.689 -1.1113  1.3426  0.4919
   18MOL   H118 3212   5.446   7.059   6.431  3.1086  0.0537 -0.8348
   18MOL   C119 3213   5.227   7.246   6.660  0.1897  0.4589  0.0258
   18MOL   C120 3214   5.168   7.279   6.799  0.4471  0.0319  0.1258
   18MOL   C121 3215   5.261   7.274   6.921 -0.8355  0.2533  0.2946
   18MOL   O122 3216   5.313   7.168   6.960 -0.0474  0.1216 -0.5918
   18MOL   O123 3217   5.277   7.393   6.988  0.3033 -0.6958 -0.1005
   18MOL   H124 3218   5.237   7.139   6.648  0.3451  0.6126 -1.3016
   18MOL   H125 3219   5.150   7.284   6.592  0.1329  1.7434  0.7886
   18MOL   H126 3220   5.143   7.386   6.795  0.1301 -0.1019 -4.0187
   18MOL   H127 3221   5.335   7.365   7.056  0.2488  1.4755  0.8794
   18MOL   C128 3222   5.048   7.177   6.811 -0.5189 -0.4038  0.1930
   18MOL   C129 3223   4.909   7.245   6.838  0.8303 -0.3943 -0.3087
   18MOL   C130 3224   4.875   7.347   6.732  0.1125  0.0501 -0.0004
   18MOL   O131 3225   4.850   7.460   6.766  0.3749 -0.3656  0.4839
   18MOL   O132 3226   4.892   7.299   6.604  0.1804 -0.6843  0.0638
   18MOL   H133 3227   5.056   7.109   6.896  0.2241 -0.6690 -0.0858
   18MOL   H134 3228   5.023   7.107   6.731 -2.3487  0.3127  0.1083
   18MOL   H135 3229   4.831   7.172   6.817 -0.4627  0.4227  1.5313
   18MOL   H136 3230   4.878   7.372   6.545  0.9105 -0.3351  0.3199
   18MOL   C137 3231   4.897   7.296   6.989 -0.1385 -0.3925  0.2941
   18MOL   C138 3232   4.752   7.317   7.044  0.5875 -0.1184 -0.0284
   18MOL   C139 3233   4.735   7.453   7.107  0.3738  0.4484  0.4944
   18MOL   O140 3234   4.813   7.499   7.186  0.2680  0.2035  0.0901
   18MOL   O141 3235   4.611   7.511   7.074 -0.0602 -0.1778 -0.4433
   18MOL   H142 3236   4.952   7.390   6.997 -0.5702  0.0412 -1.6010
   18MOL   H143 3237   4.960   7.231   7.049 -0.2523 -2.3120 -1.6124
   18MOL   H144 3238   4.685   7.328   6.959  1.7965  1.3568 -0.8140
   18MOL   H145 3239   4.590   7.596   7.111 -1.9263 -1.2881  1.1025
   18MOL   C146 3240   4.697   7.203   7.125  0.6480 -0.0659  1.0151
   18MOL   C147 3241   4.545   7.204   7.162 -0.1830  0.5154 -0.4917
   18MOL   C148 3242   4.497   7.100   7.261 -0.7083  0.0151  0.3342
   18MOL   O149 3243   4.560   6.998   7.283  0.4537  0.3229  0.0267
   18MOL   O150 3244   4.371   7.131   7.310 -0.2649 -0.1999 -0.4807
   18MOL   H151 3245   4.759   7.214   7.215  0.9567  1.6261  0.6039
   18MOL   H152 3246   4.725   7.108   7.080  0.3341 -0.4908  1.7055
   18MOL   H153 3247   4.516   7.290   7.223 -2.4696 -0.9767  0.5917
   18MOL   H154 3248   4.344   7.216   7.279  0.6408  0.2473 -0.0882
   18MOL   C155 3249   4.456   7.206   7.035 -0.1385  0.0649  0.0602
   18MOL   C156 3250   4.409   7.079   6.952 -0.3795  0.6187  0.4584
   18MOL   C157 3251   4.526   6.981   6.926  0.2876 -0.2790 -0.1041
   18MOL   O158 3252   4.529   6.861   6.960 -0.3234  0.2810 -0.8464
   18MOL   O159 3253   4.622   7.041   6.850  0.1206  0.1000 -0.1612
   18MOL   H160 3254   4.493   7.277   6.961  3.0456 -1.9676 -0.3806
   18MOL   H161 3255   4.357   7.241   7.063 -0.7168 -1.4554 -0.0414
   18MOL   H162 3256   4.338   7.027   7.016 -2.3516  1.5373 -0.9026
   18MOL   H163 3257   4.687   6.976   6.827  0.0163 -0.6094  1.4276
   18MOL   C164 3258   4.341   7.119   6.815  1.1504  0.0856  0.0520
   18MOL   C165 3259   4.246   7.015   6.743  0.3778  0.2289 -0.5642
   18MOL   C166 3260   4.186   6.917   6.839 -0.5587 -0.0847  0.2636
   18MOL   O167 3261   4.107   6.951   6.928 -0.1915 -0.4193  0.4838
   18MOL   O168 3262   4.237   6.792   6.822  0.4941 -0.1593 -0.1696
   18MOL   H169 3263   4.417   7.151   6.744  0.8837  0.5623 -0.0183
   18MOL   H170 3264   4.292   7.216   6.824 -0.6579 -1.0067  2.2797
   18MOL   H171 3265   4.161   7.078   6.717  2.0985  1.9570 -2.1562
   18MOL   H172 3266   4.218   6.725   6.887 -0.6762  1.1867  0.9065
   18MOL   C173 3267   4.306   6.952   6.605 -0.5131 -0.3334  0.7795
   18MOL   C174 3268   4.217   6.859   6.518 -0.1777  0.0972 -0.0145
   18MOL   C175 3269   4.273   6.712   6.511  0.8525  0.1678  0.6043
   18MOL   O176 3270   4.382   6.671   6.555 -0.2752 -0.2861 -0.1624
   18MOL   O177 3271   4.176   6.635   6.446 -0.4876 -0.5100 -0.2302
   18MOL   H178 3272   4.401   6.911   6.637  0.8095 -0.0982 -2.5744
   18MOL   H179 3273   4.325   7.036   6.537 -1.4764 -0.4158  0.3996
   18MOL   H180 3274   4.112   6.875   6.541 -0.0239 -0.3992  1.0798
   18MOL   H181 3275   4.216   6.550   6.436  0.1278 -0.2210 -0.2192
   18MOL   H182 3276   4.229   6.903   6.419  2.3704 -0.2220  0.1153
   19MOL     C1 3277   5.823   1.747   0.844  0.2883 -0.0635 -0.6675
   19MOL     C2 3278   5.827   1.886   0.908 -0.2856 -0.6424  0.2267
   19MOL     C3 3279   5.733   1.898   1.031  0.1842 -0.1997  0.4381
   19MOL     O4 3280   5.768   1.933   1.145 -0.0670  0.6109  0.7704
   19MOL     O5 3281   5.609   1.852   1.003 -0.0596 -0.3224 -0.3896
   19MOL     H6 3282   5.920   1.728   0.799 -0.2095 -2.2440 -0.8884
   19MOL     H7 3283   5.802   1.676   0.924 -0.0516  1.5623  0.7003
   19MOL     H8 3284   5.928   1.895   0.948 -0.3313 -2.8517  0.9159
   19MOL     H9 3285   5.554   1.863   1.080  2.3173 -3.5478  1.9211
   19MOL    H10 3286   5.736   1.736   0.778 -1.5361  0.2319  1.6109
   19MOL    C11 3287   5.796   1.996   0.795 -0.3254  0.8408 -0.4893
   19MOL    C12 3288   5.839   2.137   0.831  0.7398 -0.0284  0.2293
   19MOL    C13 3289   5.722   2.235   0.803  0.4406 -0.0515 -0.6325
   19MOL    O14 3290   5.713   2.312   0.709 -0.1504 -0.0755  0.2719
   19MOL    O15 3291   5.628   2.216   0.897  0.3042 -0.8538  0.1302
   19MOL    H16 3292   5.687   1.994   0.786 -0.3373 -1.8565  0.0328
   19MOL    H17 3293   5.848   1.961   0.706  1.0570 -0.5138  0.8394
   19MOL    H18 3294   5.848   2.144   0.939  0.8457 -1.4907  0.3266
   19MOL    H19 3295   5.547   2.263   0.882  1.0821  0.4672  0.0330
   19MOL    C20 3296   5.969   2.173   0.749 -0.1856  0.2233 -0.4409
   19MOL    C21 3297   6.106   2.112   0.797  0.3177 -0.1384 -0.2510
   19MOL    C22 3298   6.143   2.159   0.941 -0.3273 -0.6002 -1.1166
   19MOL    O23 3299   6.084   2.249   1.000 -0.2696  0.3333  0.4515
   19MOL    O24 3300   6.244   2.093   0.993 -0.7290  0.1504  0.6107
   19MOL    H25 3301   5.967   2.282   0.741 -0.5700  0.1660 -1.1696
   19MOL    H26 3302   5.952   2.143   0.645 -2.9087 -0.4313  0.1524
   19MOL    H27 3303   6.080   2.007   0.813 -1.5530  0.2853 -0.4405
   19MOL    H28 3304   6.270   2.138   1.072 -1.1605  2.4124 -0.5097
   19MOL    C29 3305   6.225   2.120   0.700  0.0241 -0.1107 -0.0215
   19MOL    C30 3306   6.274   2.261   0.672 -0.1764 -0.2564  0.0443
   19MOL    C31 3307   6.177   2.328   0.573 -0.2668  0.1525  0.4062
   19MOL    O32 3308   6.142   2.276   0.469 -0.4033 -0.0515  0.8318
   19MOL    O33 3309   6.151   2.457   0.611 -0.3538  0.3970  0.3799
   19MOL    H34 3310   6.199   2.076   0.604 -1.0954  0.7284 -0.1129
   19MOL    H35 3311   6.312   2.070   0.742  0.9289  1.4886  0.0577
   19MOL    H36 3312   6.274   2.322   0.762 -0.3036  0.2094 -0.2636
   19MOL    H37 3313   6.096   2.493   0.544  0.6045 -0.6828 -1.0389
   19MOL    C38 3314   6.419   2.266   0.615 -0.7942  0.0221  0.2236
   19MOL    C39 3315   6.499   2.404   0.596  0.1957 -0.2218 -0.2636
   19MOL    C40 3316   6.494   2.487   0.721  0.3912 -0.3935  0.7062
   19MOL    O41 3317   6.595   2.516   0.779  0.1380  0.0349  0.3107
   19MOL    O42 3318   6.372   2.550   0.733  0.0911  0.0805  0.2079
   19MOL    H43 3319   6.434   2.201   0.529  1.4628  0.8060 -0.0231
   19MOL    H44 3320   6.477   2.215   0.693 -0.6432  1.7694  1.2697
   19MOL    H45 3321   6.599   2.370   0.572  0.2175  0.5276 -1.2541
   19MOL    H46 3322   6.299   2.527   0.678  2.6122 -0.2430 -3.1413
   19MOL    C47 3323   6.456   2.480   0.469  0.7759 -0.7638  0.0272
   19MOL    C48 3324   6.530   2.609   0.438 -0.0317  0.0100 -0.0942
   19MOL    C49 3325   6.447   2.738   0.460  0.2029 -0.5960 -0.1393
   19MOL    O50 3326   6.367   2.788   0.385  0.4253  0.3787  0.3226
   19MOL    O51 3327   6.481   2.792   0.584 -0.0239 -0.4419  0.0501
   19MOL    H52 3328   6.352   2.503   0.447  1.0819 -0.2943 -0.9802
   19MOL    H53 3329   6.463   2.413   0.383 -0.2180 -0.8832  0.0318
   19MOL    H54 3330   6.613   2.618   0.508  0.0664 -2.8556  0.2202
   19MOL    H55 3331   6.424   2.865   0.602 -1.5206 -0.5364 -3.6808
   19MOL    C56 3332   6.601   2.621   0.297  0.5413  1.0481 -0.0811
   19MOL    C57 3333   6.755   2.640   0.315 -0.0923  0.2477 -0.3771
   19MOL    C58 3334   6.804   2.764   0.401  0.1873  0.4045  0.0064
   19MOL    O59 3335   6.759   2.875   0.377 -0.3192 -0.3554  0.7385
   19MOL    O60 3336   6.910   2.748   0.485  0.2740  0.1244 -0.3794
   19MOL    H61 3337   6.555   2.701   0.238  0.0486 -0.1254 -1.3016
   19MOL    H62 3338   6.601   2.539   0.226 -0.1241  1.2653 -0.3377
   19MOL    H63 3339   6.799   2.552   0.361 -2.6360 -0.2694  1.1927
   19MOL    H64 3340   6.939   2.832   0.517 -0.1097 -0.2368  0.9717
   19MOL    C65 3341   6.818   2.662   0.173  0.7058  0.1275  0.2203
   19MOL    C66 3342   6.970   2.641   0.153 -0.5623  0.0313  0.7725
   19MOL    C67 3343   7.028   2.754   0.069 -0.1345 -0.2570  1.1236
   19MOL    O68 3344   7.113   2.824   0.113  0.2867  0.1722 -0.1640
   19MOL    O69 3345   6.969   2.758   7.800 -0.2557  0.0949  0.0109
   19MOL    H70 3346   6.788   2.758   0.131  0.5193  0.2517  0.6403
   19MOL    H71 3347   6.764   2.600   0.101  1.7271  0.3168 -0.7367
   19MOL    H72 3348   7.023   2.659   0.247  0.8733  0.7154 -0.1534
   19MOL    H73 3349   6.986   2.844   7.765  0.0259  0.3476  0.7567
   19MOL    C74 3350   6.995   2.499   0.101 -0.3886 -0.1374 -0.3589
   19MOL    C75 3351   7.006   2.384   0.206 -0.2437  0.3435  0.5152
   19MOL    C76 3352   7.129   2.394   0.297 -0.4701  0.0586  0.3842
   19MOL    O77 3353   7.123   2.397   0.418 -0.1672  0.8041  0.0724
   19MOL    O78 3354   7.243   2.380   0.226 -0.6421  0.6126  0.3739
   19MOL    H79 3355   7.084   2.488   0.040 -0.0963  0.8534 -0.1114
   19MOL    H80 3356   6.910   2.468   0.040 -1.8062 -0.9811  1.9406
   19MOL    H81 3357   6.920   2.382   0.273 -0.3581  0.8839  0.3892
   19MOL    H82 3358   7.241   2.379   0.132  2.3348  0.4758  0.2694
   19MOL    C83 3359   7.007   2.244   0.128 -0.1080 -0.4045 -0.0440
   19MOL    C84 3360   6.887   2.186   0.042  0.4265 -0.2563  0.0394
   19MOL    C85 3361   6.915   2.205   7.735 -0.6259  0.5528 -0.0611
   19MOL    O86 3362   7.019   2.257   7.689  0.0054  0.2030  0.1418
   19MOL    O87 3363   6.823   2.151   7.658  0.3294  0.2581  0.3827
   19MOL    H88 3364   7.017   2.181   0.216  0.6429  0.1383  0.2653
   19MOL    H89 3365   7.100   2.228   0.074  1.2278 -2.1971  2.6469
   19MOL    H90 3366   6.888   2.078   0.053  1.3689 -0.2557  0.0800
   19MOL    H91 3367   6.754   2.107   7.706  0.4268  2.2178  2.4354
   19MOL    C92 3368   6.746   2.253   0.077 -0.6098 -0.5455 -0.0873
   19MOL    C93 3369   6.651   2.161   0.168  0.6923  0.4254  0.0999
   19MOL    C94 3370   6.502   2.213   0.171 -0.6719 -1.1553 -0.0372
   19MOL    O95 3371   6.420   2.170   0.246 -0.8521 -0.0641  0.0358
   19MOL    O96 3372   6.474   2.311   0.079 -0.1664  0.0211 -0.5445
   19MOL    H97 3373   6.692   2.271   7.837  0.8612 -2.9457 -1.4666
   19MOL    H98 3374   6.758   2.347   0.131  0.2820 -1.3574  1.1562
   19MOL    H99 3375   6.629   2.074   0.106 -2.3608  1.3519 -0.2371
   19MOL   H100 3376   6.384   2.339   0.081 -0.3878 -0.5947 -1.8396
   19MOL   C101 3377   6.711   2.130   0.310  0.3456  0.9368  0.0579
   19MOL   C102 3378   6.666   1.994   0.376  0.1929 -0.0252 -0.0157
   19MOL   C103 3379   6.694   1.990   0.528 -0.0341  0.3365 -0.1356
   19MOL   O104 3380   6.811   1.983   0.572  0.2992  0.0386 -0.2143
   19MOL   O105 3381   6.594   1.991   0.614  0.2932  0.2999 -0.1386
   19MOL   H106 3382   6.685   2.215   0.372 -0.8680 -0.4229  1.4701
   19MOL   H107 3383   6.820   2.123   0.313  0.2676  0.2560  1.5476
   19MOL   H108 3384   6.562   1.970   0.357  0.1074  1.2297 -1.1917
   19MOL   H109 3385   6.634   1.979   0.699 -2.3134  2.0063  1.4027
   19MOL   C110 3386   6.744   1.877   0.302 -0.2981 -0.2497 -0.1579
   19MOL   C111 3387   6.705   1.737   0.324  0.5045 -0.2353 -0.4453
   19MOL   C112 3388   6.817   1.646   0.268 -0.0123  0.2230  0.4942
   19MOL   O113 3389   6.805   1.566   0.176 -0.6334 -0.7537 -0.2242
   19MOL   O114 3390   6.923   1.656   0.351  0.3617  0.2015 -0.5241
   19MOL   H115 3391   6.849   1.899   0.323 -0.7506  3.2687 -1.2108
   19MOL   H116 3392   6.732   1.901   0.196 -1.3227  0.6979  0.1598
   19MOL   H117 3393   6.702   1.709   0.429  1.6318  1.2970  0.0047
   19MOL   H118 3394   6.992   1.593   0.333  0.4609 -0.1719  1.1030
   19MOL   C119 3395   6.565   1.695   0.258  0.1314 -0.1268 -0.8632
   19MOL   C120 3396   6.502   1.556   0.286  0.0654 -0.2169 -0.2063
   19MOL   C121 3397   6.438   1.495   0.155  0.7432  0.1864 -0.6374
   19MOL   O122 3398   6.324   1.519   0.125  0.3244 -0.1265 -0.9297
   19MOL   O123 3399   6.531   1.425   0.084 -0.2230  0.1942  0.2728
   19MOL   H124 3400   6.589   1.699   0.151 -0.3097 -1.2237 -1.0136
   19MOL   H125 3401   6.485   1.768   0.275  0.3964 -0.2164  0.7992
   19MOL   H126 3402   6.581   1.487   0.316  1.5632  0.3043 -2.8611
   19MOL   H127 3403   6.477   1.384   0.018  1.4992 -1.9449  0.1604
   19MOL   C128 3404   6.398   1.543   0.398  0.1874  0.2764  0.0221
   19MOL   C129 3405   6.417   1.596   0.543  0.3671  0.5238  0.8979
   19MOL   C130 3406   6.542   1.527   0.607  0.0570 -0.4016  0.2842
   19MOL   O131 3407   6.582   1.416   0.570 -0.1774  0.4746  0.1935
   19MOL   O132 3408   6.594   1.597   0.708 -0.1046 -0.0873  0.4937
   19MOL   H133 3409   6.371   1.438   0.410  0.8855  0.0025 -0.7511
   19MOL   H134 3410   6.312   1.601   0.364  0.3745  2.0135  2.4325
   19MOL   H135 3411   6.449   1.700   0.536 -0.4763  0.6537 -1.4601
   19MOL   H136 3412   6.670   1.553   0.743  1.9630  4.1692  1.7745
   19MOL   C137 3413   6.286   1.576   0.622 -0.0239 -0.0000  0.2613
   19MOL   C138 3414   6.219   1.709   0.676 -0.4269  1.0162  0.3245
   19MOL   C139 3415   6.162   1.795   0.556 -0.3458 -0.2413 -0.1044
   19MOL   O140 3416   6.234   1.848   0.471 -0.1284  0.3175  0.3976
   19MOL   O141 3417   6.029   1.795   0.556  0.8587 -0.6321 -0.5898
   19MOL   H142 3418   6.306   1.514   0.709  0.5431  0.7207  0.6451
   19MOL   H143 3419   6.218   1.525   0.554 -0.0667 -0.8614  0.9402
   19MOL   H144 3420   6.134   1.674   0.736 -1.0494  1.5365 -0.2508
   19MOL   H145 3421   5.978   1.825   0.483  0.6637 -2.9868 -1.4659
   19MOL   C146 3422   6.308   1.794   0.777  0.9129  0.2036  0.4670
   19MOL   C147 3423   6.354   1.721   0.911 -0.3049 -0.1737 -0.0540
   19MOL   C148 3424   6.248   1.639   0.989  1.0374 -0.5143 -0.2523
   19MOL   O149 3425   6.269   1.527   1.034  0.0132 -0.1081 -0.0092
   19MOL   O150 3426   6.130   1.705   1.004 -0.0360  0.0790  0.0452
   19MOL   H151 3427   6.249   1.877   0.817  1.8886  1.1920 -0.1004
   19MOL   H152 3428   6.392   1.839   0.725  1.7039 -0.1409  1.4410
   19MOL   H153 3429   6.441   1.660   0.884  1.7122  1.4342  2.5376
   19MOL   H154 3430   6.075   1.640   1.044  0.1778  0.5222  1.0886
   19MOL   C155 3431   6.410   1.820   1.014 -0.4338 -0.4147  0.0491
   19MOL   C156 3432   6.521   1.916   0.969  0.5617  0.1338 -0.2711
   19MOL   C157 3433   6.659   1.844   0.926  0.2240 -0.3157 -0.0139
   19MOL   O158 3434   6.694   1.734   0.972  0.2643  0.5482 -0.3592
   19MOL   O159 3435   6.727   1.916   0.834 -0.5476  0.1475  0.0360
   19MOL   H160 3436   6.456   1.752   1.085  1.0068  0.5822  0.1126
   19MOL   H161 3437   6.328   1.868   1.067 -0.1182 -0.4958  0.6098
   19MOL   H162 3438   6.480   1.971   0.885  0.0481  0.6453  0.3091
   19MOL   H163 3439   6.813   1.878   0.824  0.2914  1.7557  0.9676
   19MOL   C164 3440   6.553   2.012   1.090  0.2090  0.6325 -0.3651
   19MOL   C165 3441   6.679   2.109   1.073 -0.5296  0.4771 -0.0889
   19MOL   C166 3442   6.728   2.159   1.203 -0.0983 -0.0299 -0.0350
   19MOL   O167 3443   6.786   2.077   1.273  0.1651  0.4951  0.0516
   19MOL   O168 3444   6.715   2.291   1.230 -0.4662  0.0005  0.2636
   19MOL   H169 3445   6.568   1.948   1.178 -2.0408  0.6977  0.0841
   19MOL   H170 3446   6.467   2.072   1.118  0.6567  0.3558  1.7297
   19MOL   H171 3447   6.763   2.047   1.041  0.1258  0.1547  2.1374
   19MOL   H172 3448   6.772   2.301   1.305  1.1910 -2.5011 -0.6208
   19MOL   C173 3449   6.664   2.212   0.958 -0.6634 -0.2570 -0.4151
   19MOL   C174 3450   6.797   2.278   0.913  0.3512  0.0011 -0.3241
   19MOL   C175 3451   6.875   2.202   0.812 -0.2412  0.2709 -0.3153
   19MOL   O176 3452   6.964   2.125   0.843  0.0617  0.0016 -0.0752
   19MOL   O177 3453   6.829   2.214   0.688 -0.1587  1.1226  0.5216
   19MOL   H178 3454   6.594   2.292   0.981  0.9769  0.9528  0.5326
   19MOL   H179 3455   6.627   2.150   0.876  0.0474 -0.3674 -0.6593
   19MOL   H180 3456   6.765   2.372   0.867  0.7628  0.6429  0.6703
   19MOL   H181 3457   6.869   2.151   0.630 -1.4061 -0.8461  1.7373
   19MOL   H182 3458   6.852   2.309   1.003 -0.8579 -0.5634  0.6141
   20MOL     C1 3459   4.473   5.683   3.219 -0.6180  0.6346 -0.0578
   20MOL     C2 3460   4.485   5.759   3.354 -0.2203  0.3193 -0.1081
   20MOL     C3 3461   4.597   5.689   3.431 -0.2315  0.2173 -0.0943
   20MOL     O4 3462   4.641   5.579   3.415 -0.2014  0.2635  0.1048
   20MOL     O5 3463   4.642   5.767   3.533 -0.2060  0.0192 -0.2554
   20MOL     H6 3464   4.572   5.662   3.179 -0.9722 -1.2039 -0.0068
   20MOL     H7 3465   4.450   5.577   3.217  1.8899 -0.0229  2.4331
   20MOL     H8 3466   4.506   5.863   3.331 -3.0677  0.4078 -2.7977
   20MOL     H9 3467   4.724   5.728   3.560  0.4762 -0.1352 -2.4483
   20MOL    H10 3468   4.433   5.735   3.132 -0.0047  0.6982 -0.3024
   20MOL    C11 3469   4.347   5.760   3.422 -0.0643 -0.0362  0.3822
   20MOL    C12 3470   4.338   5.865   3.535  0.4521 -0.4392  0.4100
   20MOL    C13 3471   4.201   5.843   3.607  0.5798 -0.2730  0.5880
   20MOL    O14 3472   4.120   5.747   3.583 -0.2840 -0.0576 -0.6058
   20MOL    O15 3473   4.174   5.943   3.697  0.4315 -0.5230 -0.6005
   20MOL    H16 3474   4.326   5.659   3.458 -0.0932 -1.0292 -2.2780
   20MOL    H17 3475   4.265   5.776   3.352 -0.1775  2.0660  0.9688
   20MOL    H18 3476   4.405   5.833   3.616 -1.1653  0.2816  2.0657
   20MOL    H19 3477   4.087   5.924   3.730  1.1450  0.1572  1.8262
   20MOL    C20 3478   4.380   6.009   3.499 -0.1697 -0.2658  0.3905
   20MOL    C21 3479   4.317   6.078   3.380  0.2403 -0.1944 -0.0732
   20MOL    C22 3480   4.410   6.197   3.344  0.2208 -0.4763  0.7492
   20MOL    O23 3481   4.393   6.314   3.378  0.2077 -0.2364 -0.0454
   20MOL    O24 3482   4.517   6.152   3.274  0.5142  0.3838 -0.2513
   20MOL    H25 3483   4.487   6.002   3.481 -0.2054  0.5535 -0.1834
   20MOL    H26 3484   4.371   6.068   3.590 -1.2785 -0.6030  0.5103
   20MOL    H27 3485   4.326   6.008   3.297  0.0448 -0.3907  0.0698
   20MOL    H28 3486   4.551   6.231   3.236 -1.6544  1.5885  0.1848
   20MOL    C29 3487   4.173   6.130   3.400  0.4297 -0.1988  0.3758
   20MOL    C30 3488   4.088   6.190   3.284  0.2988 -0.0179 -0.1463
   20MOL    C31 3489   3.952   6.239   3.339 -0.2848  0.0217 -0.5830
   20MOL    O32 3490   3.857   6.162   3.353 -0.1739 -0.7471  0.1617
   20MOL    O33 3491   3.945   6.373   3.351  0.2080 -0.9770  0.5096
   20MOL    H34 3492   4.185   6.212   3.472 -0.7845 -0.8746  1.3789
   20MOL    H35 3493   4.111   6.058   3.452  0.5313 -0.0274  0.7379
   20MOL    H36 3494   4.140   6.280   3.252  2.1247 -1.7605 -2.2348
   20MOL    H37 3495   3.853   6.391   3.346  0.6504  1.3148 -0.2749
   20MOL    C38 3496   4.065   6.099   3.166 -0.1325  0.3561  0.5858
   20MOL    C39 3497   4.186   6.079   3.071  0.6729  0.0890  0.3194
   20MOL    C40 3498   4.164   6.179   2.954 -0.1365 -0.1808  0.2628
   20MOL    O41 3499   4.063   6.173   2.879 -0.1102  0.1821  0.1008
   20MOL    O42 3500   4.239   6.289   2.954 -0.2275 -0.3337 -0.3180
   20MOL    H43 3501   3.983   6.120   3.098  2.3710 -1.1669 -3.0631
   20MOL    H44 3502   4.058   5.998   3.207 -2.3038 -0.2026 -1.0482
   20MOL    H45 3503   4.287   6.105   3.103  0.1511  1.3807  0.9662
   20MOL    H46 3504   4.215   6.330   2.872  0.2684  1.5649  0.4405
   20MOL    C47 3505   4.201   5.938   3.007  0.0946 -0.7801 -0.2617
   20MOL    C48 3506   4.299   5.916   2.887  0.7091  0.4019 -0.1685
   20MOL    C49 3507   4.442   5.973   2.900  0.7444 -0.0385  0.1260
   20MOL    O50 3508   4.470   6.077   2.841 -0.1440 -0.8167 -0.3047
   20MOL    O51 3509   4.523   5.897   2.976 -0.3256 -0.5890  0.2095
   20MOL    H52 3510   4.104   5.891   2.995 -0.0405 -1.1963  2.1203
   20MOL    H53 3511   4.232   5.879   3.093 -0.4071 -0.7819 -0.0786
   20MOL    H54 3512   4.309   5.808   2.898 -1.6226 -0.1690 -2.9879
   20MOL    H55 3513   4.605   5.944   2.974 -0.5667 -0.1830 -0.3896
   20MOL    C56 3514   4.240   5.935   2.747  0.4406  0.1197  0.9319
   20MOL    C57 3515   4.299   5.844   2.636  0.1531  0.2133 -0.3394
   20MOL    C58 3516   4.241   5.882   2.498  0.0133 -0.3523 -0.4367
   20MOL    O59 3517   4.170   5.981   2.493  0.3240  0.4645  0.1341
   20MOL    O60 3518   4.282   5.797   2.403  0.0558 -0.6184  0.3374
   20MOL    H61 3519   4.251   6.039   2.715 -0.6209 -0.4408 -1.3810
   20MOL    H62 3520   4.131   5.933   2.744  0.4695 -0.2583  0.1648
   20MOL    H63 3521   4.404   5.867   2.618  0.8236 -3.0498 -0.7991
   20MOL    H64 3522   4.262   5.838   2.320 -0.8165  1.6077  1.6086
   20MOL    C65 3523   4.294   5.689   2.657  0.4768  0.4847  0.2575
   20MOL    C66 3524   4.158   5.614   2.673 -0.1015 -0.5570 -0.6764
   20MOL    C67 3525   4.115   5.615   2.821  0.2041  0.1063 -0.2738
   20MOL    O68 3526   4.176   5.559   2.914 -0.2547 -0.0233 -0.1346
   20MOL    O69 3527   4.020   5.706   2.845  0.2511 -0.2125 -0.4009
   20MOL    H70 3528   4.355   5.662   2.744  0.5104 -1.1397 -0.2426
   20MOL    H71 3529   4.355   5.646   2.577  1.7296  1.5101  0.6476
   20MOL    H72 3530   4.082   5.666   2.615  0.9407 -0.1985 -1.7479
   20MOL    H73 3531   3.994   5.689   2.934 -1.8187 -1.5269 -1.2383
   20MOL    C74 3532   4.166   5.475   2.614 -0.0032  0.0236  0.0065
   20MOL    C75 3533   4.165   5.466   2.461 -0.7759  0.6069 -0.5341
   20MOL    C76 3534   4.022   5.492   2.417 -0.2154  0.3513 -0.0361
   20MOL    O77 3535   3.935   5.410   2.444 -0.5265 -0.1659  0.0620
   20MOL    O78 3536   4.002   5.611   2.357 -0.1113  0.2456  0.8193
   20MOL    H79 3537   4.082   5.414   2.648  0.5536 -1.1401 -0.6949
   20MOL    H80 3538   4.248   5.419   2.659  0.9669  1.9052  0.6168
   20MOL    H81 3539   4.226   5.544   2.416 -1.0959  1.3343  0.2679
   20MOL    H82 3540   3.913   5.609   2.325  0.0321  1.2547  0.3314
   20MOL    C83 3541   4.226   5.325   2.413 -0.2349  0.4708 -0.0799
   20MOL    C84 3542   4.215   5.305   2.263  0.3442  0.1571 -0.1487
   20MOL    C85 3543   4.098   5.211   2.232 -0.4651  0.2454 -0.1284
   20MOL    O86 3544   4.082   5.099   2.283 -0.8085  0.3720 -0.0161
   20MOL    O87 3545   4.022   5.270   2.133  0.2931 -0.0096 -0.0678
   20MOL    H88 3546   4.182   5.244   2.472  2.6804 -1.2701 -0.1778
   20MOL    H89 3547   4.330   5.314   2.443 -0.0756  1.2075 -0.3530
   20MOL    H90 3548   4.176   5.398   2.221  0.1882 -0.4009 -1.2676
   20MOL    H91 3549   3.961   5.202   2.109 -1.1162  0.4233  2.1259
   20MOL    C92 3550   4.340   5.263   2.183 -0.5497  0.0408  0.5764
   20MOL    C93 3551   4.459   5.365   2.165  0.1596  0.2023  0.4728
   20MOL    C94 3552   4.413   5.510   2.147  0.0495 -0.4179 -0.3924
   20MOL    O95 3553   4.344   5.543   2.051 -0.1281  0.2121 -0.2174
   20MOL    O96 3554   4.456   5.591   2.244  0.7418  0.3190 -0.4691
   20MOL    H97 3555   4.303   5.224   2.088 -1.9622 -2.1795  2.0133
   20MOL    H98 3556   4.382   5.175   2.231 -0.3339 -0.8740 -1.2324
   20MOL    H99 3557   4.509   5.349   2.260  0.8565 -1.4075 -0.1282
   20MOL   H100 3558   4.432   5.682   2.229  1.3983  0.3612 -1.2522
   20MOL   C101 3559   4.559   5.311   2.051 -0.4805  0.4319  0.6646
   20MOL   C102 3560   4.701   5.376   2.033  0.6562 -0.4415  0.8640
   20MOL   C103 3561   4.782   5.387   2.160 -0.3553 -0.4696  0.0747
   20MOL   O104 3562   4.764   5.470   2.249 -0.0347  0.0053 -0.0713
   20MOL   O105 3563   4.876   5.289   2.178 -0.0465  0.2030 -0.6108
   20MOL   H106 3564   4.501   5.313   1.958 -1.2619 -1.6579  1.0733
   20MOL   H107 3565   4.575   5.206   2.076  0.8635  0.2608 -0.8505
   20MOL   H108 3566   4.748   5.305   1.964 -1.3171 -0.9882  0.0267
   20MOL   H109 3567   4.941   5.301   2.246 -1.3439  1.7002  0.4004
   20MOL   C110 3568   4.703   5.513   1.960 -0.0454 -0.1454  0.2488
   20MOL   C111 3569   4.722   5.506   1.802 -0.5421  0.4692 -0.6130
   20MOL   C112 3570   4.855   5.442   1.765  0.1145  0.4619  0.0683
   20MOL   O113 3571   4.860   5.349   1.684 -0.3907  0.4639  0.2150
   20MOL   O114 3572   4.962   5.493   1.830 -0.0236  0.4927  0.1947
   20MOL   H115 3573   4.780   5.575   2.005 -1.1735  0.5939  1.1812
   20MOL   H116 3574   4.610   5.565   1.982  0.4311  0.4450  0.8633
   20MOL   H117 3575   4.646   5.434   1.774 -2.7090  2.0515  0.9415
   20MOL   H118 3576   5.028   5.435   1.795  0.3744  0.7577  0.4987
   20MOL   C119 3577   4.703   5.649   1.750  0.6838 -0.1798  0.1914
   20MOL   C120 3578   4.635   5.659   1.608  0.0298  0.0084  0.0173
   20MOL   C121 3579   4.699   5.578   1.495  0.3559 -0.1230  0.0485
   20MOL   O122 3580   4.640   5.526   1.401 -0.1227 -0.1921 -0.3301
   20MOL   O123 3581   4.833   5.579   1.504 -0.3368  0.5825  0.5687
   20MOL   H124 3582   4.803   5.693   1.754  0.0724  1.2267  0.3604
   20MOL   H125 3583   4.636   5.709   1.811  2.7350  1.8317  0.5802
   20MOL   H126 3584   4.540   5.612   1.629  1.2469 -2.5459 -0.0181
   20MOL   H127 3585   4.870   5.521   1.440 -1.6224  0.0881  0.2571
   20MOL   C128 3586   4.611   5.803   1.561  0.1247 -0.0483  1.4812
   20MOL   C129 3587   4.732   5.895   1.572 -0.1741 -0.1177 -0.2764
   20MOL   C130 3588   4.755   5.951   1.709 -1.0170  0.0689  0.0259
   20MOL   O131 3589   4.666   5.973   1.791 -0.1050 -0.1946 -0.4996
   20MOL   O132 3590   4.886   5.971   1.724 -0.1677  0.1275 -0.1700
   20MOL   H133 3591   4.520   5.836   1.611  0.5527 -1.4885  3.2826
   20MOL   H134 3592   4.581   5.797   1.457 -1.8009  1.0855  1.9377
   20MOL   H135 3593   4.817   5.830   1.553 -0.2690 -0.3811  0.1986
   20MOL   H136 3594   4.900   6.023   1.802 -0.7709  0.1340 -0.0612
   20MOL   C137 3595   4.742   6.008   1.461  0.2587 -0.2663 -0.4575
   20MOL   C138 3596   4.647   6.129   1.478  0.2839  0.3407  0.2103
   20MOL   C139 3597   4.503   6.094   1.449  0.3757  0.0109  0.2035
   20MOL   O140 3598   4.460   6.055   1.338 -0.1295 -0.4601 -0.0831
   20MOL   O141 3599   4.421   6.135   1.542  0.1508 -0.1913  0.3429
   20MOL   H142 3600   4.720   5.963   1.364 -0.2062 -3.3685  1.0327
   20MOL   H143 3601   4.847   6.036   1.462  0.2109 -0.0636 -0.7609
   20MOL   H144 3602   4.656   6.165   1.581  0.5459 -0.3198  0.4200
   20MOL   H145 3603   4.330   6.121   1.524  0.3941 -0.9705 -0.2949
   20MOL   C146 3604   4.697   6.261   1.421  0.5503 -0.2602  0.0842
   20MOL   C147 3605   4.622   6.390   1.459 -0.4800  0.3474 -0.2437
   20MOL   C148 3606   4.498   6.410   1.375 -0.6049 -0.8045 -0.0011
   20MOL   O149 3607   4.494   6.408   1.251 -0.5066 -0.2393 -0.7014
   20MOL   O150 3608   4.385   6.428   1.444 -0.6229  0.0643 -0.3556
   20MOL   H151 3609   4.698   6.245   1.313 -0.2014 -2.7647  0.4179
   20MOL   H152 3610   4.805   6.262   1.439  0.1567  0.2178  2.5360
   20MOL   H153 3611   4.578   6.382   1.558 -0.8119 -1.9328 -0.5508
   20MOL   H154 3612   4.299   6.420   1.407 -0.8021  0.1707  0.0308
   20MOL   C155 3613   4.724   6.511   1.445  0.2708 -0.0918  0.5688
   20MOL   C156 3614   4.664   6.651   1.474 -0.2655 -0.1891 -0.3510
   20MOL   C157 3615   4.775   6.754   1.475 -0.2050  0.0148  0.2074
   20MOL   O158 3616   4.848   6.788   1.567 -0.1355  0.4900  0.8411
   20MOL   O159 3617   4.788   6.811   1.353  0.4989 -0.2603 -0.3758
   20MOL   H160 3618   4.780   6.511   1.351 -1.0674  0.3874 -0.2466
   20MOL   H161 3619   4.807   6.500   1.514  0.3742  1.2676  0.6729
   20MOL   H162 3620   4.596   6.680   1.394 -2.4470 -1.0019  1.1689
   20MOL   H163 3621   4.861   6.869   1.340  0.3447  0.1643  0.6530
   20MOL   C164 3622   4.586   6.663   1.611 -0.2519 -0.3677  0.3446
   20MOL   C165 3623   4.531   6.804   1.648 -0.2380 -0.3797  0.4475
   20MOL   C166 3624   4.463   6.793   1.788 -0.5610  0.4649 -0.5627
   20MOL   O167 3625   4.437   6.688   1.846  1.1494 -0.0617 -1.0282
   20MOL   O168 3626   4.460   6.917   1.848 -0.2213 -0.4074  0.1775
   20MOL   H169 3627   4.649   6.630   1.693 -0.4208 -1.5853 -0.0112
   20MOL   H170 3628   4.505   6.592   1.595  0.6525 -1.4368  0.4750
   20MOL   H171 3629   4.619   6.868   1.655  1.0745 -1.9894 -0.8461
   20MOL   H172 3630   4.412   6.900   1.928 -0.7119  0.9765  0.2055
   20MOL   C173 3631   4.436   6.860   1.538  0.4747 -0.9325  0.0825
   20MOL   C174 3632   4.311   6.771   1.503  0.3637 -0.0743 -0.4382
   20MOL   C175 3633   4.191   6.843   1.429 -0.5469 -0.2599  0.3279
   20MOL   O176 3634   4.103   6.895   1.484  0.5631 -0.5712  0.7041
   20MOL   O177 3635   4.206   6.830   1.290  0.3247  0.7056  0.4923
   20MOL   H178 3636   4.489   6.858   1.443  1.5109  0.1016  0.6185
   20MOL   H179 3637   4.409   6.963   1.559  0.8824 -0.5130 -1.4086
   20MOL   H180 3638   4.341   6.687   1.441 -0.0815 -0.0327 -0.7110
   20MOL   H181 3639   4.119   6.848   1.258 -0.2586  0.2164  1.7538
   20MOL   H182 3640   4.264   6.731   1.592  0.0765  1.2055 -0.0067
   21MOL     C1 3641   5.218   4.753   1.001  0.4581  0.1464  0.6313
   21MOL     C2 3642   5.162   4.832   0.881  0.4411 -0.6529 -0.7732
   21MOL     C3 3643   5.002   4.840   0.877  0.1933  0.3664  0.8587
   21MOL     O4 3644   4.928   4.745   0.858 -0.0032 -0.1212 -0.1180
   21MOL     O5 3645   4.949   4.967   0.892  0.0595  0.5229  0.0228
   21MOL     H6 3646   5.326   4.751   1.014  0.4224  1.7307  1.2310
   21MOL     H7 3647   5.175   4.784   1.097 -4.4355 -3.6459 -0.0814
   21MOL     H8 3648   5.177   4.940   0.875  1.8555 -0.7880  0.1304
   21MOL     H9 3649   4.858   4.967   0.866  0.1310 -0.2377 -0.2461
   21MOL    H10 3650   5.179   4.651   0.997 -0.7310  0.5955  0.5805
   21MOL    C11 3651   5.215   4.780   0.745  0.0944 -0.2364 -0.7094
   21MOL    C12 3652   5.367   4.799   0.711  0.1463 -0.6958 -0.2915
   21MOL    C13 3653   5.420   4.938   0.728 -0.2134  0.0723 -0.1159
   21MOL    O14 3654   5.418   5.026   0.643  0.0540  0.0934 -0.2142
   21MOL    O15 3655   5.469   4.954   0.850  0.3302  0.4218  0.7337
   21MOL    H16 3656   5.156   4.828   0.667 -0.4916 -0.3780 -0.3562
   21MOL    H17 3657   5.189   4.674   0.736  1.6629 -0.7948  1.0486
   21MOL    H18 3658   5.424   4.732   0.775 -0.2976 -0.9211 -0.1278
   21MOL    H19 3659   5.460   4.884   0.913  0.1439 -0.3583 -0.1485
   21MOL    C20 3660   5.389   4.754   0.566 -0.4796 -0.3239  0.6958
   21MOL    C21 3661   5.543   4.718   0.528  0.0273  0.1000  0.3752
   21MOL    C22 3662   5.541   4.669   0.383  0.5016 -0.2841 -0.6750
   21MOL    O23 3663   5.582   4.737   0.289  0.4340  0.2040 -0.6395
   21MOL    O24 3664   5.482   4.549   0.367 -0.2551  0.3924  0.1328
   21MOL    H25 3665   5.347   4.822   0.492  1.6595  1.7178  1.3028
   21MOL    H26 3666   5.331   4.662   0.552 -4.0706  2.1608 -1.5935
   21MOL    H27 3667   5.603   4.809   0.532 -0.0199  0.1391  0.1917
   21MOL    H28 3668   5.466   4.532   0.275  1.3425 -0.0837 -0.0680
   21MOL    C29 3669   5.610   4.626   0.631  0.7121 -0.1925 -0.6282
   21MOL    C30 3670   5.719   4.533   0.594 -0.5918  0.5457  0.8027
   21MOL    C31 3671   5.666   4.387   0.560  0.4637 -0.2083  0.4359
   21MOL    O32 3672   5.617   4.312   0.641 -0.4230  0.4323  0.1998
   21MOL    O33 3673   5.680   4.354   0.424 -0.1426  0.5226 -0.3138
   21MOL    H34 3674   5.533   4.553   0.659  1.9405 -1.5119 -0.6445
   21MOL    H35 3675   5.626   4.672   0.728  0.9178 -1.2227 -0.1607
   21MOL    H36 3676   5.774   4.583   0.514 -0.2158 -2.2872 -0.7954
   21MOL    H37 3677   5.622   4.282   0.406 -1.4305  1.5377 -0.2999
   21MOL    C38 3678   5.826   4.529   0.711 -0.8019 -0.1267  0.3042
   21MOL    C39 3679   5.951   4.439   0.693  0.2035 -0.1947  0.5021
   21MOL    C40 3680   6.029   4.411   0.822 -0.2430  0.1330  0.0550
   21MOL    O41 3681   6.148   4.436   0.846 -0.0571 -0.3846  0.0617
   21MOL    O42 3682   5.950   4.348   0.913  0.1698  0.1483  0.0984
   21MOL    H43 3683   5.770   4.491   0.797  0.0302 -1.2481  0.3577
   21MOL    H44 3684   5.860   4.627   0.743 -2.0663 -0.1763  1.8943
   21MOL    H45 3685   5.912   4.341   0.664  1.2358 -1.1737  2.3324
   21MOL    H46 3686   6.014   4.340   0.982 -0.4845  1.4229  0.8492
   21MOL    C47 3687   6.054   4.491   0.585  0.3330  0.1735  0.2688
   21MOL    C48 3688   6.028   4.442   0.442 -0.5089  0.3081 -0.8996
   21MOL    C49 3689   6.021   4.287   0.414 -0.4672 -0.2235  0.2248
   21MOL    O50 3690   6.032   4.203   0.500 -0.2627  0.9253 -0.5763
   21MOL    O51 3691   5.999   4.264   0.282  0.4333 -0.0374  0.1639
   21MOL    H52 3692   6.156   4.469   0.616  1.0330  0.8163 -1.4939
   21MOL    H53 3693   6.059   4.600   0.584 -0.5186  0.2136  0.2210
   21MOL    H54 3694   5.923   4.465   0.424 -0.4184  1.3308 -0.1351
   21MOL    H55 3695   6.000   4.171   0.270 -0.4334  0.0204 -0.3685
   21MOL    C56 3696   6.109   4.522   0.335  0.3605  0.0762 -0.1152
   21MOL    C57 3697   6.034   4.655   0.287  0.4278  0.4041  0.1801
   21MOL    C58 3698   5.938   4.632   0.172  0.1333  0.2352 -0.4253
   21MOL    O59 3699   5.933   4.536   0.099 -0.2948 -0.1000 -0.3901
   21MOL    O60 3700   5.854   4.736   0.160  0.0951  0.4888  0.3074
   21MOL    H61 3701   6.158   4.469   0.253  0.1305 -0.3866  0.0452
   21MOL    H62 3702   6.191   4.558   0.396  0.2792 -0.0613  0.0744
   21MOL    H63 3703   5.972   4.700   0.364 -0.2609 -0.4275  0.1161
   21MOL    H64 3704   5.792   4.723   0.090  0.0599 -0.9046  0.5999
   21MOL    C65 3705   6.138   4.768   0.248  0.2350 -0.5678 -0.5426
   21MOL    C66 3706   6.231   4.752   0.128 -0.1417 -0.6434 -0.0886
   21MOL    C67 3707   6.363   4.702   0.172 -0.0377  0.3541 -0.1008
   21MOL    O68 3708   6.392   4.583   0.166 -0.1588 -1.1905 -0.3409
   21MOL    O69 3709   6.449   4.797   0.226  0.0760 -0.6628  0.9058
   21MOL    H70 3710   6.191   4.766   0.343 -0.0204  1.1189 -0.3341
   21MOL    H71 3711   6.096   4.869   0.257  2.3525  0.3069 -0.1313
   21MOL    H72 3712   6.195   4.680   0.056 -0.2832 -0.8093  0.1470
   21MOL    H73 3713   6.539   4.770   0.237  0.3640 -0.3757 -0.6790
   21MOL    C74 3714   6.253   4.879   0.046 -0.1012  0.1595  0.0161
   21MOL    C75 3715   6.123   4.947   7.840 -0.2379  0.3083 -0.0987
   21MOL    C76 3716   6.035   4.858   7.754  0.1674  0.0296  0.9796
   21MOL    O77 3717   6.063   4.749   7.710  0.2489 -0.3611  0.1531
   21MOL    O78 3718   5.911   4.910   7.745  0.1801  0.6508  0.5571
   21MOL    H79 3719   6.316   4.840   7.819 -1.8089 -2.7712  0.0196
   21MOL    H80 3720   6.311   4.951   0.103 -0.3582  1.6573 -1.5780
   21MOL    H81 3721   6.071   4.975   0.079  0.4640  0.6054  0.2190
   21MOL    H82 3722   5.853   4.841   7.716  1.0203  0.3768 -0.4969
   21MOL    C83 3723   6.150   5.088   7.775 -0.1479  0.2179  0.0431
   21MOL    C84 3724   6.233   5.197   0.012  1.1070  1.2232 -0.2023
   21MOL    C85 3725   6.135   5.246   0.121 -0.8548  0.4161  0.4870
   21MOL    O86 3726   6.166   5.257   0.242 -0.0196  0.5934  0.1094
   21MOL    O87 3727   6.013   5.273   0.072  0.6448 -0.2750 -0.0200
   21MOL    H88 3728   6.060   5.135   7.735 -0.3090  0.0681  0.2245
   21MOL    H89 3729   6.216   5.065   7.691  0.7004  0.0376  0.7495
   21MOL    H90 3730   6.315   5.145   0.061 -1.3939 -0.3818  2.4544
   21MOL    H91 3731   5.965   5.319   0.139  0.6744 -0.7561  0.3268
   21MOL    C92 3732   6.301   5.315   7.788  0.4223  0.4728  0.1842
   21MOL    C93 3733   6.379   5.429   0.006  0.5054  1.1104  0.0018
   21MOL    C94 3734   6.438   5.532   7.757  0.4185  0.0828 -0.7605
   21MOL    O95 3735   6.434   5.510   7.637 -0.1829 -0.0118 -0.6203
   21MOL    O96 3736   6.511   5.632   7.817 -0.3342 -0.1965 -0.0152
   21MOL    H97 3737   6.227   5.367   7.728  1.3152  1.8389  0.2365
   21MOL    H98 3738   6.368   5.275   7.713 -2.9476 -3.7336 -0.8184
   21MOL    H99 3739   6.302   5.487   0.056 -1.9695 -1.3688 -0.7882
   21MOL   H100 3740   6.543   5.702   7.763 -0.4882  1.4777  1.9814
   21MOL   C101 3741   6.489   5.393   0.114  0.2767  0.1069 -0.5445
   21MOL   C102 3742   6.597   5.290   0.079 -0.2703  0.0749  0.7359
   21MOL   C103 3743   6.564   5.147   0.138  0.3267  0.0259  0.5860
   21MOL   O104 3744   6.549   5.054   0.058  0.0228  0.0921 -0.8868
   21MOL   O105 3745   6.549   5.156   0.273  0.4469  0.4902  0.2886
   21MOL   H106 3746   6.432   5.359   0.201 -1.8372  1.0208 -1.5319
   21MOL   H107 3747   6.521   5.485   0.165 -1.2824  0.3867 -0.0257
   21MOL   H108 3748   6.589   5.276   7.824 -2.2223  0.8161  0.7698
   21MOL   H109 3749   6.510   5.076   0.304 -0.1582  1.7087  2.8586
   21MOL   C110 3750   6.733   5.333   0.129 -0.1225 -0.1130 -0.2008
   21MOL   C111 3751   6.809   5.428   0.035 -0.7326  0.0120 -0.6185
   21MOL   C112 3752   6.864   5.339   7.772  0.6114  0.2284  0.7397
   21MOL   O113 3753   6.960   5.268   7.779 -0.4345 -0.5014  0.2865
   21MOL   O114 3754   6.808   5.363   7.651  0.3748  0.4006 -0.0553
   21MOL   H115 3755   6.798   5.249   0.151  1.2488  0.5144 -1.7992
   21MOL   H116 3756   6.723   5.386   0.224  1.5377  0.2534 -0.2226
   21MOL   H117 3757   6.739   5.498   7.841  0.2788  1.6356  0.2503
   21MOL   H118 3758   6.847   5.301   7.591  0.7459  0.0681  0.5177
   21MOL   C119 3759   6.912   5.515   0.106  0.3096 -0.2722 -0.1150
   21MOL   C120 3760   7.000   5.610   0.013 -0.0944  0.1590  0.0848
   21MOL   C121 3761   7.141   5.634   0.061 -0.0061  0.2452 -0.6115
   21MOL   O122 3762   7.182   5.735   0.111 -0.7636 -0.3012 -0.9730
   21MOL   O123 3763   7.217   5.529   0.029  0.3298  1.1030 -0.3644
   21MOL   H124 3764   6.980   5.449   0.161 -0.2239 -0.9193 -0.2326
   21MOL   H125 3765   6.861   5.578   0.179  2.4239  0.3255  0.9072
   21MOL   H126 3766   7.016   5.563   7.769  0.4717  1.0360 -0.2517
   21MOL   H127 3767   7.309   5.545   0.041  0.8314 -0.3139 -2.1556
   21MOL   C128 3768   6.916   5.744   7.833 -0.0997  0.8438  0.1850
   21MOL   C129 3769   6.923   5.797   7.687 -0.8930 -0.3323 -0.1039
   21MOL   C130 3770   6.853   5.703   7.590  0.0474  0.1377  0.3091
   21MOL   O131 3771   6.912   5.625   7.517 -0.3422  0.2617 -0.1285
   21MOL   O132 3772   6.720   5.711   7.593  0.0143 -0.2819  0.3467
   21MOL   H133 3773   6.957   5.818   0.049 -1.7446  0.0901  2.0370
   21MOL   H134 3774   6.811   5.733   0.009  0.0355 -3.1979 -0.5396
   21MOL   H135 3775   6.864   5.889   7.687  2.0551  1.6060 -1.5435
   21MOL   H136 3776   6.676   5.655   7.531 -0.0553  0.1897 -0.0305
   21MOL   C137 3777   7.064   5.845   7.650 -1.2849 -0.3897 -0.1865
   21MOL   C138 3778   7.073   5.900   7.508 -0.3382  0.4687  0.0670
   21MOL   C139 3779   7.175   5.814   7.429 -0.0592  0.0906 -0.3255
   21MOL   O140 3780   7.292   5.850   7.405  0.0697  0.0796 -0.5165
   21MOL   O141 3781   7.125   5.699   7.390 -0.1144 -0.3316  0.1996
   21MOL   H142 3782   7.132   5.760   7.660 -0.3593 -0.0307 -2.8707
   21MOL   H143 3783   7.087   5.914   7.731  1.2447  0.0562 -1.2243
   21MOL   H144 3784   6.973   5.888   7.465 -1.0029 -1.5330  2.0632
   21MOL   H145 3785   7.047   5.667   7.433  0.2809 -1.1066  0.3390
   21MOL   C146 3786   7.119   6.048   7.499 -0.0202  0.4522  0.3663
   21MOL   C147 3787   7.067   6.140   7.386  0.2472  0.2136  0.1728
   21MOL   C148 3788   6.916   6.176   7.409  0.5116 -0.0939 -0.2373
   21MOL   O149 3789   6.818   6.101   7.395  0.4137  0.3259  0.3294
   21MOL   O150 3790   6.910   6.303   7.466  0.2216 -0.2135 -0.4838
   21MOL   H151 3791   7.228   6.055   7.492 -0.1364  3.4151  1.0851
   21MOL   H152 3792   7.095   6.102   7.590  0.1043 -1.0384  1.2995
   21MOL   H153 3793   7.129   6.229   7.379 -1.6671  1.5717  0.2581
   21MOL   H154 3794   6.818   6.317   7.478  0.9249  1.3570  3.8781
   21MOL   C155 3795   7.087   6.070   7.248 -0.0066 -0.4234  0.3496
   21MOL   C156 3796   7.109   6.170   7.132 -0.2700 -0.1550 -0.7069
   21MOL   C157 3797   7.012   6.147   7.015 -0.0771  0.8191 -0.3998
   21MOL   O158 3798   7.035   6.057   6.934  0.0738  0.0648 -0.5867
   21MOL   O159 3799   6.904   6.229   7.016  0.7680  0.0567  0.0102
   21MOL   H160 3800   6.994   6.017   7.227  1.8040 -2.4110 -2.9438
   21MOL   H161 3801   7.168   5.998   7.243 -1.3539 -1.9362 -0.1951
   21MOL   H162 3802   7.079   6.264   7.180  0.5675 -0.6186  0.7803
   21MOL   H163 3803   6.844   6.219   6.944 -0.0945  0.9839  0.5756
   21MOL   C164 3804   7.259   6.174   7.078 -0.4681  0.2114 -0.5018
   21MOL   C165 3805   7.368   6.202   7.171  0.1413 -0.0646 -0.2865
   21MOL   C166 3806   7.358   6.342   7.227  0.1511  0.7085  0.5949
   21MOL   O167 3807   7.289   6.429   7.177 -0.0053 -0.1946  0.6830
   21MOL   O168 3808   7.437   6.357   7.340  0.2982 -0.5433 -0.0281
   21MOL   H169 3809   7.270   6.237   6.989 -0.8884  1.1655  0.1152
   21MOL   H170 3810   7.271   6.072   7.040 -1.4465 -0.2856  0.5144
   21MOL   H171 3811   7.351   6.140   7.258 -0.7273 -0.3148 -0.6302
   21MOL   H172 3812   7.433   6.444   7.378 -1.8836 -0.8093  0.4261
   21MOL   C173 3813   7.510   6.175   7.123  0.2840  0.1797 -0.5332
   21MOL   C174 3814   7.554   6.231   6.988  0.2169  0.2529  0.4771
   21MOL   C175 3815   7.704   6.249   6.987 -0.7982  0.4448 -0.2052
   21MOL   O176 3816   7.781   6.236   7.082  0.0260 -0.0906  0.2749
   21MOL   O177 3817   7.746   6.304   6.867  0.0656  0.0808 -0.1060
   21MOL   H178 3818   7.512   6.066   7.124  0.7739  0.1839 -0.6248
   21MOL   H179 3819   7.570   6.205   7.209 -1.7779  0.0739  0.9834
   21MOL   H180 3820   7.533   6.162   6.906  0.1455 -0.6568  1.2585
   21MOL   H181 3821   7.831   6.344   6.877  0.0519 -0.1622  1.0410
   21MOL   H182 3822   7.500   6.324   6.970  0.5961 -0.1480 -3.1663
   22MOL     C1 3823   7.182   5.171   1.014  0.3936  0.1725 -0.4189
   22MOL     C2 3824   7.061   5.079   1.019  0.3694  0.4876  0.4585
   22MOL     C3 3825   6.988   5.060   0.892  0.2688 -0.3556  0.7589
   22MOL     O4 3826   6.865   5.049   0.893  0.1661  0.4093  0.3803
   22MOL     O5 3827   7.069   5.047   0.779  0.1833  0.2857  0.5347
   22MOL     H6 3828   7.160   5.275   0.987 -0.0272  1.0249  3.0358
   22MOL     H7 3829   7.236   5.190   1.107  0.5978  0.8046 -0.6629
   22MOL     H8 3830   7.111   4.984   1.039 -0.7690 -0.2117  0.0232
   22MOL     H9 3831   7.022   5.028   0.699 -0.3334 -2.1716  1.3748
   22MOL    H10 3832   7.258   5.141   0.942  0.1991  0.8304 -0.9077
   22MOL    C11 3833   6.978   5.115   1.144 -0.3108  0.2108  0.6763
   22MOL    C12 3834   7.029   5.057   1.281 -0.2617  0.4145 -0.2365
   22MOL    C13 3835   7.003   4.904   1.287 -1.1605 -0.3082 -0.2988
   22MOL    O14 3836   6.896   4.851   1.271 -0.5763  0.1928 -0.0463
   22MOL    O15 3837   7.111   4.827   1.314 -0.6085 -0.4733  0.4874
   22MOL    H16 3838   6.875   5.084   1.128 -0.3817  0.6351  0.3048
   22MOL    H17 3839   6.972   5.224   1.150  2.3832  0.5972 -2.1372
   22MOL    H18 3840   7.138   5.060   1.282 -0.1924 -0.6839 -1.8218
   22MOL    H19 3841   7.098   4.734   1.304 -1.0359 -0.3296 -0.3021
   22MOL    C20 3842   6.974   5.117   1.409  0.9716 -0.0043 -0.1027
   22MOL    C21 3843   6.998   5.266   1.427 -0.5673 -0.1973  0.3454
   22MOL    C22 3844   7.143   5.291   1.454 -0.1310 -0.7652 -1.1104
   22MOL    O23 3845   7.196   5.281   1.567 -0.0959 -0.0041  0.3377
   22MOL    O24 3846   7.206   5.336   1.340  0.6745  0.4577  0.1723
   22MOL    H25 3847   7.006   5.066   1.500  0.7680  0.4184  0.2077
   22MOL    H26 3848   6.866   5.099   1.406  0.7505  1.1160  0.8455
   22MOL    H27 3849   6.966   5.310   1.332  1.8641 -0.0040 -0.4157
   22MOL    H28 3850   7.286   5.384   1.356 -0.0337  1.4544  0.7775
   22MOL    C29 3851   6.901   5.330   1.534 -0.0721 -0.3010 -0.8832
   22MOL    C30 3852   6.874   5.477   1.488 -0.4375  0.0372 -0.0161
   22MOL    C31 3853   6.837   5.561   1.609 -0.0787 -0.2087 -0.0996
   22MOL    O32 3854   6.751   5.527   1.694 -0.2074 -0.5290  0.7956
   22MOL    O33 3855   6.906   5.677   1.625 -0.3103 -0.1186  0.1004
   22MOL    H34 3856   6.946   5.339   1.634 -1.5869 -0.1154 -0.2041
   22MOL    H35 3857   6.814   5.265   1.532 -0.5822  0.2461  1.7337
   22MOL    H36 3858   6.970   5.511   1.449 -0.4853 -0.0889 -0.2465
   22MOL    H37 3859   6.890   5.715   1.710  1.4401  4.1371 -1.3828
   22MOL    C38 3860   6.766   5.482   1.379  0.0353 -0.2588  0.0357
   22MOL    C39 3861   6.745   5.620   1.309  0.3143  0.4826  0.5102
   22MOL    C40 3862   6.871   5.678   1.247  0.4807  0.1786 -0.3707
   22MOL    O41 3863   6.909   5.794   1.270 -0.9472 -0.3566 -0.2999
   22MOL    O42 3864   6.933   5.598   1.158  0.5933  0.3747  0.0803
   22MOL    H43 3865   6.674   5.429   1.402  0.1692 -0.2058  0.6968
   22MOL    H44 3866   6.789   5.408   1.302  0.4144 -0.2629  0.1523
   22MOL    H45 3867   6.690   5.602   1.216 -3.7918  2.1684  2.4638
   22MOL    H46 3868   6.989   5.663   1.118  0.6002 -0.6146 -1.5969
   22MOL    C47 3869   6.653   5.713   1.385  0.7062  0.1095  1.2771
   22MOL    C48 3870   6.610   5.852   1.315 -0.3212 -0.8260  0.3424
   22MOL    C49 3871   6.504   5.928   1.400  0.2493  0.5329 -0.1228
   22MOL    O50 3872   6.508   6.051   1.417  0.1653 -0.1785  0.0346
   22MOL    O51 3873   6.416   5.847   1.462 -0.2410  0.1057  0.0176
   22MOL    H52 3874   6.691   5.736   1.485 -0.8785 -1.3242  2.2278
   22MOL    H53 3875   6.565   5.651   1.396 -0.1887  1.0923 -0.1241
   22MOL    H54 3876   6.697   5.916   1.313  0.0186 -1.3178 -0.7211
   22MOL    H55 3877   6.350   5.896   1.507  1.4955  1.0573  1.5898
   22MOL    C56 3878   6.561   5.827   1.170 -0.7073  0.0014  0.1774
   22MOL    C57 3879   6.516   5.937   1.077  0.4382 -0.5465  0.3297
   22MOL    C58 3880   6.374   5.991   1.113 -0.0845  0.4018  0.8870
   22MOL    O59 3881   6.291   5.935   1.182 -0.4469  0.2771 -0.1704
   22MOL    O60 3882   6.356   6.116   1.050  0.3833 -0.2908 -0.1001
   22MOL    H61 3883   6.483   5.752   1.183 -0.7219 -0.4739 -2.3957
   22MOL    H62 3884   6.622   5.762   1.108 -2.2295 -0.0377 -1.3185
   22MOL    H63 3885   6.593   6.007   1.109 -1.1391  0.9371  0.9453
   22MOL    H64 3886   6.276   6.167   1.060  0.8474 -0.1226  3.3980
   22MOL    C65 3887   6.517   5.918   0.924  0.0579 -0.0998  0.4785
   22MOL    C66 3888   6.656   5.894   0.867 -0.1092  0.1537  0.9280
   22MOL    C67 3889   6.733   6.026   0.860 -0.5969  0.0940  0.3873
   22MOL    O68 3890   6.691   6.138   0.877  0.3445  0.0855 -0.1104
   22MOL    O69 3891   6.860   5.996   0.833 -0.1230  0.3091 -0.1006
   22MOL    H70 3892   6.487   6.008   0.871  0.0406 -0.1332  0.4318
   22MOL    H71 3893   6.452   5.835   0.895 -0.9764  0.5930  0.7930
   22MOL    H72 3894   6.716   5.839   0.940  1.0173  0.0429 -0.0720
   22MOL    H73 3895   6.918   6.071   0.834  0.9649 -0.4996 -1.0956
   22MOL    C74 3896   6.647   5.828   0.727  0.4418  0.6387 -0.0623
   22MOL    C75 3897   6.704   5.680   0.708 -0.8462  0.4342 -0.3728
   22MOL    C76 3898   6.620   5.575   0.789 -0.4659 -0.2245  0.2046
   22MOL    O77 3899   6.521   5.512   0.744  0.0213  0.8532 -0.4977
   22MOL    O78 3900   6.665   5.556   0.916  0.0129  1.0580 -0.1246
   22MOL    H79 3901   6.700   5.890   0.656  1.7871 -0.1213  0.2757
   22MOL    H80 3902   6.543   5.838   0.694  0.8598  1.6267 -1.1009
   22MOL    H81 3903   6.696   5.647   0.604 -0.5814  0.1279 -0.2952
   22MOL    H82 3904   6.625   5.476   0.947  0.0995  0.5101 -1.3867
   22MOL    C83 3905   6.855   5.679   0.741 -0.1847 -0.5952 -0.0054
   22MOL    C84 3906   6.938   5.559   0.708 -0.2670  0.9869 -0.1659
   22MOL    C85 3907   7.077   5.564   0.774  0.2322 -0.4647 -0.1838
   22MOL    O86 3908   7.179   5.615   0.727  0.1993  0.4848 -0.1174
   22MOL    O87 3909   7.067   5.530   0.903 -0.0579 -0.5662 -0.6708
   22MOL    H88 3910   6.863   5.706   0.846  0.1675  0.3107 -0.2591
   22MOL    H89 3911   6.901   5.761   0.686 -0.6723  1.0204  1.9124
   22MOL    H90 3912   6.884   5.479   0.760  0.2403  0.5861 -0.2458
   22MOL    H91 3913   7.146   5.536   0.954  0.2193  0.2341 -1.1869
   22MOL    C92 3914   6.950   5.540   0.550 -0.1997 -1.0307  0.5817
   22MOL    C93 3915   6.917   5.404   0.497  0.1444 -0.1918 -0.3191
   22MOL    C94 3916   6.767   5.358   0.531  0.0917  0.6091  0.5006
   22MOL    O95 3917   6.737   5.268   0.617  0.1162 -0.3666 -0.0104
   22MOL    O96 3918   6.671   5.421   0.461 -0.0961  0.5797  0.1691
   22MOL    H97 3919   7.048   5.572   0.514 -0.6597 -0.4182 -0.1468
   22MOL    H98 3920   6.885   5.607   0.494 -0.6997 -1.8853  0.1413
   22MOL    H99 3921   6.936   5.420   0.391 -1.3870 -1.1470 -0.7475
   22MOL   H100 3922   6.588   5.379   0.477  0.4977 -0.2640  1.0799
   22MOL   C101 3923   7.029   5.301   0.531 -0.6713 -0.9013 -0.0539
   22MOL   C102 3924   7.039   5.168   0.446 -0.8031 -1.0548 -0.7552
   22MOL   C103 3925   6.925   5.070   0.477 -0.1860 -0.1372 -0.6994
   22MOL   O104 3926   6.913   5.007   0.579 -0.5304  0.1385  0.0065
   22MOL   O105 3927   6.840   5.062   0.370  0.0627 -0.2917  0.8384
   22MOL   H106 3928   7.031   5.268   0.635 -2.1752  1.2850  0.6961
   22MOL   H107 3929   7.125   5.339   0.499 -1.2151  0.4451 -0.1209
   22MOL   H108 3930   7.027   5.187   0.339 -1.7811  1.2681 -0.2584
   22MOL   H109 3931   6.761   5.011   0.383 -0.0354 -0.3840 -0.0217
   22MOL   C110 3932   7.179   5.098   0.449  0.2960  0.0409 -0.2881
   22MOL   C111 3933   7.279   5.137   0.330  0.2065  0.0085 -0.2768
   22MOL   C112 3934   7.222   5.097   0.192 -0.0965 -0.6468 -0.6214
   22MOL   O113 3935   7.225   4.990   0.145  0.1942 -0.4088  0.0311
   22MOL   O114 3936   7.170   5.204   0.134 -0.0302 -0.1842 -0.1676
   22MOL   H115 3937   7.161   4.991   0.442 -1.2868  0.3744 -2.0346
   22MOL   H116 3938   7.220   5.105   0.549 -1.1145 -0.1644  0.3146
   22MOL   H117 3939   7.297   5.245   0.331 -1.0461  0.2419 -1.2268
   22MOL   H118 3940   7.159   5.173   0.046  2.1190 -0.0173 -0.5297
   22MOL   C119 3941   7.416   5.083   0.366 -0.1078 -0.9167 -0.2753
   22MOL   C120 3942   7.543   5.099   0.275 -0.3599  0.0668 -0.0209
   22MOL   C121 3943   7.587   4.971   0.201  0.4430 -1.1554  0.5964
   22MOL   O122 3944   7.563   4.858   0.244  0.2106  0.2991 -0.2219
   22MOL   O123 3945   7.657   5.004   0.085  0.1178 -0.6870  0.0091
   22MOL   H124 3946   7.405   4.978   0.394  3.0997 -1.2638 -0.0975
   22MOL   H125 3947   7.440   5.123   0.464 -0.1624 -0.2586 -0.5258
   22MOL   H126 3948   7.499   5.159   0.195 -3.6987 -3.1883 -0.7315
   22MOL   H127 3949   7.679   4.928   0.033  2.2846  1.1663 -1.8852
   22MOL   C128 3950   7.662   5.156   0.362 -0.0447 -0.6342 -1.3136
   22MOL   C129 3951   7.765   5.229   0.286  0.3765 -0.0432 -0.6238
   22MOL   C130 3952   0.044   5.252   0.363 -0.6516 -0.3650  0.6353
   22MOL   O131 3953   0.070   5.207   0.471 -0.2951  0.4446 -0.1050
   22MOL   O132 3954   0.121   5.343   0.298 -0.1848 -0.8180 -0.3400
   22MOL   H133 3955   7.709   5.070   0.412 -1.7157 -1.0705 -0.4765
   22MOL   H134 3956   7.629   5.222   0.442 -0.7712 -2.0128 -0.4608
   22MOL   H135 3957   7.790   5.162   0.203  1.1026 -0.7884  0.1885
   22MOL   H136 3958   0.205   5.379   0.324 -2.3983  2.3442  2.9323
   22MOL   C137 3959   7.714   5.346   0.196  0.1896  0.0486  0.6809
   22MOL   C138 3960   7.597   5.438   0.250 -0.4639 -0.1049  0.3408
   22MOL   C139 3961   7.568   5.548   0.146  0.3226  0.3701  0.3295
   22MOL   O140 3962   7.463   5.554   0.078 -0.4511 -0.4081  0.3003
   22MOL   O141 3963   7.679   5.631   0.134 -0.1947 -0.2393  0.8055
   22MOL   H142 3964   7.681   5.304   0.101 -2.7720  3.7795 -0.0316
   22MOL   H143 3965   7.791   5.416   0.164  0.5734 -1.1867 -1.1902
   22MOL   H144 3966   7.510   5.372   0.259 -1.2945  0.9528  0.0712
   22MOL   H145 3967   7.670   5.688   0.060 -0.2049 -0.8550  0.3336
   22MOL   C146 3968   7.624   5.497   0.396  0.1987 -0.2984 -0.3369
   22MOL   C147 3969   7.494   5.520   0.477  0.3696 -0.0929 -0.1304
   22MOL   C148 3970   7.417   5.647   0.431  0.4778 -0.4433  0.1405
   22MOL   O149 3971   7.460   5.767   0.423 -0.1536  0.6825 -0.2945
   22MOL   O150 3972   7.291   5.612   0.401 -0.2049  0.6253  0.2641
   22MOL   H151 3973   7.687   5.586   0.392 -0.7507  0.6115  3.1160
   22MOL   H152 3974   7.687   5.432   0.457  0.7750 -0.4402 -1.0760
   22MOL   H153 3975   7.425   5.443   0.442 -0.4823  0.5092  0.2117
   22MOL   H154 3976   7.236   5.685   0.377  0.2033  0.7094 -0.4236
   22MOL   C155 3977   7.531   5.522   0.627  0.8311 -0.1277 -0.4996
   22MOL   C156 3978   7.563   5.385   0.696  0.9107 -0.3659 -0.3267
   22MOL   C157 3979   7.442   5.285   0.691 -1.0339  0.2906 -0.2209
   22MOL   O158 3980   7.329   5.319   0.657 -0.1146  0.3236  0.2328
   22MOL   O159 3981   7.470   5.162   0.728 -0.4829  0.5503  0.1819
   22MOL   H160 3982   7.436   5.560   0.665 -0.0677 -1.3161 -1.5230
   22MOL   H161 3983   7.613   5.591   0.651  1.0458 -1.5369  3.1366
   22MOL   H162 3984   7.636   5.339   0.628  0.4758  1.0090 -1.7656
   22MOL   H163 3985   7.395   5.117   0.765 -0.1560 -1.2739 -1.3297
   22MOL   C164 3986   7.615   5.397   0.843  0.2957 -0.6508  0.1127
   22MOL   C165 3987   7.533   5.410   0.973 -1.0242  0.1901 -0.0205
   22MOL   C166 3988   7.435   5.528   0.966 -0.4048  0.3692  0.0245
   22MOL   O167 3989   7.318   5.516   0.994  0.3521 -0.4068  0.1750
   22MOL   O168 3990   7.496   5.646   0.929  0.2270  0.0061  0.1495
   22MOL   H169 3991   7.682   5.483   0.839  0.0332 -0.4546 -0.0457
   22MOL   H170 3992   7.678   5.311   0.866  0.9852 -0.8779 -2.4691
   22MOL   H171 3993   7.464   5.332   1.003 -1.1101  0.5642  0.7627
   22MOL   H172 3994   7.424   5.707   0.923  0.5416  0.5061  1.3223
   22MOL   C173 3995   7.621   5.427   1.103  0.6474 -0.1619  0.3368
   22MOL   C174 3996   7.742   5.526   1.090 -0.2730  0.0059 -0.1744
   22MOL   C175 3997   7.820   5.530   1.223 -0.3706  0.0337 -0.6887
   22MOL   O176 3998   7.825   5.631   1.290 -0.9070  0.0363  0.2032
   22MOL   O177 3999   0.012   5.408   1.242 -0.3807  0.7584  0.1184
   22MOL   H178 4000   7.654   5.325   1.122  0.1974  0.0346  2.1924
   22MOL   H179 4001   7.555   5.452   1.186  0.2016 -0.5475  0.0994
   22MOL   H180 4002   7.802   5.518   1.000 -2.1830 -4.3750 -1.1893
   22MOL   H181 4003   0.054   5.402   1.326  0.4871 -0.5353 -0.3990
   22MOL   H182 4004   7.707   5.629   1.085  1.6022  0.7757  1.8408
   23MOL     C1 4005   6.019   0.460   4.945 -0.1710  0.6347 -0.5148
   23MOL     C2 4006   6.017   0.519   4.798 -0.7980 -0.1729  0.1904
   23MOL     C3 4007   5.900   0.613   4.781  0.7148 -0.5214 -0.5359
   23MOL     O4 4008   5.811   0.632   4.862  0.3131  0.1361 -0.4617
   23MOL     O5 4009   5.920   0.689   4.668 -0.2706  0.2469  0.4216
   23MOL     H6 4010   6.124   0.445   4.971 -0.6481  0.0329  1.0931
   23MOL     H7 4011   5.980   0.539   5.010 -2.0651  0.8121 -1.8174
   23MOL     H8 4012   6.101   0.588   4.793 -1.1465  0.5618  3.4294
   23MOL     H9 4013   5.990   0.669   4.607 -1.5708 -0.1278 -0.9925
   23MOL    H10 4014   5.971   0.364   4.962 -0.0635  0.5772 -0.5400
   23MOL    C11 4015   6.025   0.402   4.687  0.2442  0.0798 -0.8491
   23MOL    C12 4016   6.160   0.381   4.624 -0.5788 -0.4659 -0.5566
   23MOL    C13 4017   6.203   0.511   4.548  0.5174 -0.5825  0.1271
   23MOL    O14 4018   6.141   0.619   4.534 -0.3328  0.3164  0.0665
   23MOL    O15 4019   6.323   0.493   4.484  0.2342 -0.0933  0.3460
   23MOL    H16 4020   5.954   0.434   4.611  0.0551 -0.5158 -0.9281
   23MOL    H17 4021   5.990   0.305   4.723 -2.2490  1.2225 -0.0709
   23MOL    H18 4022   6.226   0.372   4.710  0.4532 -4.1466 -1.6070
   23MOL    H19 4023   6.336   0.569   4.430  1.1402  0.3817  1.2088
   23MOL    C20 4024   6.163   0.244   4.539  0.6900 -0.4468  0.2616
   23MOL    C21 4025   6.302   0.173   4.536  0.3957  0.0656 -0.3243
   23MOL    C22 4026   6.376   0.208   4.407  0.8756 -0.1931  0.1005
   23MOL    O23 4027   6.331   0.190   4.297  0.2047 -0.4672  0.5352
   23MOL    O24 4028   6.498   0.260   4.436 -0.7504  0.3270  0.6391
   23MOL    H25 4029   6.139   0.271   4.436 -0.0275  0.5034  0.6687
   23MOL    H26 4030   6.095   0.163   4.566  0.4212 -0.1393  0.4996
   23MOL    H27 4031   6.356   0.204   4.626 -0.0659  0.7702 -0.2813
   23MOL    H28 4032   6.543   0.284   4.356 -0.7620 -0.3133  0.4307
   23MOL    C29 4033   6.278   0.026   4.543 -0.2575  0.6603 -0.7319
   23MOL    C30 4034   6.398   7.789   4.582  0.4476 -0.2305 -0.2691
   23MOL    C31 4035   6.371   7.636   4.566  0.5155  0.4877 -0.2051
   23MOL    O32 4036   6.295   7.595   4.487 -0.5685 -0.6356  0.4973
   23MOL    O33 4037   6.439   7.559   4.656 -0.2715 -0.5034 -0.1330
   23MOL    H34 4038   6.233   7.837   4.453  0.9476 -2.2867 -0.0322
   23MOL    H35 4039   6.205   0.002   4.620 -0.0993  1.2667 -0.3883
   23MOL    H36 4040   6.471   7.802   4.502 -1.9293 -2.7212 -2.9741
   23MOL    H37 4041   6.402   7.474   4.636 -0.6232  0.0277 -1.7974
   23MOL    C38 4042   6.479   7.835   4.705  0.1435 -0.1357 -0.3195
   23MOL    C39 4043   6.413   7.819   4.844 -0.4859 -0.4307 -0.3860
   23MOL    C40 4044   6.272   0.023   4.869 -0.6193 -0.5684  0.3181
   23MOL    O41 4045   6.247   0.146   4.870  0.0508 -0.2540 -0.4983
   23MOL    O42 4046   6.181   7.784   4.886  0.1928 -0.1049 -0.1392
   23MOL    H43 4047   6.517   0.083   4.692  0.3423 -0.3079 -1.1021
   23MOL    H44 4048   6.564   7.767   4.710  0.4070  0.2353  0.1886
   23MOL    H45 4049   6.396   7.714   4.867 -3.1031 -0.1619 -0.9446
   23MOL    H46 4050   6.098   7.822   4.910  0.0029  0.9397 -2.3408
   23MOL    C47 4051   6.502   0.023   4.961  0.0405  0.7662 -0.4121
   23MOL    C48 4052   6.611   7.784   5.016 -0.5019  0.1910  0.0212
   23MOL    C49 4053   6.549   7.677   5.107  0.1892  0.1992  0.1829
   23MOL    O50 4054   6.561   7.677   5.229  0.4882  0.3737  0.0873
   23MOL    O51 4055   6.488   7.579   5.032 -0.0901  0.3098  0.5851
   23MOL    H52 4056   6.433   0.036   5.044 -1.2043  1.2348 -1.4929
   23MOL    H53 4057   6.550   0.115   4.928 -0.9081  0.9814 -1.2280
   23MOL    H54 4058   6.653   7.728   4.932  1.4168  1.6250  0.0006
   23MOL    H55 4059   6.466   7.511   5.094 -0.0002 -2.0772 -1.9244
   23MOL    C56 4060   6.727   0.013   5.077  0.6039  0.2794 -1.0646
   23MOL    C57 4061   6.829   0.073   4.983  0.6496 -0.8174 -0.5094
   23MOL    C58 4062   6.918   7.819   4.922 -0.2863 -0.3279 -0.0385
   23MOL    O59 4063   7.004   7.849   4.847 -0.0898 -0.2470 -0.1645
   23MOL    O60 4064   6.906   7.690   4.963  0.4200 -0.2639 -0.3559
   23MOL    H61 4065   6.768   7.800   5.153 -0.6571  1.1905  0.4203
   23MOL    H62 4066   6.699   0.093   5.145  0.8871 -0.1696 -0.4235
   23MOL    H63 4067   6.774   0.124   4.904 -0.6401 -1.6353 -0.1560
   23MOL    H64 4068   6.976   7.634   4.932  0.0643 -0.5733 -0.6057
   23MOL    C65 4069   6.924   0.168   5.064 -1.1394 -0.1564 -0.7394
   23MOL    C66 4070   7.012   0.105   5.178 -0.5865  0.5349 -1.0826
   23MOL    C67 4071   6.968   0.155   5.312  0.4631 -0.3270 -0.8313
   23MOL    O68 4072   6.916   0.077   5.395  0.6572 -0.5689 -0.2277
   23MOL    O69 4073   6.989   0.288   5.334  0.0536  0.4676  0.4521
   23MOL    H70 4074   6.855   0.237   5.112 -0.3524 -0.5150  0.9795
   23MOL    H71 4075   6.987   0.224   4.995 -0.5949  1.0711  0.7186
   23MOL    H72 4076   6.998   7.850   5.189 -1.0573  0.7440  0.5289
   23MOL    H73 4077   6.947   0.312   5.415 -1.1899 -2.4751  0.7496
   23MOL    C74 4078   7.171   0.121   5.165  0.5286  0.7351  0.2990
   23MOL    C75 4079   7.244   7.850   5.103  0.5891 -0.4133  0.5048
   23MOL    C76 4080   7.231   7.730   5.191  0.4088  0.4065  0.0326
   23MOL    O77 4081   7.198   7.622   5.147  0.2571  0.6103 -0.3494
   23MOL    O78 4082   7.259   7.746   5.323 -0.0898 -0.8713  0.1635
   23MOL    H79 4083   7.221   0.149   5.258  0.2978 -0.2875  0.7303
   23MOL    H80 4084   7.200   0.204   5.100  1.4376  0.6614  0.6127
   23MOL    H81 4085   7.183   7.830   5.015 -1.0395  2.1359  0.9910
   23MOL    H82 4086   7.233   7.668   5.370  0.6641 -0.9369  0.4772
   23MOL    C83 4087   7.391   0.036   5.051 -0.0268 -0.0485 -0.4589
   23MOL    C84 4088   7.458   7.791   4.952  0.5651  0.2258  0.4714
   23MOL    C85 4089   7.615   7.800   4.953 -0.1916  0.1788  0.1219
   23MOL    O86 4090   7.680   0.052   4.970 -0.1714 -0.2087 -0.7842
   23MOL    O87 4091   7.668   7.678   4.926  0.5806  0.3197 -0.2023
   23MOL    H88 4092   7.456   0.032   5.138  1.7564  0.0436 -1.7495
   23MOL    H89 4093   7.400   0.138   5.015  2.1097  0.2213  0.8037
   23MOL    H90 4094   7.440   7.691   4.992 -0.6097  0.5224  0.6818
   23MOL    H91 4095   7.600   7.625   4.886 -0.1772  0.9608  0.2274
   23MOL    C92 4096   7.398   7.804   4.807 -0.1669 -0.3042 -0.0670
   23MOL    C93 4097   7.325   7.695   4.731 -0.2182  0.3143 -0.4123
   23MOL    C94 4098   7.399   7.560   4.729 -0.2142 -0.5160 -0.0325
   23MOL    O95 4099   7.505   7.538   4.790 -0.5501 -0.2101 -0.5369
   23MOL    O96 4100   7.326   7.458   4.673  0.6544  0.3510  0.2488
   23MOL    H97 4101   7.480   7.842   4.746  1.4990 -0.7274  1.8190
   23MOL    H98 4102   7.330   0.036   4.811  0.5484  0.2473  0.7666
   23MOL    H99 4103   7.241   7.674   4.797  0.9110 -0.2564  0.8701
   23MOL   H100 4104   7.240   7.479   4.639 -0.1623 -1.1604  1.2984
   23MOL   C101 4105   7.255   7.740   4.600 -0.2370  0.4616  0.1168
   23MOL   C102 4106   7.332   7.735   4.465  0.2612 -0.0406  0.2016
   23MOL   C103 4107   7.400   0.016   4.442  0.0488 -0.2168 -0.1354
   23MOL   O104 4108   7.332   0.120   4.453  0.2046 -0.3749  0.4109
   23MOL   O105 4109   7.536   0.008   4.410  0.9274 -0.4862 -0.0177
   23MOL   H106 4110   7.210   7.834   4.632  0.0012  0.4326  0.5380
   23MOL   H107 4111   7.167   7.678   4.584  2.3574 -3.0259 -1.1689
   23MOL   H108 4112   7.410   7.659   4.466  2.4680  2.2078  0.5449
   23MOL   H109 4113   7.558   0.100   4.403 -1.6448  0.3988  2.4732
   23MOL   C110 4114   7.235   7.703   4.343  0.2758 -0.1180  0.0940
   23MOL   C111 4115   7.299   7.713   4.205  0.1626  0.3946  0.1440
   23MOL   C112 4116   7.202   7.755   4.098  0.2672  0.1455 -0.1849
   23MOL   O113 4117   7.126   7.679   4.038 -0.0772  0.5981  0.7348
   23MOL   O114 4118   7.204   0.034   4.087  0.3614  0.7261 -0.1458
   23MOL   H115 4119   7.159   7.781   4.346 -0.5871 -0.9275 -0.5428
   23MOL   H116 4120   7.188   7.606   4.359 -0.7138  0.1514 -1.0893
   23MOL   H117 4121   7.374   7.792   4.199 -1.8147  2.3482  0.5822
   23MOL   H118 4122   7.165   0.067   4.007  1.4572  0.8031 -0.6666
   23MOL   C119 4123   7.371   7.577   4.170 -0.4321  0.3709 -0.4167
   23MOL   C120 4124   7.463   7.556   4.044  1.0513  0.4390  0.9287
   23MOL   C121 4125   7.393   7.461   3.940 -0.4479 -0.2756  0.7518
   23MOL   O122 4126   7.272   7.455   3.921 -0.5287 -0.2042 -0.0683
   23MOL   O123 4127   7.482   7.395   3.857  0.1125  0.1491  0.2835
   23MOL   H124 4128   7.294   7.501   4.153  2.0738 -2.3416  0.0342
   23MOL   H125 4129   7.418   7.548   4.264 -0.1828  1.1577 -0.2915
   23MOL   H126 4130   7.469   7.656   4.001 -0.1693  0.2876  0.3822
   23MOL   H127 4131   7.431   7.356   3.787  1.9053  0.8117 -1.4619
   23MOL   C128 4132   7.606   7.513   4.076  0.0235 -0.5392 -0.5177
   23MOL   C129 4133   7.695   7.626   4.130 -0.1944 -0.0900 -0.2260
   23MOL   C130 4134   7.732   7.725   4.019 -1.1798  0.2349 -0.1338
   23MOL   O131 4135   7.769   7.695   3.900 -0.1804 -0.0358  0.1869
   23MOL   O132 4136   7.718   0.003   4.051 -0.6919 -0.2452 -0.7726
   23MOL   H133 4137   7.654   7.481   3.984 -2.3840 -2.4929 -1.1302
   23MOL   H134 4138   7.622   7.419   4.128  3.6917 -0.1475 -0.7951
   23MOL   H135 4139   7.641   7.678   4.209  1.6420 -0.2826  1.1799
   23MOL   H136 4140   7.753   0.062   3.986  0.5389 -1.8636 -1.6284
   23MOL   C137 4141   7.834   7.576   4.200 -0.3696 -0.2080  0.0121
   23MOL   C138 4142   7.802   7.514   4.338 -0.6525  0.2194  0.8891
   23MOL   C139 4143   7.821   7.602   4.456 -0.1167  0.3066 -0.8473
   23MOL   O140 4144   0.024   7.715   4.447 -0.1622 -0.1005 -0.3070
   23MOL   O141 4145   7.773   7.553   4.575 -0.0010 -0.1491  0.0391
   23MOL   H142 4146   0.066   7.645   4.198 -0.8416  0.4668  2.0214
   23MOL   H143 4147   0.016   7.498   4.133  1.6131  2.1938 -1.8879
   23MOL   H144 4148   7.694   7.498   4.342 -0.3669 -2.2380 -0.0588
   23MOL   H145 4149   7.779   7.611   4.649  0.8100  2.0522 -1.7104
   23MOL   C146 4150   0.016   7.380   4.363  0.0204  1.0830  0.2781
   23MOL   C147 4151   0.171   7.383   4.377 -0.7038 -0.2666 -0.3913
   23MOL   C148 4152   0.247   7.311   4.271 -0.2697 -0.3393  0.4015
   23MOL   O149 4153   0.325   7.373   4.196  0.5462  0.3258 -0.2896
   23MOL   O150 4154   0.215   7.179   4.263  0.0644  0.3297 -0.0346
   23MOL   H151 4155   7.849   7.320   4.275  1.2066  2.0111 -0.6501
   23MOL   H152 4156   7.841   7.348   4.463 -0.1999  0.4331  0.0079
   23MOL   H153 4157   0.199   7.488   4.374 -0.2072 -0.3963 -0.3066
   23MOL   H154 4158   0.274   7.131   4.206 -0.9353 -0.4107 -0.4607
   23MOL   C155 4159   0.221   7.341   4.518 -0.5208 -0.3393  0.9359
   23MOL   C156 4160   0.369   7.375   4.556 -0.1315  0.1201  0.8091
   23MOL   C157 4161   0.450   7.254   4.594  0.1517 -0.1683  0.2817
   23MOL   O158 4162   0.412   7.154   4.648  0.2356 -0.4111  0.4358
   23MOL   O159 4163   0.580   7.274   4.569  0.1357  0.7513  0.4365
   23MOL   H160 4164   0.214   7.233   4.530 -0.2586 -0.4231  0.3742
   23MOL   H161 4165   0.154   7.380   4.594 -1.0448  0.8134 -0.1069
   23MOL   H162 4166   0.417   7.414   4.466 -1.5054  0.8493  0.3778
   23MOL   H163 4167   0.630   7.198   4.595  2.6679  0.9341 -3.3951
   23MOL   C164 4168   0.382   7.493   4.655  0.7721  0.8846  0.0065
   23MOL   C165 4169   0.350   7.634   4.600 -0.2689  0.1079 -0.2731
   23MOL   C166 4170   0.455   7.673   4.496  0.0059 -0.0966 -0.7203
   23MOL   O167 4171   0.576   7.652   4.499 -0.4254  0.9258 -0.2908
   23MOL   O168 4172   0.401   7.749   4.406  0.2224  0.7164  0.1048
   23MOL   H169 4173   0.475   7.514   4.708  0.4525  0.6211  0.6735
   23MOL   H170 4174   0.304   7.484   4.730  0.8821  1.8778  0.2505
   23MOL   H171 4175   0.253   7.630   4.550 -0.4284 -1.7090  0.1660
   23MOL   H172 4176   0.478   7.759   4.353 -0.6212 -1.7504 -1.6814
   23MOL   C173 4177   0.339   7.741   4.719 -0.4315  0.0677 -0.5118
   23MOL   C174 4178   0.248   0.012   4.681 -0.5635 -0.1811 -0.1641
   23MOL   C175 4179   0.105   7.845   4.717  0.2275  0.6508 -0.2478
   23MOL   O176 4180   0.060   7.746   4.770  0.0454  0.1234  0.0159
   23MOL   O177 4181   0.030   0.100   4.691  0.8066  0.2380 -0.5992
   23MOL   H178 4182   0.438   7.780   4.746 -0.4521  0.5302 -1.0916
   23MOL   H179 4183   0.294   7.692   4.805  1.5669 -2.5061 -0.8635
   23MOL   H180 4184   0.287   0.095   4.740  2.4981 -2.1170  0.5800
   23MOL   H181 4185   7.790   0.090   4.706  0.5119 -0.5615 -2.7489
   23MOL   H182 4186   0.249   0.041   4.576 -3.7480  0.3715 -0.1013
   24MOL     C1 4187   7.273   0.599   3.064 -0.2000  0.2943  0.0552
   24MOL     C2 4188   7.255   0.746   3.022 -0.0619  0.7479 -1.0173
   24MOL     C3 4189   7.335   0.795   2.901  0.1192 -0.4984  0.5210
   24MOL     O4 4190   7.425   0.727   2.850  0.4290 -0.5235  0.1312
   24MOL     O5 4191   7.294   0.916   2.855 -0.5203  0.2159  0.2462
   24MOL     H6 4192   7.255   0.591   3.171  2.6836 -1.7341  0.4381
   24MOL     H7 4193   7.206   0.543   2.999 -0.8533  0.6166  0.4392
   24MOL     H8 4194   7.150   0.757   2.995 -0.2955 -0.0653 -0.4839
   24MOL     H9 4195   7.341   0.935   2.775  2.2149  2.0920  2.2185
   24MOL    H10 4196   7.375   0.566   3.047 -0.0476  1.3087 -1.0612
   24MOL    C11 4197   7.264   0.843   3.138 -0.4377  0.3308 -0.6031
   24MOL    C12 4198   7.143   0.939   3.169 -0.1083 -0.8265 -1.1819
   24MOL    C13 4199   7.143   1.056   3.073  0.2871 -0.2539 -0.5881
   24MOL    O14 4200   7.058   1.071   2.986  0.3727 -0.4340 -0.1690
   24MOL    O15 4201   7.235   1.154   3.093  0.9112 -0.7495  0.1228
   24MOL    H16 4202   7.354   0.903   3.124  0.7528 -1.4759 -0.8558
   24MOL    H17 4203   7.287   0.791   3.231  3.4659  1.2225 -0.9907
   24MOL    H18 4204   7.046   0.891   3.158 -0.0511 -1.3544  0.6115
   24MOL    H19 4205   7.221   1.218   3.026 -0.8571 -0.1641  1.0176
   24MOL    C20 4206   7.136   0.985   3.318 -0.5115 -0.4101 -0.9490
   24MOL    C21 4207   7.083   0.893   3.425 -0.4656  0.3740 -0.1238
   24MOL    C22 4208   7.188   0.796   3.493  0.1673 -0.1985 -0.8808
   24MOL    O23 4209   7.179   0.676   3.493  0.3131  0.0429 -0.3673
   24MOL    O24 4210   7.283   0.860   3.565 -0.5625 -0.1288  0.3076
   24MOL    H25 4211   7.074   1.073   3.334 -0.9075 -1.1374  1.7929
   24MOL    H26 4212   7.238   1.012   3.349  0.0305 -2.6879 -0.6580
   24MOL    H27 4213   7.050   0.964   3.502 -1.9193 -0.7608  0.3219
   24MOL    H28 4214   7.343   0.804   3.613  0.9258 -0.8229 -2.2307
   24MOL    C29 4215   6.947   0.828   3.380  0.0005 -0.0534 -0.1826
   24MOL    C30 4216   6.864   0.758   3.493  0.0579  0.2397  0.4033
   24MOL    C31 4217   6.789   0.636   3.440  0.3609 -0.4813 -0.1720
   24MOL    O32 4218   6.732   0.630   3.334 -0.0084 -0.4197 -0.1621
   24MOL    O33 4219   6.785   0.536   3.529 -0.5844  0.2854  0.3914
   24MOL    H34 4220   6.966   0.757   3.300  1.4704 -2.1709  1.9719
   24MOL    H35 4221   6.887   0.907   3.336 -0.3704  1.1014  2.3017
   24MOL    H36 4222   6.928   0.715   3.570  0.8436  1.2996  0.3503
   24MOL    H37 4223   6.755   0.461   3.480 -0.2717  1.6339 -1.9304
   24MOL    C38 4224   6.766   0.850   3.559 -0.0059 -0.1644  0.1942
   24MOL    C39 4225   6.689   0.800   3.679 -0.0093  0.1311  0.1514
   24MOL    C40 4226   6.594   0.907   3.713  0.8908  0.6906  0.0856
   24MOL    O41 4227   6.611   0.984   3.808  0.4070 -0.7519  0.2954
   24MOL    O42 4228   6.481   0.908   3.640 -0.4426  0.1497  0.4018
   24MOL    H43 4229   6.692   0.866   3.481 -1.3266 -2.5409  0.9142
   24MOL    H44 4230   6.824   0.940   3.581 -1.3405  0.4437  1.3301
   24MOL    H45 4231   6.632   0.714   3.643  0.7181  0.1231 -0.9766
   24MOL    H46 4232   6.427   0.980   3.668 -1.3150  0.5443 -2.2005
   24MOL    C47 4233   6.788   0.738   3.788 -0.0437 -0.0111  0.2930
   24MOL    C48 4234   6.723   0.698   3.927 -0.5595 -0.4542  0.7171
   24MOL    C49 4235   6.829   0.671   4.030  0.0298 -0.2081 -0.6332
   24MOL    O50 4236   6.819   0.733   4.143 -0.1018 -0.7705 -0.0018
   24MOL    O51 4237   6.934   0.592   3.993  0.8939  0.2785  0.4217
   24MOL    H52 4238   6.872   0.804   3.810 -0.0841  0.6984 -1.5842
   24MOL    H53 4239   6.837   0.650   3.746 -0.7003 -0.7772  1.0946
   24MOL    H54 4240   6.673   0.785   3.969 -0.9451 -1.3576  2.1332
   24MOL    H55 4241   6.931   0.550   3.909  1.0032 -0.6344  0.8738
   24MOL    C56 4242   6.614   0.593   3.912  0.2707  0.6211 -0.5862
   24MOL    C57 4243   6.502   0.607   4.021  0.2140 -0.2141 -0.1110
   24MOL    C58 4244   6.425   0.473   4.043 -0.1211  0.6693  0.1042
   24MOL    O59 4245   6.355   0.430   3.960  0.5047  0.2236 -0.0190
   24MOL    O60 4246   6.440   0.426   4.171 -0.0925  0.7872 -0.1973
   24MOL    H61 4247   6.652   0.491   3.922 -0.8731  0.1693 -0.7487
   24MOL    H62 4248   6.563   0.597   3.815 -1.8576  0.7543  0.5007
   24MOL    H63 4249   6.567   0.610   4.109 -0.1823  2.4358  0.1389
   24MOL    H64 4250   6.376   0.358   4.185  0.2766  1.0078  2.8412
   24MOL    C65 4251   6.418   0.734   4.020 -0.2548  0.9344 -0.1514
   24MOL    C66 4252   6.436   0.819   4.143  0.8228 -0.8933  0.1334
   24MOL    C67 4253   6.392   0.742   4.272  0.2791 -0.7490  0.4668
   24MOL    O68 4254   6.280   0.685   4.275  0.1334 -0.1035  0.6172
   24MOL    O69 4255   6.468   0.751   4.381 -0.2257 -0.2086  0.3207
   24MOL    H70 4256   6.316   0.699   4.004 -0.3076  1.6310 -1.3502
   24MOL    H71 4257   6.427   0.775   3.920 -3.0176  0.1707 -0.7578
   24MOL    H72 4258   6.545   0.827   4.152  0.7148 -1.2219  1.7460
   24MOL    H73 4259   6.542   0.809   4.370 -1.3371  1.0840 -0.5643
   24MOL    C74 4260   6.392   0.966   4.131  0.1242  0.1866 -0.3289
   24MOL    C75 4261   6.235   0.996   4.137  0.1007 -0.0367 -0.0354
   24MOL    C76 4262   6.162   0.962   4.004  0.4767 -0.1689 -0.3274
   24MOL    O77 4263   6.068   0.879   4.003  0.1467 -0.0055 -0.1313
   24MOL    O78 4264   6.197   1.027   3.893  0.1164  0.0431 -0.0692
   24MOL    H79 4265   6.442   1.012   4.046 -0.1291  0.8481 -0.1224
   24MOL    H80 4266   6.438   1.015   4.217 -1.7728  2.2780 -0.4508
   24MOL    H81 4267   6.191   0.930   4.211  0.6166  1.3735  1.5524
   24MOL    H82 4268   6.130   0.992   3.835  1.0798 -1.0513 -0.5446
   24MOL    C83 4269   6.198   1.142   4.170 -0.0735 -1.2772  0.2983
   24MOL    C84 4270   6.053   1.183   4.167  0.5475  0.3179 -0.4368
   24MOL    C85 4271   6.051   1.318   4.093  0.5217 -0.0014  0.1318
   24MOL    O86 4272   6.026   1.428   4.143 -0.4846 -0.1082 -0.2174
   24MOL    O87 4273   6.083   1.297   3.959 -0.0809 -0.5141  0.0147
   24MOL    H88 4274   6.269   1.198   4.109  0.0533 -0.0538  1.5537
   24MOL    H89 4275   6.225   1.164   4.273  0.1450 -0.5819  0.0958
   24MOL    H90 4276   5.996   1.112   4.107  1.7591  0.6364 -2.0002
   24MOL    H91 4277   6.062   1.370   3.903 -0.1503 -1.7169 -1.5745
   24MOL    C92 4278   5.982   1.192   4.301  0.4002 -0.2250  0.3831
   24MOL    C93 4279   6.004   1.073   4.397  1.0457  0.0658 -0.2026
   24MOL    C94 4280   5.928   0.949   4.352  0.0980  0.5561 -0.4203
   24MOL    O95 4281   5.845   0.958   4.262 -0.8985  0.2540 -0.2286
   24MOL    O96 4282   5.955   0.838   4.429 -0.2015  0.3961  0.4940
   24MOL    H97 4283   5.878   1.223   4.285  0.5482  0.4365  0.7087
   24MOL    H98 4284   6.036   1.270   4.355 -0.2813  1.3722 -1.1872
   24MOL    H99 4285   6.105   1.031   4.392  0.2258 -1.8566 -1.4382
   24MOL   H100 4286   5.914   0.759   4.397 -1.2430  1.5835 -1.1521
   24MOL   C101 4287   5.963   1.113   4.539 -0.0949  0.7504 -0.6273
   24MOL   C102 4288   6.081   1.131   4.635 -0.0799  0.1440  0.2775
   24MOL   C103 4289   6.144   0.996   4.665 -0.3543 -0.6123 -0.3703
   24MOL   O104 4290   6.107   0.932   4.766 -0.4292 -0.2283 -0.4048
   24MOL   O105 4291   6.237   0.957   4.575  0.3174 -0.1512  0.3155
   24MOL   H106 4292   5.890   1.046   4.585  0.1068  2.5867  2.5147
   24MOL   H107 4293   5.903   1.204   4.536  1.1688  1.6159 -0.0930
   24MOL   H108 4294   6.152   1.195   4.582 -0.2677 -1.0851 -1.4807
   24MOL   H109 4295   6.276   0.876   4.606  3.8663  0.7815 -1.4821
   24MOL   C110 4296   6.039   1.213   4.758 -0.3661 -0.0797 -0.2835
   24MOL   C111 4297   6.015   1.364   4.743  0.3519 -0.3753  0.3744
   24MOL   C112 4298   6.144   1.434   4.691 -0.1219 -0.3567 -0.6630
   24MOL   O113 4299   6.264   1.394   4.689  0.0969 -0.1248 -0.4589
   24MOL   O114 4300   6.115   1.557   4.639  0.2792  0.3918  0.1142
   24MOL   H115 4301   6.112   1.198   4.838 -0.2806  1.2542 -0.1036
   24MOL   H116 4302   5.947   1.167   4.795 -2.1845  3.0194 -0.7645
   24MOL   H117 4303   5.934   1.367   4.670  0.2583  0.8114  0.5192
   24MOL   H118 4304   6.198   1.591   4.611  0.6488  1.3241  2.2472
   24MOL   C119 4305   5.957   1.449   4.867 -0.3993 -0.4968  0.3479
   24MOL   C120 4306   5.864   1.564   4.831  0.1265 -0.1290  0.6849
   24MOL   C121 4307   5.867   1.672   4.938  0.3854  0.2284  0.6804
   24MOL   O122 4308   5.895   1.793   4.926  0.1602  0.7544 -0.7765
   24MOL   O123 4309   5.817   1.619   5.054  0.0822 -0.0975  0.5289
   24MOL   H124 4310   6.039   1.474   4.934 -0.4809 -2.3501  1.1813
   24MOL   H125 4311   5.899   1.391   4.938 -0.7600 -0.5832 -0.0152
   24MOL   H126 4312   5.914   1.608   4.744  2.0918 -1.5981  1.0203
   24MOL   H127 4313   5.819   1.692   5.114  2.7247  0.0267  0.3434
   24MOL   C128 4314   5.723   1.528   4.791  0.6263  0.3198  0.4153
   24MOL   C129 4315   5.681   1.579   4.645 -0.0158  0.2522  0.1720
   24MOL   C130 4316   5.717   1.483   4.532  0.9702  0.0773  0.2718
   24MOL   O131 4317   5.781   1.507   4.431  0.2311 -0.1391  0.0387
   24MOL   O132 4318   5.670   1.356   4.557  0.1484  0.3558 -0.3659
   24MOL   H133 4319   5.648   1.580   4.850 -0.0692  0.6721 -0.7513
   24MOL   H134 4320   5.704   1.421   4.800 -0.9551  0.4431 -1.1218
   24MOL   H135 4321   5.573   1.585   4.653  0.0296  2.0961 -0.4697
   24MOL   H136 4322   5.625   1.351   4.640  0.9143  0.5003  0.0574
   24MOL   C137 4323   5.728   1.722   4.610 -0.0205 -0.5968  0.3350
   24MOL   C138 4324   5.646   1.792   4.504  0.0186 -0.2842  0.2543
   24MOL   C139 4325   5.730   1.890   4.427 -0.0823 -0.4404 -0.2249
   24MOL   O140 4326   5.825   1.955   4.477 -0.1767  0.0725  0.3568
   24MOL   O141 4327   5.707   1.876   4.294  0.0565 -0.1834  0.1467
   24MOL   H142 4328   5.832   1.712   4.578 -0.7447 -2.1048 -1.6772
   24MOL   H143 4329   5.727   1.790   4.695  1.8147  0.4813 -0.4813
   24MOL   H144 4330   5.613   1.722   4.428 -0.0663 -0.4867  0.4768
   24MOL   H145 4331   5.769   1.916   4.235 -1.1210  2.2883  0.5028
   24MOL   C146 4332   5.517   1.857   4.569 -0.3122 -0.7173  0.2173
   24MOL   C147 4333   5.459   1.993   4.516  0.6855  0.5521  0.1195
   24MOL   C148 4334   5.418   1.992   4.363  0.4308  1.3054 -1.0141
   24MOL   O149 4335   5.457   2.074   4.276 -0.2505 -0.6792 -0.3817
   24MOL   O150 4336   5.346   1.884   4.342  0.1954 -0.2031 -0.3796
   24MOL   H151 4337   5.541   1.870   4.674  0.5517 -0.8248  0.0396
   24MOL   H152 4338   5.438   1.782   4.569 -2.0165  1.0328  0.6619
   24MOL   H153 4339   5.363   1.991   4.567 -0.2865  1.0354 -1.6361
   24MOL   H154 4340   5.329   1.868   4.251 -2.4520  1.3217 -0.2108
   24MOL   C155 4341   5.531   2.123   4.564 -0.2816 -0.3068 -0.6688
   24MOL   C156 4342   5.429   2.237   4.606  0.0496 -0.3390  0.1096
   24MOL   C157 4343   5.451   2.360   4.517 -0.3080  0.7925 -0.8917
   24MOL   O158 4344   5.558   2.427   4.517  0.1475 -0.3107  0.4813
   24MOL   O159 4345   5.340   2.384   4.441  0.1303 -0.1825 -0.1451
   24MOL   H160 4346   5.600   2.164   4.491  0.4741 -0.7669 -0.2202
   24MOL   H161 4347   5.601   2.101   4.645  0.2482  0.9363 -0.7680
   24MOL   H162 4348   5.330   2.198   4.582 -0.4238 -0.1498  1.6878
   24MOL   H163 4349   5.342   2.468   4.399 -0.9768  0.8083  1.7304
   24MOL   C164 4350   5.416   2.265   4.752 -0.4470 -0.0979 -0.2123
   24MOL   C165 4351   5.276   2.277   4.823  0.4537 -0.5785 -0.2693
   24MOL   C166 4352   5.196   2.398   4.774 -0.7277  0.1311 -0.2360
   24MOL   O167 4353   5.232   2.505   4.727  0.0941 -0.2261 -0.2726
   24MOL   O168 4354   5.066   2.367   4.783 -0.4236 -0.2755 -0.4115
   24MOL   H169 4355   5.478   2.347   4.789  1.3321 -2.2216  1.7211
   24MOL   H170 4356   5.453   2.176   4.805  1.8539  1.4987  0.9824
   24MOL   H171 4357   5.232   2.179   4.804 -1.5901  0.2174  0.2730
   24MOL   H172 4358   5.021   2.446   4.758 -0.3370 -0.4872 -1.2658
   24MOL   C173 4359   5.292   2.296   4.974 -0.6729  0.2838 -0.5392
   24MOL   C174 4360   5.372   2.419   5.019  0.2860 -0.2862 -0.5507
   24MOL   C175 4361   5.371   2.446   5.173  0.1862 -0.3261 -0.2365
   24MOL   O176 4362   5.284   2.396   5.246 -0.8613  0.2652 -0.0156
   24MOL   O177 4363   5.475   2.520   5.218 -0.0745 -0.2296 -0.2958
   24MOL   H178 4364   5.344   2.206   5.008 -0.4962  0.6393  0.1383
   24MOL   H179 4365   5.197   2.301   5.027 -0.4220 -1.8173  0.1615
   24MOL   H180 4366   5.474   2.410   4.983 -0.2090 -2.2216 -1.5117
   24MOL   H181 4367   5.469   2.530   5.312  0.4284 -2.6547  0.0405
   24MOL   H182 4368   5.329   2.511   4.978 -2.0014 -1.1591 -0.1898
   25MOL     C1 4369   1.690   1.150   0.348  0.3410 -0.3795  0.4277
   25MOL     C2 4370   1.800   1.244   0.403 -0.1708 -0.1180 -0.1009
   25MOL     C3 4371   1.898   1.157   0.478  0.7035 -0.2173 -0.4945
   25MOL     O4 4372   1.900   1.145   0.604  0.1905 -0.4862  0.4701
   25MOL     O5 4373   1.983   1.097   0.400  0.1549 -0.0995 -0.1365
   25MOL     H6 4374   1.736   1.058   0.312 -0.6931 -0.6285 -0.2979
   25MOL     H7 4375   1.630   1.112   0.431 -0.4088  0.2865  0.1952
   25MOL     H8 4376   1.843   1.297   0.318 -1.0351 -0.5507 -0.8091
   25MOL     H9 4377   1.962   1.128   0.313  0.9508 -0.3782 -0.4323
   25MOL    H10 4378   1.625   1.194   0.272  0.3973 -0.6594  0.2110
   25MOL    C11 4379   1.748   1.354   0.495  0.7541  0.0579 -0.4640
   25MOL    C12 4380   1.670   1.463   0.422  0.6403 -0.3574 -0.1996
   25MOL    C13 4381   1.767   1.575   0.397 -0.4206  0.6320  0.2291
   25MOL    O14 4382   1.760   1.683   0.460 -0.7642  0.0104 -0.0763
   25MOL    O15 4383   1.839   1.562   0.285 -0.4990  0.4897  0.1609
   25MOL    H16 4384   1.828   1.393   0.558 -0.0374 -1.4171  1.5103
   25MOL    H17 4385   1.683   1.298   0.562 -1.9946  1.2325 -2.0860
   25MOL    H18 4386   1.627   1.434   0.326  0.9854  0.9352 -0.7527
   25MOL    H19 4387   1.869   1.648   0.258 -0.4058  1.4265  3.0822
   25MOL    C20 4388   1.551   1.503   0.516 -0.1976 -0.4054  0.1351
   25MOL    C21 4389   1.425   1.407   0.532  0.2221  0.2644  0.4096
   25MOL    C22 4390   1.358   1.384   0.391  0.9715 -0.1249 -0.0242
   25MOL    O23 4391   1.304   1.468   0.328  0.4706 -0.2949 -0.3440
   25MOL    O24 4392   1.356   1.253   0.360  0.3419 -0.0460 -0.1773
   25MOL    H25 4393   1.510   1.597   0.480 -0.9691 -1.4424 -1.7766
   25MOL    H26 4394   1.599   1.508   0.614 -2.1618  0.1408  1.0757
   25MOL    H27 4395   1.461   1.307   0.556  0.6960 -0.0644 -1.5543
   25MOL    H28 4396   1.325   1.245   0.271  1.7511  0.3296 -0.7232
   25MOL    C29 4397   1.318   1.446   0.636  0.8901  0.4951 -0.2557
   25MOL    C30 4398   1.216   1.338   0.677  0.3147 -0.2383 -0.1538
   25MOL    C31 4399   1.080   1.407   0.718  0.6868 -0.0611  0.3745
   25MOL    O32 4400   1.059   1.520   0.766  0.2417  0.4127 -0.1163
   25MOL    O33 4401   0.982   1.323   0.676  0.1904 -0.5307 -0.8103
   25MOL    H34 4402   1.268   1.538   0.607 -0.0484  0.4285  1.1198
   25MOL    H35 4403   1.374   1.473   0.726 -1.9254  0.9366  1.4126
   25MOL    H36 4404   1.189   1.288   0.584 -1.0057  0.3619 -0.0997
   25MOL    H37 4405   0.900   1.368   0.689  0.6799  0.3622 -0.7265
   25MOL    C38 4406   1.265   1.252   0.795 -0.1357  0.4354 -0.1719
   25MOL    C39 4407   1.376   1.143   0.751  0.5084  0.4272 -0.0068
   25MOL    C40 4408   1.341   1.000   0.787  0.0261  0.4038 -0.0603
   25MOL    O41 4409   1.243   0.966   0.857  0.2080  0.2183  0.1203
   25MOL    O42 4410   1.427   0.907   0.732  0.1320 -0.3369 -0.5441
   25MOL    H43 4411   1.192   1.201   0.857  1.1173 -0.2574  0.7612
   25MOL    H44 4412   1.308   1.319   0.869  1.2759 -0.3460 -0.2729
   25MOL    H45 4413   1.385   1.145   0.642 -0.6385  0.6832 -0.1086
   25MOL    H46 4414   1.396   0.826   0.770 -2.3587  1.2732  1.0366
   25MOL    C47 4415   1.520   1.182   0.802 -0.1879 -0.2050  0.3481
   25MOL    C48 4416   1.572   1.128   0.938 -0.3984 -0.3520 -0.1017
   25MOL    C49 4417   1.499   1.165   1.070 -0.1858 -0.2740 -0.4063
   25MOL    O50 4418   1.524   1.270   1.136 -0.0544  0.1609  0.3309
   25MOL    O51 4419   1.415   1.064   1.103 -0.0871  0.4880 -0.3187
   25MOL    H52 4420   1.537   1.290   0.799  0.1415 -0.3010 -1.8300
   25MOL    H53 4421   1.583   1.142   0.722  1.1669 -0.8564  1.7206
   25MOL    H54 4422   1.585   1.021   0.928  0.0513 -0.4432  1.2967
   25MOL    H55 4423   1.368   1.077   1.184 -2.7632 -0.6851 -1.6291
   25MOL    C56 4424   1.727   1.163   0.950  0.8038  0.7250  0.9346
   25MOL    C57 4425   1.800   1.079   1.055 -0.1363 -0.3175 -0.6516
   25MOL    C58 4426   1.943   1.130   1.087 -0.2364  0.3527 -0.0601
   25MOL    O59 4427   2.046   1.069   1.055  0.4679 -0.1961 -0.0676
   25MOL    O60 4428   1.937   1.257   1.141 -0.8953  0.5866  0.2772
   25MOL    H61 4429   1.741   1.269   0.970 -0.6723  1.4507 -1.6047
   25MOL    H62 4430   1.766   1.147   0.849  0.1391 -0.4095  0.8458
   25MOL    H63 4431   1.748   1.092   1.150  0.9682  1.5450 -0.2930
   25MOL    H64 4432   2.017   1.303   1.159  2.3441 -3.6518 -2.3047
   25MOL    C65 4433   1.795   0.925   1.025  0.0749 -0.0394 -0.1949
   25MOL    C66 4434   1.871   0.873   0.893 -0.1680 -0.3309 -0.1983
   25MOL    C67 4435   1.757   0.826   0.797 -0.4775 -0.4680  0.3823
   25MOL    O68 4436   1.690   0.728   0.825  0.4881 -0.2497 -0.5605
   25MOL    O69 4437   1.770   0.885   0.672 -0.0675 -0.6783 -0.6953
   25MOL    H70 4438   1.692   0.893   1.043  0.5227 -0.9786  0.6882
   25MOL    H71 4439   1.845   0.876   1.108 -0.0841 -0.2773 -0.2398
   25MOL    H72 4440   1.917   0.961   0.847 -0.4341 -0.4616 -0.7163
   25MOL    H73 4441   1.711   0.856   0.603 -0.0692 -0.9946 -0.5586
   25MOL    C74 4442   1.981   0.770   0.899  0.5912  0.0296  0.1233
   25MOL    C75 4443   2.064   0.737   0.774 -0.1989 -0.1922 -0.3758
   25MOL    C76 4444   2.024   0.598   0.720 -0.3057 -0.7151  0.0507
   25MOL    O77 4445   1.963   0.581   0.612 -0.4836 -0.6331 -0.0843
   25MOL    O78 4446   2.054   0.499   0.801 -0.3762  0.0548  0.1326
   25MOL    H79 4447   1.949   0.676   0.943  1.7280 -0.8327 -0.8523
   25MOL    H80 4448   2.050   0.817   0.970 -0.4983 -0.2798  1.4149
   25MOL    H81 4449   2.031   0.804   0.694  1.2199 -0.5331 -1.2634
   25MOL    H82 4450   1.982   0.438   0.799 -1.8435  1.6961  2.2762
   25MOL    C83 4451   2.220   0.739   0.804  0.0834 -0.3313  0.8505
   25MOL    C84 4452   2.302   0.773   0.671  0.4100  0.3201  0.8097
   25MOL    C85 4453   2.348   0.646   0.599 -0.3954  0.3476  0.0045
   25MOL    O86 4454   2.464   0.612   0.598  0.0943 -0.1793  0.1500
   25MOL    O87 4455   2.255   0.569   0.542  0.5175 -0.2895  0.1565
   25MOL    H88 4456   2.266   0.652   0.851  0.3020 -0.4218  0.4791
   25MOL    H89 4457   2.245   0.813   0.879 -0.7971 -1.0232  1.8377
   25MOL    H90 4458   2.229   0.804   0.597  2.1631  0.9919 -0.6705
   25MOL    H91 4459   2.285   0.491   0.497  0.1082 -0.1607 -0.3431
   25MOL    C92 4460   2.418   0.877   0.669 -0.1517 -0.0807  0.0646
   25MOL    C93 4461   2.370   1.022   0.718 -0.1607  0.1010 -0.2477
   25MOL    C94 4462   2.262   1.077   0.619  0.0712 -0.2464 -0.0906
   25MOL    O95 4463   2.278   1.148   0.519  0.4194  0.3124 -0.1015
   25MOL    O96 4464   2.141   1.019   0.646 -0.0768  0.1148 -0.0522
   25MOL    H97 4465   2.470   0.865   0.575 -0.3694 -3.4951  0.3203
   25MOL    H98 4466   2.495   0.847   0.740 -0.4481  0.4339  0.6140
   25MOL    H99 4467   2.317   1.011   0.813 -1.1950 -1.8961 -1.0317
   25MOL   H100 4468   2.081   1.055   0.583 -0.7445 -1.4556 -0.3301
   25MOL   C101 4469   2.493   1.113   0.742 -1.1541 -0.2069 -0.1104
   25MOL   C102 4470   2.598   1.113   0.634  0.8994  0.0806  0.1141
   25MOL   C103 4471   2.712   1.013   0.660 -0.3825  0.2010 -0.0951
   25MOL   O104 4472   2.732   0.978   0.775 -0.3613  0.6198 -0.2083
   25MOL   O105 4473   2.771   0.967   0.542  0.0653  0.2104 -0.4983
   25MOL   H106 4474   2.539   1.086   0.837 -0.3063  3.4695  0.6008
   25MOL   H107 4475   2.453   1.214   0.753  0.1882  0.3797 -0.5397
   25MOL   H108 4476   2.555   1.080   0.539  0.3521  1.8623 -0.2600
   25MOL   H109 4477   2.846   0.909   0.548 -1.1402 -1.5024 -1.4387
   25MOL   C110 4478   2.657   1.259   0.606 -0.0676  0.3593 -0.2601
   25MOL   C111 4479   2.561   1.363   0.539  0.4311 -0.4445  0.0656
   25MOL   C112 4480   2.521   1.320   0.393 -0.1887 -0.6928  0.4394
   25MOL   O113 4481   2.572   1.225   0.337 -0.1639 -0.5541 -0.3505
   25MOL   O114 4482   2.418   1.395   0.344  0.2421 -0.9190  0.0762
   25MOL   H115 4483   2.749   1.245   0.550  0.3178  1.4186  0.0817
   25MOL   H116 4484   2.692   1.301   0.700  0.3112 -0.2729 -0.1170
   25MOL   H117 4485   2.463   1.368   0.586  0.7651  0.4389  0.6751
   25MOL   H118 4486   2.405   1.360   0.258 -0.7046 -0.5224  0.0526
   25MOL   C119 4487   2.626   1.505   0.539 -0.7414 -0.0132 -0.3331
   25MOL   C120 4488   2.767   1.520   0.475  0.1432 -0.1184 -0.2873
   25MOL   C121 4489   2.877   1.542   0.574 -0.0214  0.3600 -0.5953
   25MOL   O122 4490   2.861   1.584   0.682  0.0799 -0.6982 -0.0887
   25MOL   O123 4491   2.994   1.515   0.516  0.2385  0.1235 -0.1433
   25MOL   H124 4492   2.632   1.542   0.642 -0.3651  0.5413 -0.5506
   25MOL   H125 4493   2.556   1.574   0.492 -1.8655 -1.4514 -0.7826
   25MOL   H126 4494   2.801   1.423   0.441  2.2125 -0.1013  1.5996
   25MOL   H127 4495   3.063   1.565   0.557 -1.3351  1.6564  0.6884
   25MOL   C128 4496   2.780   1.617   0.358  0.2117  0.5564 -0.6055
   25MOL   C129 4497   2.732   1.577   0.218  0.1840 -0.4240  0.1558
   25MOL   C130 4498   2.785   1.437   0.181 -0.7348  1.1990 -0.0066
   25MOL   O131 4499   2.892   1.391   0.224 -0.3071 -0.3996  0.0740
   25MOL   O132 4500   2.702   1.357   0.108 -0.2506 -0.0947  0.0643
   25MOL   H133 4501   2.881   1.656   0.345 -0.0852  0.7353 -2.5601
   25MOL   H134 4502   2.724   1.709   0.379 -0.6335 -0.3012  1.0072
   25MOL   H135 4503   2.624   1.566   0.221  0.2435 -1.3375 -1.0166
   25MOL   H136 4504   2.744   1.273   0.101  2.1439  1.2829 -3.8056
   25MOL   C137 4505   2.763   1.675   0.100  0.5189 -0.4097 -0.5809
   25MOL   C138 4506   2.698   1.819   0.103 -0.5946 -0.2328  0.1930
   25MOL   C139 4507   2.785   1.921   0.187  0.0406  0.2842 -0.0943
   25MOL   O140 4508   2.752   1.962   0.293  0.7976  0.0426  0.5923
   25MOL   O141 4509   2.902   1.947   0.120  0.3935 -0.6701  0.1837
   25MOL   H142 4510   2.722   1.642   0.004 -1.6228 -0.7034  0.3896
   25MOL   H143 4511   2.868   1.697   0.084 -0.1721  3.7033 -0.1931
   25MOL   H144 4512   2.703   1.850   7.851  0.0641 -1.3727 -0.1205
   25MOL   H145 4513   2.925   1.905   0.039  0.5617  0.3947 -0.3245
   25MOL   C146 4514   2.549   1.822   0.147  0.4889 -0.2271  0.0530
   25MOL   C147 4515   2.453   1.745   0.051  0.6497 -0.2308 -0.2151
   25MOL   C148 4516   2.459   1.794   7.755  0.0180 -0.8359 -0.1120
   25MOL   O149 4517   2.475   1.909   7.722 -0.8322 -0.7258  0.0606
   25MOL   O150 4518   2.444   1.688   7.679  0.3071  0.3850  0.5296
   25MOL   H151 4519   2.524   1.927   0.165  1.8599  0.2824 -0.9050
   25MOL   H152 4520   2.540   1.769   0.242 -1.3533 -0.1723 -0.0919
   25MOL   H153 4521   2.466   1.637   0.062  0.0757 -0.3309 -0.4895
   25MOL   H154 4522   2.428   1.709   7.589 -0.1471  4.1214  1.3877
   25MOL   C155 4523   2.309   1.778   0.093  0.3163  0.6998  0.2661
   25MOL   C156 4524   2.205   1.675   0.045 -0.2430 -0.1381 -0.2991
   25MOL   C157 4525   2.068   1.748   0.027 -0.2258 -0.0607  0.5514
   25MOL   O158 4526   1.964   1.726   0.100 -0.3226 -0.2574 -0.2772
   25MOL   O159 4527   2.066   1.845   7.777 -0.2868 -0.2950  0.0221
   25MOL   H160 4528   2.284   1.879   0.061  5.7643  2.3364  0.6786
   25MOL   H161 4529   2.290   1.782   0.200  1.1816 -1.0258  0.5117
   25MOL   H162 4530   2.227   1.631   7.801 -3.1349 -0.5795 -0.8058
   25MOL   H163 4531   1.984   1.892   7.768  0.4994  1.4186  1.7600
   25MOL   C164 4532   2.195   1.547   0.133  0.5637 -0.2336  0.1209
   25MOL   C165 4533   2.201   1.415   0.056 -0.1177  0.1552  0.6846
   25MOL   C166 4534   2.333   1.395   7.834  0.0778  0.1185 -0.2277
   25MOL   O167 4535   2.335   1.397   7.710 -0.2386 -0.3087  0.1022
   25MOL   O168 4536   2.443   1.387   0.064 -0.2177  0.0723  0.7938
   25MOL   H169 4537   2.100   1.551   0.187  0.7771 -0.3550  0.5057
   25MOL   H170 4538   2.272   1.541   0.210  0.3076 -1.7545  0.2742
   25MOL   H171 4539   2.204   1.331   0.124  1.9308 -0.2421  0.1273
   25MOL   H172 4540   2.527   1.377   0.022 -0.4951 -1.7273  0.6520
   25MOL   C173 4541   2.072   1.400   7.820  0.3315 -0.0826  0.3793
   25MOL   C174 4542   2.047   1.254   7.773  0.0702  0.2022 -0.4928
   25MOL   C175 4543   2.032   1.150   0.031  0.0852  0.5621 -0.8739
   25MOL   O176 4544   1.988   1.165   0.143  0.2319  0.5434 -0.1839
   25MOL   O177 4545   2.072   1.032   7.829 -0.1442  0.4357  0.3426
   25MOL   H178 4546   2.087   1.460   7.730 -1.3243 -1.8778 -1.1556
   25MOL   H179 4547   1.986   1.436   0.022 -0.6008 -3.3127  1.1611
   25MOL   H180 4548   1.954   1.259   7.716 -0.4087  0.9016  0.3359
   25MOL   H181 4549   2.073   0.960   0.037  2.1103 -1.2982 -1.6421
   25MOL   H182 4550   2.128   1.228   7.705 -0.0481 -2.8039  0.4107
   26MOL     C1 4551   2.604   7.653   2.640  0.5281 -0.7187  0.1348
   26MOL     C2 4552   2.573   7.760   2.748  0.2024 -0.9436  0.4689
   26MOL     C3 4553   2.428   7.817   2.754 -0.2558  0.7822 -1.1061
   26MOL     O4 4554   2.342   7.756   2.687 -0.1700  0.3574 -0.1369
   26MOL     O5 4555   2.414   0.080   2.817  0.3465  0.2565 -0.3959
   26MOL     H6 4556   2.539   7.570   2.665 -0.4447  0.4336  1.4645
   26MOL     H7 4557   2.565   7.685   2.543 -1.3113 -1.3307  0.6494
   26MOL     H8 4558   2.585   7.710   2.844 -0.9361  1.7171  2.0304
   26MOL     H9 4559   2.323   0.096   2.835  0.4928  0.0344  0.5569
   26MOL    H10 4560   2.711   7.633   2.650  0.4809 -1.0973 -0.1111
   26MOL    C11 4561   2.686   0.019   2.767 -0.1438  0.3554  0.6186
   26MOL    C12 4562   2.756   0.024   2.914 -0.1691 -0.8644  0.4970
   26MOL    C13 4563   2.853   7.758   2.930 -0.6595 -0.6314 -0.2630
   26MOL    O14 4564   2.847   7.662   3.007  0.0029 -0.5365  0.3939
   26MOL    O15 4565   2.948   7.765   2.836 -0.3355  0.0807  0.1954
   26MOL    H16 4566   2.641   0.118   2.759 -1.6933 -0.3480  0.5614
   26MOL    H17 4567   2.770   0.020   2.697  1.1698 -1.2083  2.1243
   26MOL    H18 4568   2.810   0.118   2.918  1.6689 -1.9861  3.4517
   26MOL    H19 4569   2.996   7.684   2.846 -0.8042 -0.2642 -0.3404
   26MOL    C20 4570   2.664   0.051   3.026  0.0036  0.0834  0.0807
   26MOL    C21 4571   2.719   0.139   3.137  0.6599  0.2492 -0.1397
   26MOL    C22 4572   2.639   0.113   3.268 -0.6022 -0.3438 -0.4608
   26MOL    O23 4573   2.699   0.092   3.373 -0.2144 -0.0594 -0.3263
   26MOL    O24 4574   2.510   0.130   3.254  0.3841 -0.2289  0.5749
   26MOL    H25 4575   2.618   7.817   3.074 -1.1492  0.6466  0.0195
   26MOL    H26 4576   2.574   0.104   2.993 -0.7805 -0.3608  1.4674
   26MOL    H27 4577   2.822   0.105   3.148  0.5994  0.3023  0.5614
   26MOL    H28 4578   2.461   0.127   3.335 -2.5772 -2.4404 -1.2391
   26MOL    C29 4579   2.712   0.286   3.109 -0.1436  0.2587 -0.1996
   26MOL    C30 4580   2.845   0.369   3.123 -0.9763  0.2975 -0.1923
   26MOL    C31 4581   2.837   0.479   3.232  1.5684 -0.0358 -0.2033
   26MOL    O32 4582   2.814   0.595   3.204  0.0221  0.2177  0.2408
   26MOL    O33 4583   2.861   0.431   3.358 -0.1388 -0.5106  0.0161
   26MOL    H34 4584   2.643   0.345   3.169 -0.9868 -0.6380 -0.2850
   26MOL    H35 4585   2.666   0.309   3.012  0.1795  5.2792  0.7192
   26MOL    H36 4586   2.927   0.303   3.151  0.0797  0.3680 -2.8824
   26MOL    H37 4587   2.881   0.339   3.346  1.2082  0.0035 -1.8308
   26MOL    C38 4588   2.900   0.426   2.985  0.7169  0.0603 -0.6774
   26MOL    C39 4589   3.046   0.493   2.988 -0.0179  0.5292  0.6916
   26MOL    C40 4590   3.077   0.579   2.862  0.3137  0.0339 -0.8253
   26MOL    O41 4591   3.149   0.679   2.873 -0.7074 -0.2446 -0.3320
   26MOL    O42 4592   3.007   0.538   2.752  0.2286  0.1884 -0.7892
   26MOL    H43 4593   2.834   0.499   2.938  0.1158 -0.1749 -0.1963
   26MOL    H44 4594   2.900   0.351   2.906  2.0157 -0.9883  0.3048
   26MOL    H45 4595   3.056   0.561   3.073  1.1824 -0.1502  1.1059
   26MOL    H46 4596   3.033   0.588   2.676 -0.6929 -0.7063 -1.7099
   26MOL    C47 4597   3.165   0.388   3.002  0.9749  0.3513  0.0566
   26MOL    C48 4598   3.222   0.346   3.139 -0.1237  0.3564  0.2428
   26MOL    C49 4599   3.274   0.471   3.222 -0.2122  0.8816  0.3832
   26MOL    O50 4600   3.384   0.518   3.211  0.0568 -0.0152 -0.2128
   26MOL    O51 4601   3.181   0.532   3.300 -0.0667 -0.4931  0.1259
   26MOL    H52 4602   3.251   0.424   2.945  1.3080 -0.9883 -0.3098
   26MOL    H53 4603   3.144   0.299   2.943 -2.7934  1.7270 -0.8625
   26MOL    H54 4604   3.139   0.327   3.207  0.3958 -2.1814  0.2200
   26MOL    H55 4605   3.209   0.615   3.334 -1.3445  0.2674 -0.6218
   26MOL    C56 4606   3.324   0.236   3.127  0.1567 -0.4528  0.1231
   26MOL    C57 4607   3.268   0.094   3.092 -0.5246  0.3139  0.0440
   26MOL    C58 4608   3.180   0.051   3.199  0.1961  0.2582 -0.4220
   26MOL    O59 4609   3.220   0.010   3.306  0.9887 -0.0603 -0.0352
   26MOL    O60 4610   3.051   0.045   3.158 -0.2742  0.3713 -0.2473
   26MOL    H61 4611   3.385   0.224   3.216 -1.7853  0.7838  1.6674
   26MOL    H62 4612   3.397   0.253   3.048 -2.4252 -0.7867 -2.4090
   26MOL    H63 4613   3.207   0.115   3.005 -2.7893  1.9744  1.9814
   26MOL    H64 4614   3.010   7.848   3.227  1.0614 -2.4820 -1.4226
   26MOL    C65 4615   3.381   7.833   3.066  0.8641 -0.0674 -0.3098
   26MOL    C66 4616   3.340   7.703   2.975  0.8848  0.0164  0.1297
   26MOL    C67 4617   3.336   7.721   2.821 -0.8261  0.1916  0.4374
   26MOL    O68 4618   3.237   7.751   2.758  0.1766  0.1514 -0.3270
   26MOL    O69 4619   3.462   7.718   2.772  0.0506 -0.0043  0.2773
   26MOL    H70 4620   3.433   7.800   3.156  2.2674  1.9778 -0.3412
   26MOL    H71 4621   3.456   0.036   3.010  0.5530 -0.7200 -1.4048
   26MOL    H72 4622   3.423   7.633   2.984  2.0145  1.4104  0.7925
   26MOL    H73 4623   3.461   7.728   2.678  0.3045 -0.5135  0.2188
   26MOL    C74 4624   3.219   7.629   3.045 -0.2553  0.5892 -0.4603
   26MOL    C75 4625   3.203   7.479   3.022  0.0826  0.1479  0.0949
   26MOL    C76 4626   3.168   7.448   2.875 -0.9206  0.0485 -0.1530
   26MOL    O77 4627   3.243   7.386   2.805  0.1541 -0.3692 -0.2313
   26MOL    O78 4628   3.046   7.493   2.832  0.2763 -0.2644 -0.1883
   26MOL    H79 4629   3.130   7.689   3.024 -0.1275  0.6435 -0.8380
   26MOL    H80 4630   3.227   7.645   3.153  1.2975  3.1981 -0.9107
   26MOL    H81 4631   3.300   7.432   3.034 -0.6917 -1.3897  0.3624
   26MOL    H82 4632   3.043   7.475   2.740  0.9669 -2.3254  0.1524
   26MOL    C83 4633   3.099   7.415   3.121 -0.4207 -0.3535  0.3187
   26MOL    C84 4634   3.135   7.427   3.272 -0.5942 -0.5946 -0.0098
   26MOL    C85 4635   3.281   7.406   3.313 -0.0801 -0.0197 -0.7408
   26MOL    O86 4636   3.335   7.488   3.384 -0.0060 -0.1214  0.3501
   26MOL    O87 4637   3.337   7.293   3.262 -0.3065  0.3549 -0.4893
   26MOL    H88 4638   3.101   7.311   3.091 -0.8204  0.4757 -2.7383
   26MOL    H89 4639   2.996   7.451   3.114 -0.8127 -1.1860  1.5034
   26MOL    H90 4640   3.125   7.532   3.296 -1.7821 -0.7245  0.1297
   26MOL    H91 4641   3.428   7.293   3.286 -0.3357  1.7054 -0.3250
   26MOL    C92 4642   3.037   7.344   3.355  0.0068 -0.0673 -0.0032
   26MOL    C93 4643   2.996   7.381   3.499  0.5164 -0.5360 -0.3276
   26MOL    C94 4644   2.909   7.274   3.569  0.2567  0.4927  0.0896
   26MOL    O95 4645   2.857   7.181   3.504 -0.5932 -0.3138  0.4592
   26MOL    O96 4646   2.891   7.292   3.701 -0.1049 -0.1083  0.4651
   26MOL    H97 4647   3.077   7.242   3.359  1.1549  0.3520 -0.6545
   26MOL    H98 4648   2.941   7.333   3.305 -0.4174 -0.6837  0.9413
   26MOL    H99 4649   3.088   7.372   3.558 -0.5296  0.2984  1.4893
   26MOL   H100 4650   2.842   7.221   3.741 -0.3708 -1.0170 -1.4110
   26MOL   C101 4651   2.925   7.515   3.526 -0.1352 -0.7746 -0.2604
   26MOL   C102 4652   2.788   7.539   3.455 -0.0568 -0.0355 -0.2986
   26MOL   C103 4653   2.821   7.617   3.327  0.4238  0.2976  0.5729
   26MOL   O104 4654   2.879   7.724   3.311  0.7636  0.2098 -0.3167
   26MOL   O105 4655   2.757   7.553   3.227  0.5126 -0.0280 -0.1557
   26MOL   H106 4656   2.988   7.592   3.482 -0.0729 -1.9183 -2.2629
   26MOL   H107 4657   2.920   7.537   3.632  2.5371 -0.3164 -0.1968
   26MOL   H108 4658   2.744   7.446   3.419 -1.4018  0.5450 -0.2232
   26MOL   H109 4659   2.761   7.603   3.147  1.0130  0.2249  0.0262
   26MOL   C110 4660   2.691   7.614   3.549  0.5623 -0.3618 -0.4598
   26MOL   C111 4661   2.547   7.627   3.497  0.5250 -0.6219  0.3369
   26MOL   C112 4662   2.454   7.723   3.587 -0.0973 -0.0359 -0.5607
   26MOL   O113 4663   2.405   7.684   3.697 -0.4702 -0.4474  0.3302
   26MOL   O114 4664   2.415   7.830   3.515 -0.1293  1.0588 -0.3805
   26MOL   H115 4665   2.725   7.712   3.582  2.8315 -0.6750 -1.7578
   26MOL   H116 4666   2.684   7.562   3.644 -0.6743 -1.2574 -1.0127
   26MOL   H117 4667   2.546   7.672   3.398 -2.3418 -1.1186  0.1008
   26MOL   H118 4668   2.339   0.019   3.554 -1.2393 -1.2403  0.0228
   26MOL   C119 4669   2.481   7.496   3.467  0.3748  0.7813  0.1054
   26MOL   C120 4670   2.340   7.512   3.403  0.1804 -0.2648  0.0434
   26MOL   C121 4671   2.240   7.418   3.473  0.3984  0.1398 -0.6711
   26MOL   O122 4672   2.181   7.324   3.419  0.4652 -0.0086 -0.6354
   26MOL   O123 4673   2.223   7.448   3.606 -0.1523 -0.0025  0.0479
   26MOL   H124 4674   2.477   7.451   3.566 -0.1483 -1.0838 -0.7611
   26MOL   H125 4675   2.535   7.420   3.411  0.6085  2.1066 -1.5196
   26MOL   H126 4676   2.307   7.613   3.427 -0.2237 -0.6016  0.9199
   26MOL   H127 4677   2.172   7.388   3.657  0.7372 -0.0444  0.8990
   26MOL   C128 4678   2.336   7.500   3.246  0.3908 -0.1789 -0.0965
   26MOL   C129 4679   2.215   7.559   3.177  0.5741  0.0661 -0.4193
   26MOL   C130 4680   2.186   7.481   3.049  0.3297 -0.2539  0.1302
   26MOL   O131 4681   2.235   7.508   2.942  0.4072  0.5909  0.7954
   26MOL   O132 4682   2.093   7.382   3.076 -0.3635  0.4193  0.0592
   26MOL   H133 4683   2.350   7.395   3.221  0.8084  0.5409 -3.0429
   26MOL   H134 4684   2.425   7.552   3.212  1.1904  0.2114  2.5066
   26MOL   H135 4685   2.128   7.540   3.240  0.3643 -0.4584 -0.8602
   26MOL   H136 4686   2.076   7.343   2.992 -1.8371 -2.5763  1.6672
   26MOL   C137 4687   2.228   7.714   3.163 -0.0554  0.4159  0.3567
   26MOL   C138 4688   2.120   7.787   3.076  1.1391 -0.5444 -0.5245
   26MOL   C139 4689   2.166   0.082   3.042  0.2328 -0.6929 -0.7111
   26MOL   O140 4690   2.171   0.139   2.933 -0.1726  0.6260  0.1219
   26MOL   O141 4691   2.213   0.144   3.152 -0.2168  0.4953 -0.4415
   26MOL   H142 4692   2.322   7.740   3.115 -0.9055  0.0902 -1.5145
   26MOL   H143 4693   2.230   7.746   3.268  1.9420  1.6214 -0.0294
   26MOL   H144 4694   2.108   7.739   2.979  0.2510  0.3808 -0.8840
   26MOL   H145 4695   2.261   0.222   3.129 -0.4889  0.2790 -1.7487
   26MOL   C146 4696   1.978   7.784   3.151  0.1531  0.3346  0.2733
   26MOL   C147 4697   1.848   7.829   3.076  0.4800  0.1700 -0.0386
   26MOL   C148 4698   1.818   7.736   2.959 -0.7123  0.0007 -0.4166
   26MOL   O149 4699   1.876   7.630   2.940  0.0924  0.3831 -0.3558
   26MOL   O150 4700   1.714   7.777   2.878  0.5012 -0.5293 -0.2496
   26MOL   H151 4701   1.982   7.829   3.251 -1.3170 -2.0902  1.4836
   26MOL   H152 4702   1.959   7.678   3.167  0.6953  0.6283  3.3077
   26MOL   H153 4703   1.768   7.823   3.149 -0.6123 -0.3848 -1.2766
   26MOL   H154 4704   1.693   7.723   2.804 -0.7319 -2.0331  1.1487
   26MOL   C155 4705   1.840   0.127   3.037 -0.3689 -0.6048  0.8424
   26MOL   C156 4706   1.869   0.227   3.149  0.0126 -0.0622  0.0448
   26MOL   C157 4707   1.749   0.235   3.245 -0.3377 -0.0559  0.1812
   26MOL   O158 4708   1.658   0.318   3.231 -0.5174  0.3472 -0.6935
   26MOL   O159 4709   1.772   0.163   3.358  0.0880 -0.1319 -0.0828
   26MOL   H160 4710   1.743   0.152   2.993 -0.0251 -2.0506 -0.7976
   26MOL   H161 4711   1.902   0.153   2.951 -2.1604  0.6392 -0.1016
   26MOL   H162 4712   1.949   0.189   3.213 -0.1913  0.6410  0.7224
   26MOL   H163 4713   1.701   0.176   3.420 -0.1861 -0.1374 -0.3975
   26MOL   C164 4714   1.919   0.360   3.087  0.0252 -0.1517  0.0921
   26MOL   C165 4715   1.945   0.478   3.182  0.1703  0.7730  0.0491
   26MOL   C166 4716   1.967   0.608   3.108 -1.0418 -0.1456  0.2985
   26MOL   O167 4717   2.048   0.694   3.142  0.0727 -0.3432  0.1310
   26MOL   O168 4718   1.873   0.621   3.009  0.2680 -0.5503 -0.8694
   26MOL   H169 4719   1.849   0.386   3.008 -0.0868 -1.1259 -0.1375
   26MOL   H170 4720   2.009   0.347   3.028  0.0760 -0.5849  0.2559
   26MOL   H171 4721   1.863   0.502   3.251 -0.7346  0.2499 -0.8352
   26MOL   H172 4722   1.881   0.707   2.969  2.1860  0.7698  2.1805
   26MOL   C173 4723   2.061   0.436   3.271  0.3270 -0.0819  0.0222
   26MOL   C174 4724   2.030   0.394   3.419  0.3759 -0.3193  0.5496
   26MOL   C175 4725   1.954   0.498   3.492 -0.2549  0.3398 -0.4102
   26MOL   O176 4726   1.849   0.477   3.549  0.0279  0.6758 -0.4990
   26MOL   O177 4727   2.020   0.622   3.477  0.6603  0.0532  0.1330
   26MOL   H178 4728   2.133   0.517   3.270  2.1426 -1.6614  1.0695
   26MOL   H179 4729   2.110   0.357   3.214 -0.1206  1.0258 -1.9612
   26MOL   H180 4730   1.969   0.305   3.406 -1.0464  0.9714 -1.8985
   26MOL   H181 4731   2.103   0.600   3.439  0.6262 -0.3352  0.2805
   26MOL   H182 4732   2.119   0.368   3.477  0.1143 -0.5752  0.8394
   27MOL     C1 4733   4.599   3.622   7.687 -0.1582 -0.3305 -0.1567
   27MOL     C2 4734   4.483   3.726   7.672 -0.0848  0.0445 -0.3721
   27MOL     C3 4735   4.446   3.756   7.523  0.3791 -0.3236  0.5534
   27MOL     O4 4736   4.354   3.829   7.501 -0.6775 -0.0212 -0.4459
   27MOL     O5 4737   4.516   3.689   7.430  0.2032 -0.4125  0.3828
   27MOL     H6 4738   4.574   3.561   7.774 -0.4904  1.0476  0.7311
   27MOL     H7 4739   4.607   3.545   7.611 -0.6189  0.1128 -0.6541
   27MOL     H8 4740   4.397   3.676   7.716  0.1322 -1.0635 -1.2081
   27MOL     H9 4741   4.477   3.702   7.344  2.0579 -0.7537 -0.5280
   27MOL    H10 4742   4.694   3.673   7.702 -0.0189 -0.7431  0.3756
   27MOL    C11 4743   4.517   3.860   7.745  0.7201 -0.1362  0.9621
   27MOL    C12 4744   4.474   3.885   0.036 -0.0102  0.3018  0.2314
   27MOL    C13 4745   4.325   3.895   0.054  0.7407  0.0218  0.6894
   27MOL    O14 4746   4.256   3.823   0.126  0.1575 -0.2119 -0.7626
   27MOL    O15 4747   4.277   3.999   7.842  0.2462 -0.1277  0.6492
   27MOL    H16 4748   4.493   3.939   7.674  1.6377 -0.6571  0.0475
   27MOL    H17 4749   4.626   3.863   7.733  0.4265 -0.7604 -2.5285
   27MOL    H18 4750   4.509   3.794   0.084  0.2840 -0.9052 -2.1913
   27MOL    H19 4751   4.187   3.999   0.016  0.2879  1.7219  0.8455
   27MOL    C20 4752   4.546   4.007   0.111 -0.3429 -0.0426 -0.0633
   27MOL    C21 4753   4.518   4.026   0.268  1.1852  0.0154  0.9657
   27MOL    C22 4754   4.577   4.156   0.326  0.2112 -0.2692 -0.3525
   27MOL    O23 4755   4.571   4.190   0.447 -0.3360 -0.1663  0.0748
   27MOL    O24 4756   4.652   4.223   0.226  0.0457  0.3569 -0.4828
   27MOL    H25 4757   4.527   4.095   0.051 -0.3879 -0.0575 -0.0701
   27MOL    H26 4758   4.652   3.999   0.086 -0.4471 -0.2045 -0.4618
   27MOL    H27 4759   4.412   4.051   0.269  1.2902  0.7003 -1.3296
   27MOL    H28 4760   4.707   4.288   0.269 -0.5010  0.9206 -0.6317
   27MOL    C29 4761   4.537   3.901   0.353 -0.1885 -0.0745 -0.0186
   27MOL    C30 4762   4.673   3.828   0.348  0.5660 -0.5769 -0.2178
   27MOL    C31 4763   4.662   3.691   0.413 -0.8464  0.3588  0.4739
   27MOL    O32 4764   4.719   3.656   0.514  0.2415  0.1827  0.3835
   27MOL    O33 4765   4.575   3.611   0.337  0.1816 -0.3845 -0.8390
   27MOL    H34 4766   4.457   3.829   0.335 -0.0644 -0.0130 -0.8054
   27MOL    H35 4767   4.521   3.925   0.458  0.6180  0.8781 -0.1027
   27MOL    H36 4768   4.685   3.822   0.239  0.4310 -0.9818 -0.2096
   27MOL    H37 4769   4.580   3.527   0.379  0.2019 -0.2224 -0.5106
   27MOL    C38 4770   4.796   3.913   0.406  0.4757 -0.2958  0.3107
   27MOL    C39 4771   4.938   3.851   0.385  0.2071  0.1264  0.0312
   27MOL    C40 4772   5.020   3.851   0.517 -0.6764 -0.2362  0.3566
   27MOL    O41 4773   5.010   3.927   0.609 -0.1209 -0.1340  0.3915
   27MOL    O42 4774   5.122   3.757   0.502 -0.0461 -0.1935  0.0503
   27MOL    H43 4775   4.775   3.937   0.510  1.1148  0.3518  0.2961
   27MOL    H44 4776   4.802   4.011   0.359  1.7234 -0.9520 -0.9557
   27MOL    H45 4777   4.921   3.749   0.352 -0.1543  0.3695 -0.5557
   27MOL    H46 4778   5.177   3.766   0.578 -0.5253 -4.0141  0.9437
   27MOL    C47 4779   5.022   3.914   0.275 -0.6564 -1.0790 -0.2552
   27MOL    C48 4780   4.966   3.902   0.134  0.6624  0.7854 -0.4475
   27MOL    C49 4781   4.938   3.757   0.093 -0.3459 -0.4120  0.1048
   27MOL    O50 4782   4.827   3.719   0.052 -0.2503 -0.0840  0.3502
   27MOL    O51 4783   5.044   3.676   0.117 -0.2624 -0.0830  0.1316
   27MOL    H52 4784   5.123   3.873   0.278  0.3344  1.2687 -0.3223
   27MOL    H53 4785   5.043   4.015   0.311  1.7349 -1.2349 -1.0690
   27MOL    H54 4786   4.866   3.947   0.134  1.1001  1.7827 -0.9665
   27MOL    H55 4787   5.030   3.589   0.084  2.2057  0.3786 -2.3018
   27MOL    C56 4788   5.050   3.975   0.034  0.1376 -0.1075  0.1374
   27MOL    C57 4789   5.049   4.131   0.036 -0.6974 -0.2841  0.2569
   27MOL    C58 4790   4.917   4.187   0.003  0.6624 -1.0245 -0.2436
   27MOL    O59 4791   4.827   4.124   7.804  0.1352  0.2585  0.3091
   27MOL    O60 4792   4.903   4.317   0.034 -0.3999  0.6480 -0.3651
   27MOL    H61 4793   5.024   3.950   7.784  0.4030 -2.2951  0.5709
   27MOL    H62 4794   5.152   3.939   0.040 -0.1562 -0.7804  1.1585
   27MOL    H63 4795   5.054   4.176   0.135 -3.4435 -1.4391  0.9715
   27MOL    H64 4796   4.821   4.353   0.005 -2.0089 -1.6820  1.0222
   27MOL    C65 4797   5.161   4.188   7.793 -0.3430  0.5000 -0.1750
   27MOL    C66 4798   5.291   4.223   0.019 -0.0407  0.2811  0.0411
   27MOL    C67 4799   5.276   4.356   0.098  0.2866 -0.7671  0.1175
   27MOL    O68 4800   5.293   4.370   0.222  0.4122 -0.2221 -0.1910
   27MOL    O69 4801   5.257   4.461   0.015 -0.0892 -0.6092  0.7591
   27MOL    H70 4802   5.127   4.281   7.749  2.3315  0.2591 -2.9192
   27MOL    H71 4803   5.182   4.128   7.705 -1.1838 -0.3068  0.1653
   27MOL    H72 4804   5.298   4.135   0.083 -1.8083 -0.8329 -1.2329
   27MOL    H73 4805   5.267   4.542   0.064 -0.8313 -0.7110  1.0970
   27MOL    C74 4806   5.412   4.234   7.780  0.2318  0.5308 -1.2372
   27MOL    C75 4807   5.548   4.209   7.851 -0.6656  0.1406 -0.0277
   27MOL    C76 4808   5.618   4.336   0.055  0.0360 -0.1926  0.3045
   27MOL    O77 4809   5.578   4.451   0.066  0.0306 -0.1262 -0.0229
   27MOL    O78 4810   5.749   4.307   0.088  0.3041 -0.0602  0.6683
   27MOL    H79 4811   5.415   4.323   7.717 -0.1570  0.4519 -1.3700
   27MOL    H80 4812   5.393   4.156   7.706 -0.9857 -1.1204  0.7696
   27MOL    H81 4813   5.517   4.150   0.085  2.6783  0.8934  1.7513
   27MOL    H82 4814   5.800   4.380   0.119  0.5349 -0.4217  1.1483
   27MOL    C83 4815   5.639   4.114   7.763  0.4402  0.2390 -0.0103
   27MOL    C84 4816   5.722   4.189   7.648  0.2577  0.3330 -0.3358
   27MOL    C85 4817   5.635   4.203   7.520  0.4024 -0.6656 -0.0799
   27MOL    O86 4818   5.579   4.104   7.471 -0.0148 -0.5475 -0.2411
   27MOL    O87 4819   5.611   4.336   7.477  0.2160  0.1685 -0.0900
   27MOL    H88 4820   5.577   4.030   7.730  0.4850 -0.2457  1.1268
   27MOL    H89 4821   5.712   4.073   7.832  0.7437  1.7079  0.5609
   27MOL    H90 4822   5.746   4.292   7.674 -0.9655  0.4706  0.2866
   27MOL    H91 4823   5.548   4.332   7.407 -1.2566 -0.9414  1.2703
   27MOL    C92 4824   5.863   4.129   7.600 -0.4857  0.3523  0.0662
   27MOL    C93 4825   5.963   4.223   7.530 -0.1142 -0.6007  0.1834
   27MOL    C94 4826   6.012   4.340   7.619  0.1440  0.4917 -0.5488
   27MOL    O95 4827   6.069   4.319   7.726  0.1825 -0.1351  0.1197
   27MOL    O96 4828   5.985   4.465   7.564  0.7048  0.3147 -0.3096
   27MOL    H97 4829   5.857   4.042   7.536  0.4548 -1.0829  1.8602
   27MOL    H98 4830   5.915   4.096   7.690 -0.2948  0.6309  0.0592
   27MOL    H99 4831   6.051   4.163   7.510 -1.0119 -2.2681  1.1738
   27MOL   H100 4832   6.020   4.531   7.622  1.1281 -0.0473 -0.1550
   27MOL   C101 4833   5.933   4.272   7.383 -0.0172  0.5244  0.5765
   27MOL   C102 4834   5.910   4.157   7.279 -0.4008 -0.0579 -0.5716
   27MOL   C103 4835   6.047   4.092   7.245 -0.2450  0.1190  0.4482
   27MOL   O104 4836   6.101   4.010   7.318  0.6031  0.4341  0.2941
   27MOL   O105 4837   6.103   4.145   7.137  0.1073 -0.1686  0.4664
   27MOL   H106 4838   6.015   4.333   7.345 -0.8806  0.0684 -2.0958
   27MOL   H107 4839   5.847   4.338   7.386  0.6786  1.3962  1.7763
   27MOL   H108 4840   5.860   4.078   7.336 -1.4146  0.8358 -0.1899
   27MOL   H109 4841   6.193   4.117   7.134  0.4226  0.8093  0.5131
   27MOL   C110 4842   5.822   4.211   7.163 -0.3377 -0.9801 -0.1483
   27MOL   C111 4843   5.765   4.110   7.059 -0.4177  0.7792  1.1814
   27MOL   C112 4844   5.821   4.133   6.924 -0.1961 -0.7283  0.8850
   27MOL   O113 4845   5.876   4.047   6.859 -0.2899  0.0367 -0.0789
   27MOL   O114 4846   5.797   4.257   6.876 -0.3854  0.0126  0.0557
   27MOL   H115 4847   5.876   4.288   7.107 -1.4862  0.6182  0.9014
   27MOL   H116 4848   5.740   4.257   7.218  0.4670 -1.5304  1.5546
   27MOL   H117 4849   5.818   4.020   7.089 -1.7376 -0.0534  1.0451
   27MOL   H118 4850   5.838   4.266   6.791  1.2643  1.0814  0.9438
   27MOL   C119 4851   5.616   4.081   7.073  0.3971  0.0905  0.3054
   27MOL   C120 4852   5.524   4.201   7.044  0.5614  0.3193 -0.3688
   27MOL   C121 4853   5.419   4.218   7.160 -0.6246  0.4978  0.5560
   27MOL   O122 4854   5.437   4.282   7.257 -0.0499 -0.8339  0.0870
   27MOL   O123 4855   5.307   4.141   7.135 -0.7677 -0.2446 -0.2404
   27MOL   H124 4856   5.596   4.045   7.174  0.5749  0.0269  0.3185
   27MOL   H125 4857   5.573   4.006   7.006 -0.3717 -0.8149  1.7783
   27MOL   H126 4858   5.581   4.293   7.054  2.6547 -0.6605 -2.7724
   27MOL   H127 4859   5.244   4.148   7.205 -0.7436 -0.8206 -0.1597
   27MOL   C128 4860   5.461   4.192   6.900  0.2900  0.3419  0.3686
   27MOL   C129 4861   5.392   4.320   6.843  0.0852  0.0342  0.2620
   27MOL   C130 4862   5.297   4.286   6.723 -0.1401  0.3092 -0.7951
   27MOL   O131 4863   5.328   4.209   6.630  0.3349  0.1292 -0.2191
   27MOL   O132 4864   5.174   4.352   6.742  0.5104  0.8073  0.1846
   27MOL   H133 4865   5.390   4.110   6.908  0.2428  0.3334 -0.1170
   27MOL   H134 4866   5.529   4.153   6.824 -1.8377 -2.0502 -0.3836
   27MOL   H135 4867   5.331   4.383   6.908 -0.0060  1.0193 -0.7597
   27MOL   H136 4868   5.123   4.321   6.668  0.2533  0.4755  0.4997
   27MOL   C137 4869   5.508   4.418   6.795 -0.1238  0.3997  0.2928
   27MOL   C138 4870   5.541   4.533   6.901  0.0873 -0.0850  0.8270
   27MOL   C139 4871   5.427   4.639   6.910  0.1177 -0.1612  0.1160
   27MOL   O140 4872   5.362   4.675   6.811 -0.7516 -0.2226 -0.3885
   27MOL   O141 4873   5.401   4.676   7.041  0.7527 -0.4014 -0.4101
   27MOL   H142 4874   5.463   4.459   6.705  1.9362 -1.8333 -1.8375
   27MOL   H143 4875   5.599   4.367   6.762 -1.2947 -1.5494  0.0705
   27MOL   H144 4876   5.548   4.486   6.999  0.3296  3.1785  2.4407
   27MOL   H145 4877   5.330   4.738   7.052 -1.2853 -2.8976  0.9935
   27MOL   C146 4878   5.682   4.598   6.879 -0.6504  0.1593  0.3122
   27MOL   C147 4879   5.740   4.660   7.010 -0.7415  0.2851 -0.7495
   27MOL   C148 4880   5.716   4.817   7.023 -0.4133 -0.7304 -0.4365
   27MOL   O149 4881   5.634   4.873   6.957 -0.2899 -0.3278 -0.3785
   27MOL   O150 4882   5.804   4.865   7.115 -0.3237  0.2838 -0.7709
   27MOL   H151 4883   5.677   4.663   6.792  2.2897 -2.2386 -1.7363
   27MOL   H152 4884   5.746   4.517   6.847 -1.3675 -0.2207 -0.1874
   27MOL   H153 4885   5.691   4.608   7.093 -0.1380 -2.9496 -2.3249
   27MOL   H154 4886   5.800   4.957   7.139 -2.1870 -0.4717  2.0238
   27MOL   C155 4887   5.886   4.617   7.029  0.0813 -0.1099  0.5625
   27MOL   C156 4888   5.988   4.638   6.911 -0.1434  0.5385  0.3055
   27MOL   C157 4889   6.130   4.622   6.968 -0.7796  0.5092  0.3042
   27MOL   O158 4890   6.214   4.709   6.975 -0.0768 -0.0372 -0.7785
   27MOL   O159 4891   6.152   4.502   7.026 -0.3865  0.0778 -0.8851
   27MOL   H160 4892   5.885   4.509   7.042 -1.5019 -0.1780 -0.1084
   27MOL   H161 4893   5.940   4.658   7.115 -1.3634  1.0265  0.9505
   27MOL   H162 4894   5.973   4.557   6.840 -1.0991  0.5559  0.4875
   27MOL   H163 4895   6.244   4.500   7.046 -0.0447 -1.0608 -2.4853
   27MOL   C164 4896   5.982   4.768   6.838  0.5526  0.3717  0.1592
   27MOL   C165 4897   6.060   4.769   6.702 -0.4143 -0.0631 -0.7497
   27MOL   C166 4898   6.071   4.919   6.668 -0.8476  0.6154  0.2265
   27MOL   O167 4899   6.001   4.974   6.586  0.6780  0.1888  0.3420
   27MOL   O168 4900   6.175   4.982   6.728 -0.3160 -0.1310  0.2084
   27MOL   H169 4901   6.025   4.840   6.908  0.1297  0.7380  0.0471
   27MOL   H170 4902   5.884   4.813   6.819 -0.4308 -2.6826 -2.3678
   27MOL   H171 4903   6.160   4.731   6.720 -0.2931  0.2503 -0.7597
   27MOL   H172 4904   6.181   5.074   6.706 -1.5768 -0.2029 -0.4881
   27MOL   C173 4905   5.987   4.692   6.596 -0.1231  0.1454  1.3032
   27MOL   C174 4906   6.067   4.653   6.464 -0.0206  0.4654 -0.3339
   27MOL   C175 4907   6.149   4.527   6.472 -0.5350 -0.0256  0.5908
   27MOL   O176 4908   6.122   4.431   6.543 -0.1671 -0.2483 -1.0638
   27MOL   O177 4909   6.254   4.532   6.396  0.1803  0.5633 -0.2618
   27MOL   H178 4910   5.894   4.742   6.568  1.2561  1.2659 -1.5408
   27MOL   H179 4911   5.949   4.602   6.644 -0.0747  0.2012  1.4460
   27MOL   H180 4912   6.006   4.634   6.376  3.6280 -1.9683 -2.4776
   27MOL   H181 4913   6.301   4.450   6.397  0.3430  0.5929 -2.3015
   27MOL   H182 4914   6.133   4.735   6.437  0.4454 -0.2258 -1.3061
   28MOL     C1 4915   4.949   0.312   3.987  0.2579 -0.2081  0.5494
   28MOL     C2 4916   5.039   0.415   4.053  0.3801 -0.1109 -0.1782
   28MOL     C3 4917   4.964   0.471   4.170 -1.0945  0.4088 -0.0521
   28MOL     O4 4918   4.845   0.448   4.200  0.1302  0.2829 -0.1155
   28MOL     O5 4919   5.042   0.550   4.249  0.0452 -0.0423 -0.2077
   28MOL     H6 4920   4.995   0.260   3.904 -1.1176  0.0616 -0.3980
   28MOL     H7 4921   4.907   0.238   4.055 -1.9816  1.0640  0.5978
   28MOL     H8 4922   5.122   0.363   4.099  0.7918  0.5275 -0.1849
   28MOL     H9 4923   5.003   0.593   4.324  0.0386  0.0614 -0.2708
   28MOL    H10 4924   4.859   0.364   3.953 -0.6235 -0.8940  1.7973
   28MOL    C11 4925   5.096   0.526   3.949  0.1154  0.5162  0.1550
   28MOL    C12 4926   5.244   0.499   3.919 -0.9054 -0.1149  0.2928
   28MOL    C13 4927   5.333   0.548   4.035  0.1628 -0.3367  0.9886
   28MOL    O14 4928   5.304   0.651   4.090  0.5768 -0.2697  0.0872
   28MOL    O15 4929   5.450   0.479   4.036  0.6111 -0.1454  0.3503
   28MOL    H16 4930   5.082   0.627   3.988  1.4641  2.2690 -3.6555
   28MOL    H17 4931   5.047   0.525   3.851  2.6445  0.7646 -1.1534
   28MOL    H18 4932   5.254   0.390   3.911  1.0352  0.0558  0.0046
   28MOL    H19 4933   5.512   0.535   4.080  1.0087  1.0948 -1.7455
   28MOL    C20 4934   5.284   0.571   3.787 -0.0441 -0.1260  0.1034
   28MOL    C21 4935   5.259   0.485   3.662 -0.2591  0.0634 -0.0233
   28MOL    C22 4936   5.371   0.491   3.556 -0.0449 -0.0987 -0.1081
   28MOL    O23 4937   5.458   0.413   3.558 -0.3718  0.8995 -0.0069
   28MOL    O24 4938   5.353   0.584   3.454 -0.2584 -0.2505 -0.4188
   28MOL    H25 4939   5.393   0.580   3.785  0.2605 -2.2445  3.6663
   28MOL    H26 4940   5.242   0.671   3.787 -0.2535 -0.2143 -0.8242
   28MOL    H27 4941   5.270   0.380   3.689 -2.5347  0.0128  0.8275
   28MOL    H28 4942   5.420   0.551   3.396  1.0262 -1.5926  1.7279
   28MOL    C29 4943   5.117   0.492   3.595  0.1690 -0.4057 -0.0043
   28MOL    C30 4944   5.026   0.367   3.588 -0.0616  0.2701  0.2791
   28MOL    C31 4945   5.098   0.252   3.512  0.5132  0.0255  0.0352
   28MOL    O32 4946   5.166   0.263   3.418 -0.0825  0.2288  0.4103
   28MOL    O33 4947   5.039   0.135   3.541 -0.2110 -0.3270 -0.1239
   28MOL    H34 4948   5.122   0.541   3.498  2.8963  0.7199  0.6581
   28MOL    H35 4949   5.067   0.572   3.649 -0.4874 -1.3278  0.7689
   28MOL    H36 4950   5.020   0.332   3.692  0.5496 -2.1514 -0.4529
   28MOL    H37 4951   5.067   0.068   3.480  0.5797 -2.4017  2.4199
   28MOL    C38 4952   4.897   0.398   3.530 -0.3883  0.1397 -0.4072
   28MOL    C39 4953   4.796   0.482   3.611  0.1353 -0.6234  0.0968
   28MOL    C40 4954   4.680   0.391   3.658 -0.5156  0.5354  0.0525
   28MOL    O41 4955   4.567   0.396   3.608  0.2870 -0.2482 -0.2841
   28MOL    O42 4956   4.722   0.301   3.746  0.3627 -0.1610  0.4297
   28MOL    H43 4957   4.850   0.300   3.517  0.2122 -0.2365  0.2481
   28MOL    H44 4958   4.909   0.444   3.432 -1.1165 -1.4653 -1.2842
   28MOL    H45 4959   4.850   0.514   3.700 -3.0318  3.6721  0.6315
   28MOL    H46 4960   4.655   0.240   3.772  2.0438 -1.4931  1.7199
   28MOL    C47 4961   4.748   0.602   3.518 -0.1144 -0.2083 -1.0795
   28MOL    C48 4962   4.666   0.704   3.599  0.0516 -0.6205  0.3982
   28MOL    C49 4963   4.557   0.788   3.523  0.3607  0.5112 -0.5253
   28MOL    O50 4964   4.440   0.794   3.555 -0.2958  0.0583 -0.6546
   28MOL    O51 4965   4.612   0.861   3.423 -0.4229 -0.2203  0.9889
   28MOL    H52 4966   4.686   0.559   3.439 -4.3133  0.6032  1.6161
   28MOL    H53 4967   4.824   0.657   3.464 -0.2389  2.3201  1.1914
   28MOL    H54 4968   4.616   0.658   3.684 -0.5909 -0.4154  0.1335
   28MOL    H55 4969   4.545   0.914   3.383  0.6777  0.9652  0.6658
   28MOL    C56 4970   4.766   0.801   3.680 -0.6412  0.7119  0.1908
   28MOL    C57 4971   4.726   0.879   3.803  0.5801 -0.3391  0.2883
   28MOL    C58 4972   4.669   0.796   3.915 -0.1604  0.2960  0.3384
   28MOL    O59 4973   4.552   0.760   3.906 -0.3251 -0.3621 -0.0577
   28MOL    O60 4974   4.761   0.764   4.011 -0.2070 -0.0223  0.3197
   28MOL    H61 4975   4.822   0.856   3.605 -0.8902  3.9067  2.2727
   28MOL    H62 4976   4.842   0.739   3.729  1.4718  2.2567 -1.0672
   28MOL    H63 4977   4.820   0.911   3.847 -2.1069  1.2113  5.2530
   28MOL    H64 4978   4.720   0.717   4.082 -1.7220  0.6819 -0.0810
   28MOL    C65 4979   4.643   1.008   3.772  0.0870  0.6457  0.1332
   28MOL    C66 4980   4.639   1.119   3.896  0.2894  1.3244  0.2042
   28MOL    C67 4981   4.537   1.096   4.000  0.2371 -0.4777  0.4575
   28MOL    O68 4982   4.420   1.092   3.974  0.4278 -0.0798  0.4454
   28MOL    O69 4983   4.589   1.093   4.128 -0.3474  0.0489  0.5352
   28MOL    H70 4984   4.552   0.993   3.714  0.9960 -0.1477 -1.0923
   28MOL    H71 4985   4.712   1.052   3.701  0.1735 -1.3920 -1.0881
   28MOL    H72 4986   4.735   1.120   3.947  0.6038  0.0293 -0.3485
   28MOL    H73 4987   4.523   1.129   4.186  0.2224  1.3217  0.4216
   28MOL    C74 4988   4.611   1.256   3.824 -0.2467  0.0414  1.0138
   28MOL    C75 4989   4.740   1.338   3.794  0.3321 -0.1024  0.4733
   28MOL    C76 4990   4.801   1.399   3.924 -0.4838  0.0847  0.2964
   28MOL    O77 4991   4.744   1.386   4.033 -0.1220 -0.5579  0.1591
   28MOL    O78 4992   4.927   1.441   3.908  0.1227  0.4025  0.4898
   28MOL    H79 4993   4.535   1.311   3.878 -2.3709 -1.7393 -0.0962
   28MOL    H80 4994   4.554   1.231   3.734  2.1891 -1.0994 -0.2816
   28MOL    H81 4995   4.806   1.262   3.751  1.7636  1.2362  0.2795
   28MOL    H82 4996   4.976   1.455   3.988  2.5728  0.9143 -1.0622
   28MOL    C83 4997   4.713   1.444   3.682 -0.0500  0.4468  0.0078
   28MOL    C84 4998   4.699   1.383   3.540 -0.2491 -0.3172  0.2838
   28MOL    C85 4999   4.825   1.302   3.495  0.0445 -0.2538  0.2592
   28MOL    O86 5000   4.820   1.195   3.426 -0.2777 -0.0224 -0.2532
   28MOL    O87 5001   4.936   1.363   3.537  0.3923 -0.1412 -0.8213
   28MOL    H88 5002   4.792   1.519   3.686  0.5395 -0.2023  0.5643
   28MOL    H89 5003   4.614   1.484   3.707  0.5388  0.1101  3.0413
   28MOL    H90 5004   4.626   1.302   3.547 -0.5976 -0.0554 -0.3308
   28MOL    H91 5005   5.019   1.338   3.499  1.9427  3.6928 -0.2159
   28MOL    C92 5006   4.662   1.498   3.442 -0.0719  0.4539 -0.6395
   28MOL    C93 5007   4.519   1.558   3.438 -0.0832 -0.3519 -0.1192
   28MOL    C94 5008   4.498   1.665   3.547  0.0082  0.8316 -0.1505
   28MOL    O95 5009   4.585   1.745   3.573  0.5361 -0.3660 -0.4586
   28MOL    O96 5010   4.371   1.678   3.598 -0.0156 -0.0308 -0.4353
   28MOL    H97 5011   4.680   1.465   3.340 -1.0463  1.3138 -1.1069
   28MOL    H98 5012   4.739   1.573   3.462  0.3540 -0.6773  2.1595
   28MOL    H99 5013   4.506   1.625   3.353  2.4111 -1.1886 -1.1964
   28MOL   H100 5014   4.369   1.746   3.664  0.0098 -0.7267  0.3005
   28MOL   C101 5015   4.398   1.452   3.429  0.1847 -0.1443  0.2054
   28MOL   C102 5016   4.406   1.352   3.311  0.4208  0.2730 -0.4921
   28MOL   C103 5017   4.469   1.413   3.187 -0.9363 -0.3485  0.0173
   28MOL   O104 5018   4.582   1.376   3.142  0.3749  0.0130  0.1740
   28MOL   O105 5019   4.390   1.513   3.139  0.0199 -0.2614  0.0556
   28MOL   H106 5020   4.307   1.509   3.408  0.5326 -0.1993 -1.5591
   28MOL   H107 5021   4.392   1.396   3.522  0.8162 -0.0883  0.2820
   28MOL   H108 5022   4.477   1.279   3.349  0.6854 -0.4666 -2.3866
   28MOL   H109 5023   4.437   1.553   3.068  1.4046  0.1238  1.1570
   28MOL   C110 5024   4.267   1.288   3.285 -0.2633  0.6267 -0.4531
   28MOL   C111 5025   4.182   1.242   3.403  0.4159 -0.0709 -0.4021
   28MOL   C112 5026   4.255   1.137   3.489  0.3418  0.5688 -0.2224
   28MOL   O113 5027   4.348   1.068   3.449  0.9760 -0.1979  0.4444
   28MOL   O114 5028   4.194   1.125   3.612 -0.1282 -0.5585  0.1171
   28MOL   H115 5029   4.286   1.196   3.231 -0.6633 -0.8983  1.9363
   28MOL   H116 5030   4.207   1.356   3.224  0.5567  1.2328 -0.5928
   28MOL   H117 5031   4.162   1.332   3.461  0.2591  1.1911 -2.3600
   28MOL   H118 5032   4.234   1.062   3.670  0.5155  0.4392  0.7710
   28MOL   C119 5033   4.046   1.191   3.356  0.0027  1.0627 -0.3960
   28MOL   C120 5034   3.941   1.291   3.304  0.1440  0.1320  0.2335
   28MOL   C121 5035   3.954   1.436   3.360  0.6524  0.4786 -0.4387
   28MOL   O122 5036   3.934   1.464   3.476 -0.1435 -0.0414  0.1524
   28MOL   O123 5037   4.008   1.523   3.267  0.7828 -0.7558  0.1883
   28MOL   H124 5038   4.002   1.128   3.433  0.5079  1.2391  0.0383
   28MOL   H125 5039   4.062   1.118   3.277 -0.7047 -0.6025  0.9676
   28MOL   H126 5040   3.969   1.310   3.200  0.3982 -1.1209  0.0697
   28MOL   H127 5041   4.016   1.489   3.179  1.9008  1.9181 -0.7771
   28MOL   C128 5042   3.793   1.248   3.316  0.6216 -1.1401  0.7206
   28MOL   C129 5043   3.743   1.149   3.205 -0.2960 -0.2577 -0.6784
   28MOL   C130 5044   3.686   1.225   3.084  0.2600  0.4625  0.6553
   28MOL   O131 5045   3.578   1.199   3.035  0.4013 -0.0997  0.7170
   28MOL   O132 5046   3.775   1.313   3.039  0.0048 -0.6487  0.0401
   28MOL   H133 5047   3.729   1.334   3.337  0.4080 -1.1577  0.1597
   28MOL   H134 5048   3.788   1.196   3.412  1.4890  0.6938  1.7871
   28MOL   H135 5049   3.827   1.090   3.170  0.4728  0.1137  0.5255
   28MOL   H136 5050   3.735   1.340   2.958  0.9845 -2.5666 -1.1200
   28MOL   C137 5051   3.640   1.041   3.252  0.0264 -0.1483 -0.3779
   28MOL   C138 5052   3.670   0.952   3.383  0.5004  0.1748  0.4666
   28MOL   C139 5053   3.815   0.905   3.400  0.6875  0.6102 -0.5078
   28MOL   O140 5054   3.902   0.905   3.317  0.2886 -0.0381  0.5198
   28MOL   O141 5055   3.829   0.864   3.530 -0.0623  0.5212  0.5706
   28MOL   H142 5056   3.626   0.973   3.168  1.8489  0.2446 -1.0299
   28MOL   H143 5057   3.545   1.089   3.273  0.8548  1.4218 -0.0922
   28MOL   H144 5058   3.656   1.027   3.461  0.4257  2.0243 -1.2973
   28MOL   H145 5059   3.919   0.833   3.538 -0.3305 -0.3268  0.3987
   28MOL   C146 5060   3.581   0.832   3.386  0.1956  0.0973  0.1775
   28MOL   C147 5061   3.539   0.766   3.520 -0.0200 -0.8633 -0.0399
   28MOL   C148 5062   3.415   0.677   3.497  0.3672 -0.0842 -0.4222
   28MOL   O149 5063   3.312   0.726   3.438  0.4314 -0.2576 -0.0042
   28MOL   O150 5064   3.420   0.550   3.532 -0.2384  0.3716 -0.4607
   28MOL   H151 5065   3.627   0.752   3.328  0.1077  1.2441 -1.4903
   28MOL   H152 5066   3.486   0.852   3.337  1.0836  1.2103 -1.1228
   28MOL   H153 5067   3.621   0.711   3.566 -0.2926 -2.9408 -1.9178
   28MOL   H154 5068   3.499   0.520   3.573  0.2565  3.3706  0.8887
   28MOL   C155 5069   3.511   0.882   3.625 -0.1373 -0.1036  0.8884
   28MOL   C156 5070   3.482   0.838   3.778  0.2726  0.1249 -0.4258
   28MOL   C157 5071   3.352   0.912   3.836 -0.1750  0.2331 -0.1858
   28MOL   O158 5072   3.361   1.001   3.923 -0.3664 -0.1396 -0.4088
   28MOL   O159 5073   3.240   0.856   3.781 -0.1892 -0.1178 -0.5343
   28MOL   H160 5074   3.435   0.949   3.586 -1.3790 -2.0874 -0.2240
   28MOL   H161 5075   3.597   0.947   3.641 -1.3824  1.4518  1.3271
   28MOL   H162 5076   3.456   0.732   3.782  1.2397 -0.1025  0.1521
   28MOL   H163 5077   3.168   0.910   3.811 -0.2497 -1.3572  1.6672
   28MOL   C164 5078   3.600   0.874   3.869  0.1205 -0.2775 -0.2571
   28MOL   C165 5079   3.610   0.794   4.000  0.2853  0.1202  0.1705
   28MOL   C166 5080   3.687   0.858   4.116  0.2130  0.4952 -0.6927
   28MOL   O167 5081   3.767   0.952   4.100 -0.7253 -0.3338  0.2312
   28MOL   O168 5082   3.661   0.790   4.235  0.1525 -0.2861  0.0401
   28MOL   H169 5083   3.612   0.983   3.873 -1.4726 -0.0633 -0.9486
   28MOL   H170 5084   3.686   0.843   3.809  0.0969  0.2396 -0.5591
   28MOL   H171 5085   3.505   0.794   4.030  0.0003 -1.7473 -0.7579
   28MOL   H172 5086   3.710   0.823   4.308  0.1403 -1.3477  0.5513
   28MOL   C173 5087   3.664   0.649   3.964  0.0696  0.2892 -0.9072
   28MOL   C174 5088   3.603   0.537   4.053  0.7536  0.1145  0.5886
   28MOL   C175 5089   3.649   0.393   4.026 -0.9532  0.2608 -0.3456
   28MOL   O176 5090   3.730   0.370   3.935  0.4285  0.4593 -0.4505
   28MOL   O177 5091   3.597   0.300   4.110 -0.4920  0.0282  0.3478
   28MOL   H178 5092   3.772   0.656   3.952 -0.0888 -0.7633 -3.2144
   28MOL   H179 5093   3.630   0.625   3.863  1.4830  0.2048 -1.3685
   28MOL   H180 5094   3.612   0.535   4.161  0.2357 -1.4042  0.6162
   28MOL   H181 5095   3.639   0.224   4.073 -2.9109 -0.1046 -2.3403
   28MOL   H182 5096   3.496   0.535   4.034  1.2143 -0.1677 -2.1862
   29MOL     C1 5097   0.288   5.430   4.845  0.5276 -0.2133  0.5949
   29MOL     C2 5098   0.289   5.351   4.713  0.1520 -0.8329 -0.3012
   29MOL     C3 5099   0.328   5.440   4.596 -0.3002  0.0875 -0.5565
   29MOL     O4 5100   0.256   5.465   4.493 -0.5753  0.4425 -0.1167
   29MOL     O5 5101   0.461   5.469   4.613  0.1382  0.3098 -0.4795
   29MOL     H6 5102   0.223   5.516   4.833  0.5414 -0.4040 -1.0358
   29MOL     H7 5103   0.249   5.362   4.921 -0.4661 -0.4997 -0.1539
   29MOL     H8 5104   0.368   5.280   4.739  0.4239 -0.8922 -1.2780
   29MOL     H9 5105   0.497   5.434   4.693  2.0278  1.2031 -0.9094
   29MOL    H10 5106   0.388   5.463   4.874  1.4604 -1.3651 -1.1301
   29MOL    C11 5107   0.158   5.277   4.687 -0.4151 -0.3713  0.4834
   29MOL    C12 5108   0.159   5.127   4.652  0.2142  0.2053 -0.1717
   29MOL    C13 5109   0.199   5.048   4.776 -0.1566  0.5235 -0.2263
   29MOL    O14 5110   0.306   4.990   4.786 -0.8618  0.2965  0.0941
   29MOL    O15 5111   0.100   5.056   4.873 -0.1132  0.7269  0.3565
   29MOL    H16 5112   0.088   5.330   4.622 -0.3810  0.3707  1.0480
   29MOL    H17 5113   0.092   5.290   4.773  0.0636 -2.3501  1.1819
   29MOL    H18 5114   0.056   5.093   4.636 -0.1587  0.9236  0.6747
   29MOL    H19 5115   0.137   5.006   4.945 -1.8508  1.7235  1.9946
   29MOL    C20 5116   0.240   5.092   4.525 -0.2088 -0.7803 -0.3067
   29MOL    C21 5117   0.230   4.945   4.465 -0.1866 -1.0891  0.1823
   29MOL    C22 5118   0.335   4.953   4.354  0.7365 -0.2293 -0.0291
   29MOL    O23 5119   0.313   4.969   4.237  0.0518  0.1425  0.6936
   29MOL    O24 5120   0.463   4.956   4.402  0.3271  0.6654  0.2640
   29MOL    H25 5121   0.343   5.120   4.545 -0.2115 -1.1603  0.2455
   29MOL    H26 5122   0.197   5.162   4.453  0.4038  0.4840  0.5509
   29MOL    H27 5123   0.271   4.877   4.539  0.0468  0.5900  1.6364
   29MOL    H28 5124   0.533   4.958   4.339 -1.0234 -1.3987 -1.3809
   29MOL    C29 5125   0.084   4.910   4.427  0.7473  0.5023  0.4321
   29MOL    C30 5126   0.048   4.757   4.405  0.2454  0.2539 -0.1336
   29MOL    C31 5127   0.042   4.680   4.538  0.2934  0.7182  0.2207
   29MOL    O32 5128   0.068   4.562   4.551  0.0147 -0.2635  0.2590
   29MOL    O33 5129   0.002   4.756   4.643  0.5164  0.7756  0.3311
   29MOL    H34 5130   0.052   4.967   4.340  2.0391  0.1657 -0.2827
   29MOL    H35 5131   0.020   4.951   4.505 -0.0018  0.5542 -0.2094
   29MOL    H36 5132   7.798   4.774   4.374 -0.5362 -0.7750  1.8165
   29MOL    H37 5133   7.840   4.698   4.716  1.0137  0.8017  0.4549
   29MOL    C38 5134   0.117   4.683   4.283  0.0418  0.9083 -0.1528
   29MOL    C39 5135   0.084   4.729   4.139  0.4061 -0.2199 -0.5940
   29MOL    C40 5136   7.784   4.697   4.110  0.1306 -0.1584 -0.6019
   29MOL    O41 5137   7.736   4.584   4.093 -0.0839 -0.1181 -0.0814
   29MOL    O42 5138   7.707   4.803   4.105 -0.0607 -0.2000  0.3868
   29MOL    H43 5139   0.092   4.577   4.284  0.8197  0.7273  2.2559
   29MOL    H44 5140   0.223   4.686   4.308  0.2145  2.4166 -0.9768
   29MOL    H45 5141   0.107   4.835   4.136 -2.7016  0.5128 -0.2521
   29MOL    H46 5142   7.619   4.776   4.082  0.1193 -1.4992  1.1664
   29MOL    C47 5143   0.186   4.657   4.046 -0.2932 -0.6160  0.1765
   29MOL    C48 5144   0.182   4.705   3.897  0.4777  0.2571 -0.0312
   29MOL    C49 5145   0.291   4.614   3.832  0.2712 -0.2848 -0.6739
   29MOL    O50 5146   0.391   4.658   3.784 -0.2905  0.2273  0.0507
   29MOL    O51 5147   0.260   4.481   3.838 -0.5456  0.1299 -0.2162
   29MOL    H52 5148   0.147   4.556   4.056  0.0908 -0.7832 -0.0209
   29MOL    H53 5149   0.289   4.665   4.079  0.0260 -1.3991 -0.6047
   29MOL    H54 5150   0.085   4.679   3.854  0.4453 -2.0327  1.3316
   29MOL    H55 5151   0.322   4.427   3.791 -0.5205 -0.7695  0.8359
   29MOL    C56 5152   0.205   4.858   3.886  0.4975  0.3490 -0.2063
   29MOL    C57 5153   0.218   4.922   3.745 -0.2530 -0.3543 -0.3548
   29MOL    C58 5154   0.273   5.071   3.748 -0.0635 -0.3079  0.3795
   29MOL    O59 5155   0.214   5.170   3.701  0.6009 -0.0072 -0.0108
   29MOL    O60 5156   0.379   5.081   3.838 -0.0681  0.2629 -0.5940
   29MOL    H61 5157   0.302   4.876   3.933  0.4720 -1.4599  0.5512
   29MOL    H62 5158   0.128   4.912   3.941 -1.4073 -2.1670 -0.3324
   29MOL    H63 5159   0.288   4.859   3.690 -1.0677 -0.8001 -0.8883
   29MOL    H64 5160   0.414   5.169   3.835  1.6877 -0.3744  0.5924
   29MOL    C65 5161   0.087   4.910   3.662 -0.9281  0.1118 -0.0281
   29MOL    C66 5162   0.101   4.918   3.511  0.2172  0.3327 -0.0303
   29MOL    C67 5163   7.819   4.931   3.436  0.1013 -0.5643  0.1875
   29MOL    O68 5164   7.717   4.862   3.457 -0.5212  0.1535 -0.1594
   29MOL    O69 5165   7.827   5.023   3.333  0.1043  0.3346 -0.3625
   29MOL    H70 5166   0.018   4.987   3.695 -0.5016  1.6672 -2.5846
   29MOL    H71 5167   0.025   4.824   3.689  1.5586 -1.0288  2.2945
   29MOL    H72 5168   0.156   5.011   3.497 -0.0952  0.5285  0.0402
   29MOL    H73 5169   7.748   5.029   3.282 -0.4475  2.9591  0.7594
   29MOL    C74 5170   0.169   4.796   3.445 -0.2686 -0.7785  0.3950
   29MOL    C75 5171   0.245   4.819   3.308 -0.0231 -0.1011 -0.3811
   29MOL    C76 5172   0.175   4.725   3.205  0.0920 -0.4187 -0.8026
   29MOL    O77 5173   0.224   4.621   3.159 -0.8155  0.3760 -0.3606
   29MOL    O78 5174   0.050   4.779   3.171  0.1513 -0.5746  0.9048
   29MOL    H79 5175   0.090   4.722   3.433 -0.8898 -0.2892  1.3686
   29MOL    H80 5176   0.245   4.743   3.502  1.1733  1.1035  0.2881
   29MOL    H81 5177   0.214   4.918   3.274 -2.7782 -0.9119 -0.3768
   29MOL    H82 5178   7.846   4.729   3.114 -0.0446 -0.2615  0.8214
   29MOL    C83 5179   0.393   4.791   3.309 -0.2047 -0.8393  0.5566
   29MOL    C84 5180   0.481   4.903   3.372  0.3986 -1.3858  0.7162
   29MOL    C85 5181   0.479   5.027   3.283  0.4068  0.0585  0.1443
   29MOL    O86 5182   0.483   5.022   3.156  0.2095  0.3799 -0.6131
   29MOL    O87 5183   0.469   5.144   3.352  0.2634 -0.6767  0.4672
   29MOL    H88 5184   0.434   4.760   3.213  3.3034 -1.4846  2.1898
   29MOL    H89 5185   0.410   4.699   3.365  1.3255 -0.3919  0.8536
   29MOL    H90 5186   0.424   4.942   3.456 -0.4497  0.8441 -0.8242
   29MOL    H91 5187   0.469   5.221   3.297 -1.1086 -0.4592  0.7525
   29MOL    C92 5188   0.626   4.865   3.384  0.9072 -0.3871  0.3252
   29MOL    C93 5189   0.648   4.797   3.524  0.0183  0.0521 -0.1818
   29MOL    C94 5190   0.645   4.901   3.639  0.9492  0.2459  0.5165
   29MOL    O95 5191   0.678   5.020   3.624 -0.6700 -0.1287 -0.3745
   29MOL    O96 5192   0.608   4.847   3.758  0.0521  0.1847 -0.0780
   29MOL    H97 5193   0.694   4.950   3.377  1.4964 -0.8458  0.4214
   29MOL    H98 5194   0.656   4.812   3.294  1.9377  0.8463 -0.0695
   29MOL    H99 5195   0.561   4.734   3.544 -0.8730  0.8197 -1.5883
   29MOL   H100 5196   0.623   4.910   3.827  0.7064 -0.0572  0.0086
   29MOL   C101 5197   0.783   4.714   3.516 -0.6243  0.1601  0.2907
   29MOL   C102 5198   0.793   4.610   3.629 -0.1841 -0.1279 -0.8135
   29MOL   C103 5199   0.925   4.633   3.699  0.1565 -0.0843 -0.3376
   29MOL   O104 5200   1.022   4.561   3.683  0.2148  0.4984  0.0227
   29MOL   O105 5201   0.919   4.752   3.771 -0.6642  0.2559  0.2656
   29MOL   H106 5202   0.864   4.787   3.510  0.8895 -1.5410 -0.5260
   29MOL   H107 5203   0.782   4.656   3.424  0.6224 -1.9282  1.5593
   29MOL   H108 5204   0.719   4.620   3.709  1.8677 -0.0730  1.1316
   29MOL   H109 5205   1.000   4.764   3.819 -0.5355  1.5785 -0.2840
   29MOL   C110 5206   0.779   4.467   3.574  0.6552 -0.3644  0.1790
   29MOL   C111 5207   0.812   4.346   3.671  0.0972 -0.0664  0.1154
   29MOL   C112 5208   0.803   4.219   3.584  0.1737  0.1615  0.2921
   29MOL   O113 5209   0.905   4.161   3.551 -0.0446  0.8320 -0.9368
   29MOL   O114 5210   0.675   4.183   3.558  0.5927  0.2173 -0.1102
   29MOL   H115 5211   0.846   4.455   3.489 -0.4409 -1.3073 -0.5691
   29MOL   H116 5212   0.688   4.449   3.516 -0.5869 -0.9883  2.2595
   29MOL   H117 5213   0.916   4.346   3.702 -0.2821 -0.7024  1.4485
   29MOL   H118 5214   0.684   4.099   3.515 -1.1890  0.2412 -0.5697
   29MOL   C119 5215   0.727   4.341   3.799 -0.5614 -0.1429 -0.2920
   29MOL   C120 5216   0.774   4.233   3.899  1.0582 -0.2016 -1.0044
   29MOL   C121 5217   0.667   4.138   3.933 -0.0831 -0.7887 -0.3992
   29MOL   O122 5218   0.550   4.166   3.957  0.2491 -0.1747  0.2532
   29MOL   O123 5219   0.719   4.012   3.941  0.5429 -0.0810 -0.4712
   29MOL   H124 5220   0.628   4.314   3.765 -1.6661  1.4594  1.4927
   29MOL   H125 5221   0.714   4.440   3.843  0.7804 -0.0433 -0.0867
   29MOL   H126 5222   0.847   4.177   3.841  1.3238  0.1584 -1.0197
   29MOL   H127 5223   0.663   3.948   3.982  0.0347 -0.0348 -1.0828
   29MOL   C128 5224   0.840   4.299   4.030  0.6694  0.2307 -0.1200
   29MOL   C129 5225   0.936   4.422   4.021  0.3118  0.3085 -0.2829
   29MOL   C130 5226   1.068   4.394   3.938  0.7585 -0.0042  0.1735
   29MOL   O131 5227   1.080   4.286   3.884  0.9928  0.1768  0.7222
   29MOL   O132 5228   1.158   4.495   3.945  0.1160 -0.2138  0.6321
   29MOL   H133 5229   0.913   4.226   4.066  1.1023  0.4717 -0.5104
   29MOL   H134 5230   0.762   4.317   4.104 -1.0568 -1.0822 -1.5593
   29MOL   H135 5231   0.885   4.506   3.975  2.6564  0.6687 -2.3211
   29MOL   H136 5232   1.245   4.465   3.921  0.3983 -0.0669  1.4493
   29MOL   C137 5233   0.975   4.467   4.161 -0.1868 -0.5090  0.4755
   29MOL   C138 5234   0.927   4.608   4.193 -0.0372 -0.1055  0.2010
   29MOL   C139 5235   1.036   4.687   4.270 -0.4976 -0.0446  0.1198
   29MOL   O140 5236   1.041   4.694   4.393  0.2560 -0.7078  0.4098
   29MOL   O141 5237   1.143   4.731   4.197  0.4613 -0.3909  0.7148
   29MOL   H142 5238   1.084   4.460   4.167 -0.1032 -0.6063 -1.0602
   29MOL   H143 5239   0.948   4.392   4.235 -0.8827 -0.3786  0.3591
   29MOL   H144 5240   0.910   4.659   4.098  2.6900 -0.4541 -0.4988
   29MOL   H145 5241   1.119   4.718   4.107 -0.3566  0.4171  0.8073
   29MOL   C146 5242   0.790   4.617   4.267 -0.3070  0.4692  0.4519
   29MOL   C147 5243   0.654   4.586   4.201 -0.0489 -0.5083  0.2131
   29MOL   C148 5244   0.621   4.664   4.077 -0.2784 -0.4190  0.9595
   29MOL   O149 5245   0.686   4.762   4.046  0.2890 -0.4561  0.4635
   29MOL   O150 5246   0.519   4.610   4.012  0.1530  0.1962  0.2456
   29MOL   H151 5247   0.780   4.714   4.316 -2.9842  0.3916  0.1525
   29MOL   H152 5248   0.802   4.555   4.356  0.9480  0.8741  0.5721
   29MOL   H153 5249   0.655   4.480   4.176  1.1493 -0.1068 -1.6343
   29MOL   H154 5250   0.495   4.662   3.936  2.3547  0.4109 -0.3283
   29MOL   C155 5251   0.543   4.612   4.303 -0.5581  0.3880  0.0200
   29MOL   C156 5252   0.542   4.524   4.430  0.7519  0.5607 -0.6913
   29MOL   C157 5253   0.501   4.375   4.406 -0.2594 -0.2498 -0.3987
   29MOL   O158 5254   0.499   4.297   4.502 -0.1706 -0.5338  0.0065
   29MOL   O159 5255   0.476   4.352   4.275  0.2855  0.4882 -0.2539
   29MOL   H160 5256   0.445   4.613   4.255  0.0762  1.1655 -1.2757
   29MOL   H161 5257   0.562   4.713   4.339  3.0812 -0.5146  0.7496
   29MOL   H162 5258   0.644   4.509   4.467  2.7495  2.9947 -4.8683
   29MOL   H163 5259   0.439   4.265   4.269 -0.0358  0.7345 -2.4607
   29MOL   C164 5260   0.460   4.593   4.546 -0.5333  0.4452 -0.4282
   29MOL   C165 5261   0.494   4.546   4.689  0.8160 -0.4974 -0.2348
   29MOL   C166 5262   0.389   4.605   4.792 -0.6242  0.2953 -0.4636
   29MOL   O167 5263   0.290   4.670   4.762 -0.1074 -0.5746  1.1681
   29MOL   O168 5264   0.414   4.570   4.924 -0.2402 -0.5582  0.0459
   29MOL   H169 5265   0.354   4.577   4.528 -0.5900 -1.8197  1.6983
   29MOL   H170 5266   0.476   4.701   4.542 -0.5911  0.7165  4.0411
   29MOL   H171 5267   0.476   4.439   4.702 -1.2459  0.1438  2.8816
   29MOL   H172 5268   0.359   4.619   4.984 -0.7529  0.9210 -1.5924
   29MOL   C173 5269   0.640   4.585   4.726  0.5404  0.3162 -0.7614
   29MOL   C174 5270   0.682   4.730   4.715 -0.4849  0.0039 -0.7878
   29MOL   C175 5271   0.829   4.754   4.750  0.0388 -0.2286  0.5182
   29MOL   O176 5272   0.903   4.792   4.664  0.0376 -0.0548  0.0282
   29MOL   O177 5273   0.858   4.746   4.883 -0.2196 -0.2654 -0.3032
   29MOL   H178 5274   0.705   4.522   4.665  1.4376 -1.6894  2.0997
   29MOL   H179 5275   0.659   4.549   4.828 -1.3129  2.2447  0.2781
   29MOL   H180 5276   0.667   4.759   4.611 -0.4210 -0.2374 -0.8640
   29MOL   H181 5277   0.952   4.746   4.896 -0.5460 -2.1360  2.1319
   29MOL   H182 5278   0.614   4.789   4.778 -1.9487 -3.2615  0.8127
   30MOL     C1 5279   5.297   4.619   3.856 -0.3984 -0.5692 -0.5670
   30MOL     C2 5280   5.404   4.625   3.972  0.3452 -0.4035  0.3392
   30MOL     C3 5281   5.535   4.640   3.900 -0.1382  0.2465  0.4535
   30MOL     O4 5282   5.590   4.544   3.838  1.2000 -0.3877  0.1857
   30MOL     O5 5283   5.588   4.765   3.903  0.1416  0.2644  0.2069
   30MOL     H6 5284   5.194   4.625   3.893 -0.3771 -0.0024 -0.5994
   30MOL     H7 5285   5.314   4.706   3.794  1.2740 -0.9718 -0.6942
   30MOL     H8 5286   5.376   4.712   4.032 -1.2913 -1.5451  1.2771
   30MOL     H9 5287   5.659   4.770   3.840 -0.1636  0.0555 -0.1587
   30MOL    H10 5288   5.301   4.533   3.789 -1.0778 -0.7317 -0.4118
   30MOL    C11 5289   5.407   4.490   4.048 -0.3726 -0.7944 -0.0595
   30MOL    C12 5290   5.506   4.485   4.171  0.7277  0.3639  0.1600
   30MOL    C13 5291   5.504   4.351   4.231  0.4298 -0.0693 -0.2107
   30MOL    O14 5292   5.401   4.277   4.226  0.1370 -0.5997 -0.0110
   30MOL    O15 5293   5.617   4.319   4.287 -0.1545 -0.1156  0.2270
   30MOL    H16 5294   5.420   4.413   3.971 -2.2080 -1.6197  0.4266
   30MOL    H17 5295   5.307   4.469   4.086 -0.6177 -0.5226 -0.5552
   30MOL    H18 5296   5.608   4.492   4.134  0.5510  3.4118  0.1097
   30MOL    H19 5297   5.612   4.235   4.331 -1.7429  1.6068  3.4949
   30MOL    C20 5298   5.493   4.599   4.277 -0.8977  0.1581  0.5819
   30MOL    C21 5299   5.351   4.641   4.322  0.0173  0.2597  0.0843
   30MOL    C22 5300   5.323   4.781   4.278 -0.3051 -0.3943 -0.3429
   30MOL    O23 5301   5.402   4.876   4.292  0.4018 -0.2236  0.2946
   30MOL    O24 5302   5.195   4.793   4.233 -0.3056  0.0534  0.2268
   30MOL    H25 5303   5.549   4.686   4.240 -1.3306  1.2535  2.4487
   30MOL    H26 5304   5.561   4.577   4.359 -0.7164 -3.4514 -0.4733
   30MOL    H27 5305   5.273   4.581   4.276  0.4989 -1.6596  1.7095
   30MOL    H28 5306   5.171   4.883   4.217 -2.2125 -0.6265 -0.9962
   30MOL    C29 5307   5.322   4.617   4.475  0.1643  0.0195 -0.0165
   30MOL    C30 5308   5.180   4.658   4.533 -0.8011  0.1579  0.6658
   30MOL    C31 5309   5.174   4.810   4.570  0.3755  0.2802  0.1019
   30MOL    O32 5310   5.274   4.875   4.602  0.7484  0.0416  0.0917
   30MOL    O33 5311   5.055   4.866   4.548  0.4276  0.1161 -0.0015
   30MOL    H34 5312   5.399   4.663   4.537  0.7943  1.0504 -1.5361
   30MOL    H35 5313   5.332   4.511   4.497  0.9843  0.4530  1.7847
   30MOL    H36 5314   5.101   4.663   4.459 -0.7887 -1.6134  0.5045
   30MOL    H37 5315   5.067   4.958   4.566 -0.1440 -0.0375  1.2668
   30MOL    C38 5316   5.123   4.572   4.643 -0.2561 -0.4149  0.0316
   30MOL    C39 5317   5.166   4.596   4.788 -0.0378 -0.1003 -0.3842
   30MOL    C40 5318   5.295   4.510   4.822  0.1214 -0.3529  0.0040
   30MOL    O41 5319   5.345   4.433   4.741 -0.1914  0.3544 -0.2649
   30MOL    O42 5320   5.339   4.516   4.949 -0.0760 -0.1223 -0.1287
   30MOL    H43 5321   5.125   4.468   4.611  0.0006 -0.4426  0.1452
   30MOL    H44 5322   5.014   4.581   4.637 -0.3399  0.1286  2.0793
   30MOL    H45 5323   5.202   4.696   4.811 -0.4257 -0.9684  4.7271
   30MOL    H46 5324   5.418   4.467   4.963 -0.5688 -0.6020  1.1224
   30MOL    C47 5325   5.046   4.584   4.882  0.4698  0.0143 -0.4535
   30MOL    C48 5326   4.978   4.712   4.941 -0.6253  0.3388  0.2839
   30MOL    C49 5327   4.895   4.790   4.841  0.1927 -0.2728 -0.6265
   30MOL    O50 5328   4.904   4.911   4.823 -0.1085 -0.1360 -0.4132
   30MOL    O51 5329   4.807   4.711   4.790 -0.1497  0.7960 -0.1081
   30MOL    H52 5330   5.069   4.514   4.962  0.1618  1.5769  1.0396
   30MOL    H53 5331   4.965   4.525   4.838  0.7404  0.1442 -1.1220
   30MOL    H54 5332   4.892   4.681   5.001 -0.8758 -0.3963 -0.4571
   30MOL    H55 5333   4.744   4.745   4.728  2.6479  1.2058 -2.8625
   30MOL    C56 5334   5.079   4.802   5.022  1.1887  0.3602 -0.5840
   30MOL    C57 5335   5.043   4.857   5.160 -0.3060  0.9946  0.0769
   30MOL    C58 5336   5.016   4.738   5.253 -0.3152  0.2268  0.0234
   30MOL    O59 5337   5.108   4.664   5.293 -0.6750 -0.3010 -0.2409
   30MOL    O60 5338   4.881   4.722   5.273  0.0554 -0.4067  0.1929
   30MOL    H61 5339   5.108   4.891   4.967 -2.1066  1.1917 -1.0996
   30MOL    H62 5340   5.172   4.747   5.032  1.6401  1.0808 -0.7928
   30MOL    H63 5341   5.132   4.900   5.206  0.2891  1.2502 -1.2915
   30MOL    H64 5342   4.861   4.641   5.317 -0.4423 -0.5901 -0.3706
   30MOL    C65 5343   4.929   4.962   5.157  0.3566  0.6475 -0.0470
   30MOL    C66 5344   4.971   5.109   5.132  0.3259 -0.1519 -0.5309
   30MOL    C67 5345   5.063   5.163   5.244 -0.0919  0.1275  0.2537
   30MOL    O68 5346   5.036   5.199   5.355 -0.1890  0.0050 -0.0496
   30MOL    O69 5347   5.188   5.162   5.193 -0.2472  0.2686 -0.1380
   30MOL    H70 5348   4.861   4.957   5.242  0.3922 -0.8281 -0.1073
   30MOL    H71 5349   4.867   4.923   5.075  1.7505  0.4406 -1.0161
   30MOL    H72 5350   5.018   5.116   5.033  1.8832 -1.9980  0.0467
   30MOL    H73 5351   5.250   5.186   5.260  0.2665 -0.4655 -0.3388
   30MOL    C74 5352   4.845   5.193   5.115 -0.1502 -0.0631 -0.4508
   30MOL    C75 5353   4.860   5.339   5.070 -0.2350  0.0212  0.5713
   30MOL    C76 5354   4.720   5.401   5.080  0.1647 -0.3394 -0.5508
   30MOL    O77 5355   4.642   5.416   4.985 -0.4411  0.0564 -0.3762
   30MOL    O78 5356   4.696   5.433   5.211  0.4893 -0.0971  0.2940
   30MOL    H79 5357   4.790   5.187   5.209 -0.1547 -0.6995 -0.4866
   30MOL    H80 5358   4.778   5.141   5.047 -0.3732  0.6020 -0.7417
   30MOL    H81 5359   4.917   5.393   5.146  0.3384  0.6861 -0.3263
   30MOL    H82 5360   4.608   5.465   5.227  1.6319  3.3990 -0.0175
   30MOL    C83 5361   4.923   5.371   4.934  0.0847  0.0774 -0.5243
   30MOL    C84 5362   5.003   5.502   4.930  0.5220 -0.3259 -0.1050
   30MOL    C85 5363   4.915   5.620   4.947 -0.3099 -0.6169  0.3370
   30MOL    O86 5364   4.858   5.677   4.854  0.2899  0.5122 -0.6836
   30MOL    O87 5365   4.905   5.661   5.079 -0.0075 -0.1190  0.0442
   30MOL    H88 5366   4.842   5.364   4.861 -2.4526 -1.0712  2.2594
   30MOL    H89 5367   4.997   5.293   4.916  0.7317  0.6366 -0.3140
   30MOL    H90 5368   5.074   5.499   5.013  0.7083 -0.1438 -0.2584
   30MOL    H91 5369   4.843   5.732   5.084  2.0633  1.8425 -0.8790
   30MOL    C92 5370   5.080   5.508   4.788 -0.0934  0.4534 -0.2990
   30MOL    C93 5371   5.215   5.429   4.777 -0.1298 -0.4343 -0.7362
   30MOL    C94 5372   5.309   5.466   4.893 -0.2045  0.3025  0.2455
   30MOL    O95 5373   5.374   5.566   4.898  0.0154  0.0401 -0.0545
   30MOL    O96 5374   5.313   5.365   4.986 -0.1718  0.3143  0.1485
   30MOL    H97 5375   5.104   5.609   4.756  1.5824  0.0683 -0.3227
   30MOL    H98 5376   5.019   5.475   4.704  0.2053 -3.6253  0.9945
   30MOL    H99 5377   5.206   5.321   4.794  0.9336 -0.5460 -0.8866
   30MOL   H100 5378   5.361   5.376   5.067  0.8336  0.6208 -0.4945
   30MOL   C101 5379   5.283   5.451   4.640  0.5778 -1.1244  0.1497
   30MOL   C102 5380   5.214   5.364   4.530 -0.1406  0.2952 -0.1303
   30MOL   C103 5381   5.247   5.213   4.537 -0.5567 -0.5564  0.7604
   30MOL   O104 5382   5.160   5.129   4.550 -0.0530 -0.0330 -0.1578
   30MOL   O105 5383   5.379   5.181   4.530  0.4007  0.1711  0.8521
   30MOL   H106 5384   5.385   5.412   4.637 -0.6419 -4.3703 -0.9511
   30MOL   H107 5385   5.279   5.558   4.625 -0.1432 -0.8130  2.3233
   30MOL   H108 5386   5.108   5.371   4.557 -0.2224 -2.3268  0.3511
   30MOL   H109 5387   5.387   5.087   4.539 -0.8969  0.2357  2.8700
   30MOL   C110 5388   5.247   5.423   4.391  0.5560 -0.5249  0.7745
   30MOL   C111 5389   5.165   5.375   4.269 -0.2919  0.1930  0.3101
   30MOL   C112 5390   5.229   5.433   4.138  0.1965 -0.0884 -0.1367
   30MOL   O113 5391   5.327   5.505   4.135 -0.5366  0.2636  0.4123
   30MOL   O114 5392   5.165   5.387   4.029  0.5081  0.1028 -0.3752
   30MOL   H115 5393   5.352   5.402   4.374  0.4791  0.3080 -0.8555
   30MOL   H116 5394   5.242   5.532   4.399  0.7174 -0.4881  0.3696
   30MOL   H117 5395   5.163   5.266   4.266  2.3678  0.1276  0.1909
   30MOL   H118 5396   5.208   5.416   3.950  1.4990 -1.5432 -0.4666
   30MOL   C119 5397   5.012   5.415   4.269  0.1130 -0.0501  0.6263
   30MOL   C120 5398   4.983   5.570   4.255 -0.8516 -0.5131  0.3543
   30MOL   C121 5399   5.006   5.638   4.390  0.3354  0.1753  0.6264
   30MOL   O122 5400   4.982   5.588   4.499  0.4966 -0.3841 -0.4293
   30MOL   O123 5401   5.044   5.769   4.370  0.2731 -0.2212 -0.2266
   30MOL   H124 5402   4.971   5.381   4.364 -0.3025  0.1025  0.5020
   30MOL   H125 5403   4.951   5.354   4.202 -1.0851 -0.3403  1.9704
   30MOL   H126 5404   5.057   5.624   4.196 -1.0798  0.0932  0.6155
   30MOL   H127 5405   5.049   5.816   4.452 -0.6769 -2.0205  0.8936
   30MOL   C128 5406   4.841   5.598   4.198 -0.5522  0.1638  0.2049
   30MOL   C129 5407   4.818   5.575   4.043  0.2294 -0.0158  0.1314
   30MOL   C130 5408   4.881   5.686   3.952  0.1746 -0.2119  1.3060
   30MOL   O131 5409   4.835   5.803   3.945 -0.3072 -0.3631  0.4236
   30MOL   O132 5410   4.977   5.628   3.872  0.3182 -0.5913 -0.7319
   30MOL   H133 5411   4.812   5.702   4.217 -1.3328 -0.0690  0.3114
   30MOL   H134 5412   4.768   5.539   4.254 -0.6030 -0.9838 -1.0593
   30MOL   H135 5413   4.865   5.479   4.019  1.7554  1.0153 -1.0827
   30MOL   H136 5414   5.001   5.676   3.794  1.8638  0.6627  0.4957
   30MOL   C137 5415   4.673   5.557   4.004  0.0696  0.1182 -0.6396
   30MOL   C138 5416   4.652   5.435   3.906 -0.3917 -0.5442 -0.1356
   30MOL   C139 5417   4.738   5.436   3.774  0.4761 -0.6676  0.2373
   30MOL   O140 5418   4.741   5.531   3.697  0.0970  0.3776  0.1683
   30MOL   O141 5419   4.802   5.319   3.748 -0.0144 -0.1532 -0.6327
   30MOL   H142 5420   4.632   5.653   3.973  0.2087  0.1043 -0.8689
   30MOL   H143 5421   4.621   5.524   4.094  2.3528 -3.1551 -0.4396
   30MOL   H144 5422   4.681   5.350   3.967 -0.3974  1.1646  2.3289
   30MOL   H145 5423   4.852   5.324   3.668 -1.4202 -0.7647 -1.5660
   30MOL   C146 5424   4.502   5.396   3.878 -0.4929 -0.1992 -0.3437
   30MOL   C147 5425   4.416   5.503   3.797  0.2316 -0.3132 -0.1301
   30MOL   C148 5426   4.372   5.623   3.882  0.6482 -0.7049  0.1917
   30MOL   O149 5427   4.284   5.612   3.966  0.2286 -0.0494  0.3457
   30MOL   O150 5428   4.432   5.733   3.846 -0.5806 -0.2181 -0.8205
   30MOL   H151 5429   4.459   5.385   3.978  1.1935  0.0061  0.4166
   30MOL   H152 5430   4.491   5.293   3.844  2.4730 -0.2771 -1.1500
   30MOL   H153 5431   4.485   5.540   3.720  1.3809 -1.1444  0.4801
   30MOL   H154 5432   4.410   5.808   3.899  1.2035  1.9143 -2.9444
   30MOL   C155 5433   4.307   5.457   3.698  0.0269  0.2219  0.0833
   30MOL   C156 5434   4.179   5.380   3.742 -1.0803  0.0986 -0.3727
   30MOL   C157 5435   4.212   5.267   3.844  0.6682  0.1232 -0.1884
   30MOL   O158 5436   4.199   5.281   3.963  0.9865 -0.1318 -0.0490
   30MOL   O159 5437   4.256   5.155   3.782  0.2428  0.2532 -0.0375
   30MOL   H160 5438   4.360   5.407   3.617  1.7464  0.4019  1.0894
   30MOL   H161 5439   4.272   5.548   3.649 -2.3726 -0.5458  0.2811
   30MOL   H162 5440   4.113   5.448   3.796  1.9531  1.6974  1.4509
   30MOL   H163 5441   4.281   5.083   3.838 -0.5183 -0.2073 -0.2881
   30MOL   C164 5442   4.111   5.312   3.622 -0.4344 -0.2713 -0.1637
   30MOL   C165 5443   4.021   5.417   3.549  0.8875 -0.3425  0.2796
   30MOL   C166 5444   3.871   5.403   3.576 -0.2543  0.5624 -0.3931
   30MOL   O167 5445   3.832   5.341   3.676  0.4558 -0.2576  0.1668
   30MOL   O168 5446   3.792   5.471   3.495 -0.3607  0.1746 -0.2686
   30MOL   H169 5447   4.061   5.223   3.661  0.2874 -0.4043  0.4706
   30MOL   H170 5448   4.191   5.273   3.560  2.9084  2.7933  2.0144
   30MOL   H171 5449   4.040   5.510   3.603  1.1456 -0.0948 -0.2354
   30MOL   H172 5450   3.703   5.444   3.514 -0.0536  0.2930  1.4853
   30MOL   C173 5451   4.058   5.423   3.397  0.2700 -0.5063 -0.0475
   30MOL   C174 5452   4.021   5.558   3.326  0.1408  0.2210  0.2162
   30MOL   C175 5453   3.977   5.557   3.182 -1.0080 -0.0162  0.6914
   30MOL   O176 5454   3.971   5.665   3.123 -0.5219  0.2602 -0.4020
   30MOL   O177 5455   3.950   5.435   3.125  0.0044  1.1389 -0.7425
   30MOL   H178 5456   4.009   5.340   3.347 -0.4724  0.1579 -0.4431
   30MOL   H179 5457   4.165   5.416   3.379  0.7512  1.5307  1.7991
   30MOL   H180 5458   3.953   5.617   3.387  0.4273  1.1862 -0.3947
   30MOL   H181 5459   3.918   5.442   3.037  2.3353  1.4463 -1.5889
   30MOL   H182 5460   4.105   5.626   3.338 -0.1061  0.3537  1.2264
   31MOL     C1 5461   0.964   0.082   6.328 -0.7490  0.1647  0.3284
   31MOL     C2 5462   0.824   0.131   6.277 -0.0935  0.3222 -0.2554
   31MOL     C3 5463   0.736   0.191   6.397 -0.5813  0.1597  0.4035
   31MOL     O4 5464   0.767   0.191   6.515 -0.0482  0.8088  0.5375
   31MOL     O5 5465   0.620   0.244   6.347  0.0835  0.1241 -0.1894
   31MOL     H6 5466   0.961   0.006   6.406  1.7708 -1.7974 -1.4007
   31MOL     H7 5467   1.016   0.042   6.241 -3.1880 -0.8825 -0.6857
   31MOL     H8 5468   0.840   0.213   6.207 -0.8642  0.2372 -0.5334
   31MOL     H9 5469   0.579   0.294   6.416 -0.3905  0.6479 -0.8494
   31MOL    H10 5470   1.024   0.159   6.375 -0.2823  3.4165 -5.2029
   31MOL    C11 5471   0.747   0.017   6.212 -0.7496  0.1189 -0.2127
   31MOL    C12 5472   0.747   0.000   6.062  0.4276  0.3248 -0.7823
   31MOL    C13 5473   0.888   7.820   6.015 -0.8849  0.3244  0.6487
   31MOL    O14 5474   0.971   0.051   5.972  0.1599 -0.1620 -0.4881
   31MOL    O15 5475   0.923   7.690   6.030 -0.1985  0.0412  0.1631
   31MOL    H16 5476   0.642   0.013   6.244 -0.5485  1.1308  0.5907
   31MOL    H17 5477   0.774   7.774   6.256  0.5417  1.0254  1.0018
   31MOL    H18 5478   0.693   7.762   6.037  0.4057  0.6213 -1.8330
   31MOL    H19 5479   1.016   7.676   6.016 -0.2467  0.1133 -0.2227
   31MOL    C20 5480   0.674   0.118   5.983  0.0980 -0.0698 -0.9765
   31MOL    C21 5481   0.607   0.058   5.857  0.6234 -0.6324 -0.2941
   31MOL    C22 5482   0.586   0.161   5.741  0.5705 -0.4794  0.2538
   31MOL    O23 5483   0.486   0.230   5.734 -0.0483  0.0649 -0.0740
   31MOL    O24 5484   0.698   0.181   5.670 -0.0398 -0.6726 -0.8039
   31MOL    H25 5485   0.755   0.188   5.964  0.2762 -0.0823 -0.2825
   31MOL    H26 5486   0.603   0.172   6.046 -1.1198 -0.5533 -1.9208
   31MOL    H27 5487   0.682   7.843   5.819  3.3948  2.3637 -0.3776
   31MOL    H28 5488   0.676   0.242   5.602  1.5093 -0.7033 -1.3382
   31MOL    C29 5489   0.469   7.838   5.893  0.5694  0.5462  0.5506
   31MOL    C30 5490   0.376   7.778   5.781 -0.1806 -0.0486  0.0867
   31MOL    C31 5491   0.262   7.697   5.841  0.3266  0.4375 -0.0009
   31MOL    O32 5492   0.263   7.651   5.953  0.7545 -0.2778  0.1216
   31MOL    O33 5493   0.152   7.692   5.762  0.3592 -0.5624 -0.1108
   31MOL    H34 5494   0.403   0.050   5.949 -1.9374 -0.6491 -0.9395
   31MOL    H35 5495   0.502   7.754   5.955 -0.9858 -0.4069  0.0989
   31MOL    H36 5496   0.334   0.008   5.724  2.7581  0.0988 -1.9771
   31MOL    H37 5497   0.071   7.663   5.800  0.9827 -1.2039  0.7571
   31MOL    C38 5498   0.456   7.691   5.679 -0.6804 -0.0566 -0.0355
   31MOL    C39 5499   0.384   7.666   5.535  0.5908  0.9191 -0.7103
   31MOL    C40 5500   0.316   7.526   5.537 -0.3034 -0.1026  0.1167
   31MOL    O41 5501   0.329   7.446   5.633 -0.5082 -0.5030  0.2358
   31MOL    O42 5502   0.246   7.506   5.420  0.4694  0.3445  0.2919
   31MOL    H43 5503   0.490   7.597   5.722  1.6158 -0.6450 -2.9504
   31MOL    H44 5504   0.540   7.756   5.653 -1.4519  1.6511  1.6645
   31MOL    H45 5505   0.294   7.728   5.536  0.9715  1.5492 -3.0424
   31MOL    H46 5506   0.213   7.418   5.414  0.8131  0.2581 -0.4422
   31MOL    C47 5507   0.472   7.688   5.411  0.4631  1.1097  0.3401
   31MOL    C48 5508   0.399   7.745   5.290 -0.3532  0.0859  0.4668
   31MOL    C49 5509   0.477   7.694   5.163  0.3552 -0.4591  0.2485
   31MOL    O50 5510   0.421   7.632   5.073 -0.4401  0.1635 -0.5538
   31MOL    O51 5511   0.604   7.730   5.159 -0.5578 -0.1692  0.3038
   31MOL    H52 5512   0.523   7.597   5.379  0.2380  1.8076 -2.1434
   31MOL    H53 5513   0.553   7.754   5.439  1.0287  0.5498  0.0566
   31MOL    H54 5514   0.300   7.699   5.281 -0.3106 -0.0464  0.6773
   31MOL    H55 5515   0.643   7.691   5.083  1.4639  2.3816 -0.0613
   31MOL    C56 5516   0.374   0.050   5.308  0.4245 -0.1740  0.3937
   31MOL    C57 5517   0.369   0.137   5.180  0.1017  0.3316  0.3540
   31MOL    C58 5518   0.507   0.177   5.135  0.5543 -0.1417 -0.4262
   31MOL    O59 5519   0.578   0.261   5.193  0.3213  0.6389 -0.1725
   31MOL    O60 5520   0.548   0.119   5.021  0.2115  0.4720  0.2852
   31MOL    H61 5521   0.440   0.093   5.383  1.3229  0.6140 -0.8271
   31MOL    H62 5522   0.287   0.072   5.370  2.4444 -0.4410  3.4369
   31MOL    H63 5523   0.322   0.084   5.098 -2.0629 -0.0649  1.8143
   31MOL    H64 5524   0.635   0.147   4.997  0.1113  1.4866  1.0129
   31MOL    C65 5525   0.285   0.264   5.201 -0.7661  0.2599  0.0605
   31MOL    C66 5526   0.217   0.337   5.075  0.0280  0.8292 -0.1508
   31MOL    C67 5527   0.088   0.272   5.024  0.3516 -0.0159  0.0835
   31MOL    O68 5528   7.846   0.337   4.980  0.5889  0.4024  0.4855
   31MOL    O69 5529   0.094   0.132   5.033  0.4781  0.2817 -0.5541
   31MOL    H70 5530   0.335   0.337   5.266 -1.7630  0.7293  0.3128
   31MOL    H71 5531   0.199   0.232   5.259  0.1473 -0.2211  1.1642
   31MOL    H72 5532   0.171   0.429   5.111 -0.5399 -0.1195  1.5986
   31MOL    H73 5533   0.002   0.109   5.025  0.1974 -0.2157  3.1447
   31MOL    C74 5534   0.320   0.371   4.967 -0.7464 -0.4611  0.1545
   31MOL    C75 5535   0.258   0.468   4.860  0.1231 -0.3131  0.1978
   31MOL    C76 5536   0.240   0.404   4.718 -0.4993 -0.1559 -0.4370
   31MOL    O77 5537   0.329   0.353   4.652 -0.4133 -0.3023 -0.1607
   31MOL    O78 5538   0.106   0.400   4.698  0.6314 -0.0210  0.0454
   31MOL    H79 5539   0.349   0.280   4.913  1.5338  1.0078 -1.1762
   31MOL    H80 5540   0.411   0.409   5.013 -0.0620 -1.5972 -0.2365
   31MOL    H81 5541   0.171   0.521   4.899  0.8488  0.5120  0.7251
   31MOL    H82 5542   0.096   0.364   4.611  2.6703  0.0254 -0.2404
   31MOL    C83 5543   0.357   0.588   4.847 -0.2850 -0.3270 -0.2423
   31MOL    C84 5544   0.301   0.697   4.755  0.3324  0.2093 -0.5556
   31MOL    C85 5545   0.408   0.744   4.653 -0.8749 -0.3708 -0.4596
   31MOL    O86 5546   0.472   0.848   4.656  0.1922  0.6495  0.4553
   31MOL    O87 5547   0.415   0.657   4.550  0.1192  1.0457 -0.1043
   31MOL    H88 5548   0.444   0.544   4.799 -0.6879 -3.5381  1.8158
   31MOL    H89 5549   0.396   0.615   4.945  0.5438 -1.3293 -0.2904
   31MOL    H90 5550   0.220   0.659   4.694  0.9152  0.5220 -1.5271
   31MOL    H91 5551   0.499   0.668   4.506 -1.9004  3.1225 -3.7202
   31MOL    C92 5552   0.239   0.806   4.842  0.1321  0.1159 -0.6930
   31MOL    C93 5553   0.111   0.871   4.786 -0.0001  0.7989  0.5981
   31MOL    C94 5554   7.828   0.795   4.803  0.1046 -0.1613 -0.3068
   31MOL    O95 5555   7.811   0.680   4.842  0.1205 -0.0666  0.1283
   31MOL    O96 5556   7.727   0.868   4.764  0.1079 -0.3026 -0.2879
   31MOL    H97 5557   0.315   0.876   4.877  1.5421 -2.1160  0.7925
   31MOL    H98 5558   0.199   0.760   4.933 -1.3318 -0.8924 -1.8357
   31MOL    H99 5559   0.090   0.967   4.833  4.0604  1.8399  0.4255
   31MOL   H100 5560   7.648   0.816   4.769 -0.5983  0.8060  0.3040
   31MOL   C101 5561   0.134   0.920   4.635 -0.1761 -1.1472  0.3202
   31MOL   C102 5562   0.194   1.066   4.611 -0.5783  0.0135 -0.2016
   31MOL   C103 5563   0.092   1.174   4.640 -0.3575 -1.0600 -0.0256
   31MOL   O104 5564   0.111   1.277   4.705 -0.6764 -0.7632  0.3065
   31MOL   O105 5565   7.831   1.141   4.568  0.3980 -0.7902 -0.2547
   31MOL   H106 5566   0.043   0.913   4.576  0.6388  0.2226 -1.1473
   31MOL   H107 5567   0.185   0.843   4.576  0.9839  0.6434 -1.0956
   31MOL   H108 5568   0.267   1.084   4.690 -0.7888 -1.4652  0.3415
   31MOL   H109 5569   7.763   1.205   4.583  0.1882 -0.9843 -0.3916
   31MOL   C110 5570   0.250   1.070   4.471  0.4359  0.2875 -0.2360
   31MOL   C111 5571   0.355   1.188   4.451 -0.3936 -0.2675  0.1067
   31MOL   C112 5572   0.359   1.232   4.303 -0.5412  0.0761 -0.0228
   31MOL   O113 5573   0.269   1.294   4.248  0.2552  0.3270 -0.0264
   31MOL   O114 5574   0.478   1.212   4.246 -0.1058  0.1802 -0.3792
   31MOL   H115 5575   0.166   1.069   4.402 -1.4602  1.1709  1.9942
   31MOL   H116 5576   0.309   0.980   4.457 -1.9139 -1.5452  1.3735
   31MOL   H117 5577   0.310   1.277   4.496 -0.8110  0.4848 -1.7652
   31MOL   H118 5578   0.474   1.252   4.160  3.9169  1.6264 -0.0048
   31MOL   C119 5579   0.494   1.169   4.514  0.0431  0.5191 -0.2463
   31MOL   C120 5580   0.559   1.299   4.580  0.0694 -0.6177 -0.2997
   31MOL   C121 5581   0.474   1.335   4.708  0.0349  0.4786 -0.5296
   31MOL   O122 5582   0.473   1.260   4.812 -0.0113  0.3702  0.4340
   31MOL   O123 5583   0.384   1.436   4.690  0.2285 -0.6550 -0.6712
   31MOL   H124 5584   0.559   1.116   4.445  0.6281  0.7196  0.1460
   31MOL   H125 5585   0.479   1.084   4.581  1.2382  0.5863  0.1201
   31MOL   H126 5586   0.659   1.269   4.612  0.2248 -2.0805 -2.0955
   31MOL   H127 5587   0.336   1.447   4.771  0.4177  0.5296 -0.7184
   31MOL   C128 5588   0.584   1.409   4.474 -0.0173  0.0162 -0.0261
   31MOL   C129 5589   0.681   1.528   4.510  0.2112  0.2295  0.6134
   31MOL   C130 5590   0.617   1.641   4.597  0.6055 -0.3977 -0.0942
   31MOL   O131 5591   0.660   1.673   4.704 -0.1215 -0.1869  0.0529
   31MOL   O132 5592   0.508   1.698   4.539 -0.2391  0.3144 -0.0217
   31MOL   H133 5593   0.487   1.450   4.442  0.0442 -1.1420 -1.7967
   31MOL   H134 5594   0.616   1.372   4.376 -0.0391 -3.0583  1.0715
   31MOL   H135 5595   0.765   1.492   4.569 -0.0991 -1.1776  0.2138
   31MOL   H136 5596   0.500   1.771   4.597  2.4181  0.6629 -0.0195
   31MOL   C137 5597   0.732   1.597   4.372  0.1508 -1.0228  0.3650
   31MOL   C138 5598   0.818   1.728   4.369  0.2875  0.4745 -0.5386
   31MOL   C139 5599   0.868   1.752   4.229 -0.1446 -0.2746 -0.2766
   31MOL   O140 5600   0.829   1.688   4.132 -0.3013 -0.1635  0.2229
   31MOL   O141 5601   0.953   1.861   4.223  0.4643  0.0530 -0.0804
   31MOL   H142 5602   0.645   1.617   4.310  0.6837  1.6178  0.4121
   31MOL   H143 5603   0.793   1.522   4.320  0.7781 -0.4913  0.3297
   31MOL   H144 5604   0.742   1.806   4.364 -1.0859 -0.8805 -1.2185
   31MOL   H145 5605   0.963   1.877   4.130 -1.6201  1.2552 -0.1456
   31MOL   C146 5606   0.922   1.749   4.486  0.3042  0.2006  0.9335
   31MOL   C147 5607   0.891   1.875   4.577 -0.7435  0.3251  0.6083
   31MOL   C148 5608   0.913   2.010   4.494  0.2532 -0.8227  0.3510
   31MOL   O149 5609   1.011   2.086   4.495  0.2550 -0.2751 -0.4008
   31MOL   O150 5610   0.797   2.043   4.428 -0.0165 -0.2134 -0.1526
   31MOL   H151 5611   1.020   1.769   4.444 -0.9465  1.8007 -1.3858
   31MOL   H152 5612   0.932   1.657   4.543  0.8841 -1.1114 -1.2308
   31MOL   H153 5613   0.790   1.870   4.618 -1.4837 -1.3361 -1.3677
   31MOL   H154 5614   0.824   2.114   4.372 -4.4102  1.3792 -0.4462
   31MOL   C155 5615   0.978   1.872   4.710  0.4564  0.4189  0.3330
   31MOL   C156 5616   0.933   1.980   4.818  0.4959  0.2143  0.3958
   31MOL   C157 5617   1.058   2.015   4.905 -0.0211 -0.1361 -0.7062
   31MOL   O158 5618   1.086   2.129   4.938 -0.1716  0.2313 -0.0558
   31MOL   O159 5619   1.133   1.903   4.931 -0.4365 -0.0820  1.0374
   31MOL   H160 5620   1.083   1.889   4.683  0.4968 -0.2475  0.0615
   31MOL   H161 5621   0.988   1.775   4.759  1.3327  2.0180  3.4386
   31MOL   H162 5622   0.938   2.079   4.774  1.9173  0.4245  0.9812
   31MOL   H163 5623   1.207   1.902   4.990  0.9958 -2.2327 -0.7369
   31MOL   C164 5624   0.799   1.946   4.894 -0.0011 -0.0853  0.5327
   31MOL   C165 5625   0.688   2.056   4.920 -0.2769 -0.3598 -0.3558
   31MOL   C166 5626   0.564   2.027   4.839  0.0820 -0.1276  0.3478
   31MOL   O167 5627   0.560   1.944   4.745  0.9172  0.1153  0.0672
   31MOL   O168 5628   0.451   2.101   4.868 -0.0397 -0.0793 -0.0973
   31MOL   H169 5629   0.831   1.901   4.988 -1.1444 -0.3698  0.7919
   31MOL   H170 5630   0.762   1.870   4.825  0.3823 -0.4529  0.7284
   31MOL   H171 5631   0.658   2.049   5.025  0.2179  0.6560 -0.1406
   31MOL   H172 5632   0.383   2.073   4.809 -0.6143 -0.7795  0.8824
   31MOL   C173 5633   0.730   2.203   4.895 -0.7416  0.1291  0.5501
   31MOL   C174 5634   0.679   2.311   5.003  0.2933 -0.8547  0.0456
   31MOL   C175 5635   0.781   2.334   5.113  0.8336  0.0795  0.0522
   31MOL   O176 5636   0.849   2.435   5.119 -0.0375  0.0997  0.1619
   31MOL   O177 5637   0.778   2.246   5.210  0.2100 -0.4483 -0.4129
   31MOL   H178 5638   0.702   2.223   4.792  2.0654  0.0924 -0.2376
   31MOL   H179 5639   0.836   2.219   4.909 -1.0791  2.6248  0.4588
   31MOL   H180 5640   0.657   2.406   4.954  2.7937  0.3542  1.2362
   31MOL   H181 5641   0.848   2.281   5.263  1.4759 -1.9271 -1.0819
   31MOL   H182 5642   0.584   2.276   5.044  0.8393 -4.0098 -1.2074
   32MOL     C1 5643   5.199   6.235   6.062  0.0755 -0.4191  0.0671
   32MOL     C2 5644   5.181   6.213   5.910 -0.7761 -0.3214 -0.8619
   32MOL     C3 5645   5.209   6.065   5.877  0.0388 -1.0067  0.4551
   32MOL     O4 5646   5.211   5.966   5.953 -0.2128 -0.6960  0.0366
   32MOL     O5 5647   5.232   6.057   5.743 -0.0774  0.3868 -0.9768
   32MOL     H6 5648   5.162   6.149   6.117 -0.9292 -0.4110 -0.5748
   32MOL     H7 5649   5.305   6.251   6.081  0.1536 -0.1283 -0.5893
   32MOL     H8 5650   5.073   6.210   5.900 -0.7996 -2.0472 -0.2944
   32MOL     H9 5651   5.231   5.967   5.713  2.0490 -0.5785  1.6261
   32MOL    H10 5652   5.148   6.322   6.104  0.5011 -0.7547  1.2950
   32MOL    C11 5653   5.237   6.325   5.820 -0.2080  0.6624  0.4474
   32MOL    C12 5654   5.387   6.335   5.782 -0.2089 -0.5428  0.2127
   32MOL    C13 5655   5.453   6.419   5.891 -0.1043  0.3123  0.7569
   32MOL    O14 5656   5.459   6.543   5.901 -0.8552  0.2308 -0.3620
   32MOL    O15 5657   5.511   6.340   5.988  0.6058 -0.0537 -0.3852
   32MOL    H16 5658   5.195   6.419   5.856 -0.8452 -0.0690  1.6074
   32MOL    H17 5659   5.177   6.317   5.729  2.1169  2.1869 -1.2750
   32MOL    H18 5660   5.427   6.234   5.792 -2.3365 -1.5708 -1.1563
   32MOL    H19 5661   5.562   6.387   6.052 -1.6818  1.7878  0.1738
   32MOL    C20 5662   5.425   6.372   5.641  0.7423 -0.0176  0.8657
   32MOL    C21 5663   5.391   6.275   5.527 -0.1120 -0.2401 -0.5625
   32MOL    C22 5664   5.482   6.156   5.514  0.1664 -0.0326  0.0030
   32MOL    O23 5665   5.451   6.056   5.452  0.5679 -0.1156  0.3424
   32MOL    O24 5666   5.598   6.161   5.587 -0.7649 -0.0911 -0.2602
   32MOL    H25 5667   5.525   6.414   5.631  0.7389 -0.3895 -0.8765
   32MOL    H26 5668   5.364   6.461   5.624 -0.7981 -1.0782  0.7026
   32MOL    H27 5669   5.293   6.236   5.556 -1.2518  1.2983 -2.2430
   32MOL    H28 5670   5.612   6.235   5.644 -2.2274  0.3879 -0.4942
   32MOL    C29 5671   5.378   6.341   5.384  0.1672  0.7318 -0.6967
   32MOL    C30 5672   5.307   6.261   5.272  0.1692  0.4645 -0.6398
   32MOL    C31 5673   5.327   6.344   5.140  0.1089 -0.3124  0.0960
   32MOL    O32 5674   5.366   6.291   5.030  0.5652 -0.1372  0.0553
   32MOL    O33 5675   5.289   6.477   5.159 -0.0951 -0.4731 -0.6017
   32MOL    H34 5676   5.477   6.361   5.345  0.3895  0.1074 -0.4568
   32MOL    H35 5677   5.349   6.443   5.410  1.3199  0.6806  0.8945
   32MOL    H36 5678   5.357   6.167   5.250  2.0769  0.8451  1.8124
   32MOL    H37 5679   5.317   6.528   5.084 -0.0510 -0.2278 -0.4198
   32MOL    C38 5680   5.158   6.229   5.305 -0.2842  0.2054 -0.2724
   32MOL    C39 5681   5.072   6.151   5.199  0.0532 -0.3068  0.4931
   32MOL    C40 5682   4.922   6.148   5.236  0.1415 -0.1586 -0.7628
   32MOL    O41 5683   4.867   6.212   5.325  0.2178  0.0157 -0.1303
   32MOL    O42 5684   4.856   6.077   5.141 -0.3063 -0.0356 -0.0481
   32MOL    H43 5685   5.116   6.330   5.303 -1.4760 -0.2793 -0.1771
   32MOL    H44 5686   5.134   6.199   5.407 -1.2222 -0.7067 -0.7519
   32MOL    H45 5687   5.083   6.207   5.107 -2.7639  0.8288  0.7937
   32MOL    H46 5688   4.910   6.043   5.071  0.1175  1.8574 -0.6695
   32MOL    C47 5689   5.135   6.006   5.180  0.6896  0.3899  0.1455
   32MOL    C48 5690   5.204   5.979   5.046  0.2233  0.4985  0.4651
   32MOL    C49 5691   5.103   5.947   4.936  0.6613  0.7968 -0.4465
   32MOL    O50 5692   4.984   5.953   4.946 -0.2988 -0.6058  0.0565
   32MOL    O51 5693   5.163   5.917   4.821  0.2978 -0.4985 -0.1803
   32MOL    H52 5694   5.063   5.929   5.208  3.4702 -1.9923  1.0520
   32MOL    H53 5695   5.221   5.996   5.246 -0.1010 -0.0192  1.1205
   32MOL    H54 5696   5.252   6.072   5.017 -1.9808  0.6073 -3.2953
   32MOL    H55 5697   5.106   5.883   4.754  0.4309 -0.0680 -0.5153
   32MOL    C56 5698   5.305   5.869   5.057  0.7114  0.5150  0.4064
   32MOL    C57 5699   5.451   5.899   5.054 -0.1986  0.1454 -0.1254
   32MOL    C58 5700   5.494   5.941   4.913 -0.3051 -0.0862  0.3622
   32MOL    O59 5701   5.557   5.863   4.848 -0.0759  0.0608  0.1943
   32MOL    O60 5702   5.463   6.067   4.871 -0.8952  0.4680  0.8339
   32MOL    H61 5703   5.283   5.795   4.980  2.6806  0.4959 -0.1719
   32MOL    H62 5704   5.269   5.811   5.142  0.2931  0.0941 -0.0527
   32MOL    H63 5705   5.472   5.984   5.120  1.8720  0.2203 -0.8551
   32MOL    H64 5706   5.503   6.073   4.785  1.3894 -2.0598  1.6343
   32MOL    C65 5707   5.533   5.781   5.122  0.5499  0.4161 -0.2240
   32MOL    C66 5708   5.689   5.797   5.139 -0.1185  0.1290  0.1913
   32MOL    C67 5709   5.769   5.673   5.101 -0.5069  0.6135 -0.4092
   32MOL    O68 5710   5.864   5.633   5.170 -0.4664 -0.2575 -0.0358
   32MOL    O69 5711   5.733   5.613   4.986  0.3500 -0.1437 -0.2195
   32MOL    H70 5712   5.514   5.686   5.072  1.9288 -1.3812  2.4838
   32MOL    H71 5713   5.485   5.768   5.220 -1.0837 -0.8601 -1.1634
   32MOL    H72 5714   5.730   5.869   5.067  1.3597 -0.9636 -0.0867
   32MOL    H73 5715   5.658   5.656   4.949  0.3932  0.2803  0.1878
   32MOL    C74 5716   5.725   5.857   5.276 -0.0972  0.0076 -0.6561
   32MOL    C75 5717   5.839   5.960   5.290 -0.4530 -0.5312  0.0730
   32MOL    C76 5718   5.797   6.104   5.243  0.2084 -0.3456  0.3015
   32MOL    O77 5719   5.763   6.124   5.126  0.3767  0.1174 -0.4029
   32MOL    O78 5720   5.818   6.202   5.333 -0.1563  0.3997 -0.3121
   32MOL    H79 5721   5.737   5.775   5.346  0.1133 -1.1531 -2.0314
   32MOL    H80 5722   5.643   5.920   5.310  0.1429 -1.3677  2.6647
   32MOL    H81 5723   5.847   5.965   5.399  1.0797 -1.9377  0.0425
   32MOL    H82 5724   5.832   6.286   5.292 -0.3440  1.1462  1.1129
   32MOL    C83 5725   5.978   5.916   5.237 -0.3359  0.1666  0.2836
   32MOL    C84 5726   6.100   6.023   5.241  0.6478  0.2075 -0.7431
   32MOL    C85 5727   6.185   6.020   5.114  0.6107  0.3814  0.5029
   32MOL    O86 5728   6.210   5.915   5.060 -0.0303 -0.3349 -0.4418
   32MOL    O87 5729   6.232   6.136   5.073 -0.1384  0.0626 -0.3190
   32MOL    H88 5730   5.959   5.894   5.132 -2.0236 -0.7172  0.7525
   32MOL    H89 5731   6.009   5.824   5.288  1.7427  0.7216  0.0906
   32MOL    H90 5732   6.053   6.121   5.241  1.6640  0.7391  2.5230
   32MOL    H91 5733   6.286   6.125   4.997 -0.5048 -3.1499 -0.2061
   32MOL    C92 5734   6.187   6.017   5.368 -0.2504  0.0412  1.0803
   32MOL    C93 5735   6.172   6.132   5.475 -0.3502 -0.0061  0.4481
   32MOL    C94 5736   6.048   6.114   5.569  0.5747 -0.2944  0.4879
   32MOL    O95 5737   5.965   6.203   5.591  0.0043 -0.2771 -0.0124
   32MOL    O96 5738   6.037   5.987   5.611 -0.3423  0.0914  0.2521
   32MOL    H97 5739   6.294   6.021   5.346 -0.0728  0.7552  2.0230
   32MOL    H98 5740   6.180   5.918   5.412  0.2158  0.3115  1.7852
   32MOL    H99 5741   6.257   6.121   5.542  0.6547  0.3960 -0.7553
   32MOL   H100 5742   5.963   5.960   5.663  0.0230 -0.4300  0.5098
   32MOL   C101 5743   6.169   6.274   5.416 -0.8162  0.3931  0.0280
   32MOL   C102 5744   6.206   6.390   5.527 -0.0458  0.2471  0.1891
   32MOL   C103 5745   6.135   6.521   5.489  0.8348  0.2548  0.1309
   32MOL   O104 5746   6.183   6.616   5.423 -0.0880  0.0699  0.4460
   32MOL   O105 5747   6.002   6.511   5.519 -0.4020  0.3227 -0.4947
   32MOL   H106 5748   6.070   6.294   5.375  0.0623  0.7923 -1.9064
   32MOL   H107 5749   6.234   6.277   5.329  2.3831  0.3613  2.3424
   32MOL   H108 5750   6.174   6.350   5.623 -0.2139  0.5494  0.2582
   32MOL   H109 5751   5.958   6.591   5.497 -2.1761 -0.2297  0.9763
   32MOL   C110 5752   6.358   6.413   5.541 -0.1200 -0.4057 -0.2050
   32MOL   C111 5753   6.398   6.451   5.682 -0.4345 -0.1902 -0.1791
   32MOL   C112 5754   6.431   6.601   5.692 -0.1706 -0.8747 -0.3544
   32MOL   O113 5755   6.539   6.639   5.725 -0.2388  0.1611  0.2126
   32MOL   O114 5756   6.323   6.682   5.681 -0.1943  0.0102  0.2196
   32MOL   H115 5757   6.395   6.494   5.478 -1.8898  0.0256 -0.7148
   32MOL   H116 5758   6.415   6.332   5.495  0.4655  0.2890 -0.7377
   32MOL   H117 5759   6.313   6.440   5.749 -0.1373  1.8235  0.5359
   32MOL   H118 5760   6.355   6.769   5.700  0.8525 -0.5083  0.9144
   32MOL   C119 5761   6.509   6.357   5.741  0.4155 -1.1594  0.0440
   32MOL   C120 5762   6.463   6.280   5.866 -0.4205  0.3134  0.3016
   32MOL   C121 5763   6.479   6.356   6.002  0.1949  0.3541 -0.5081
   32MOL   O122 5764   6.580   6.331   6.075  0.1671 -0.1036 -0.2861
   32MOL   O123 5765   6.389   6.459   6.009 -0.3119 -0.0635 -0.2851
   32MOL   H124 5766   6.604   6.405   5.762 -0.5165  1.0602 -0.7006
   32MOL   H125 5767   6.529   6.282   5.665  1.5251 -1.1506  0.3200
   32MOL   H126 5768   6.358   6.254   5.852  0.0293 -1.0715 -0.5192
   32MOL   H127 5769   6.395   6.506   6.090 -2.2998 -1.9125  0.9816
   32MOL   C128 5770   6.547   6.149   5.873 -0.1504 -1.1475 -0.6221
   32MOL   C129 5771   6.520   6.039   5.776 -0.4450  0.2757 -0.3357
   32MOL   C130 5772   6.393   5.967   5.825  0.2983 -0.1046 -0.7414
   32MOL   O131 5773   6.392   5.874   5.907 -0.4837 -0.4896 -0.3443
   32MOL   O132 5774   6.284   6.028   5.781  0.2437 -0.0794 -0.2377
   32MOL   H133 5775   6.552   6.100   5.970  1.8536 -0.2675 -0.2554
   32MOL   H134 5776   6.651   6.181   5.861 -1.2049  2.6441 -0.5111
   32MOL   H135 5777   6.499   6.073   5.675  1.9878 -1.4708 -1.4771
   32MOL   H136 5778   6.214   5.982   5.825 -0.2352 -0.2644 -1.1867
   32MOL   C137 5779   6.633   5.932   5.771  0.4605 -0.0851 -0.3384
   32MOL   C138 5780   6.768   5.973   5.711  0.1128  0.9697 -0.6787
   32MOL   C139 5781   6.755   6.060   5.581  0.0397  0.2404  0.8949
   32MOL   O140 5782   6.686   6.035   5.482 -0.3182 -0.6781  0.2051
   32MOL   O141 5783   6.831   6.172   5.602 -0.4254  0.3787 -0.2152
   32MOL   H142 5784   6.600   5.846   5.713  2.3807 -1.5053  0.6258
   32MOL   H143 5785   6.658   5.900   5.872  1.4848 -0.0034 -0.5666
   32MOL   H144 5786   6.822   6.030   5.787  2.5863 -0.7123 -1.1319
   32MOL   H145 5787   6.836   6.226   5.524  2.4112  0.4851 -0.0094
   32MOL   C146 5788   6.868   5.856   5.681 -0.2338 -0.3250 -0.6629
   32MOL   C147 5789   7.010   5.884   5.633  0.5444  0.6398 -0.4602
   32MOL   C148 5790   7.071   5.756   5.583 -1.1986 -0.0087  0.3253
   32MOL   O149 5791   7.087   5.660   5.657 -0.0751 -0.2401 -0.1002
   32MOL   O150 5792   7.097   5.764   5.447 -0.1104  0.5129  0.4688
   32MOL   H151 5793   6.816   5.804   5.601  0.4649  0.9184 -1.9280
   32MOL   H152 5794   6.875   5.792   5.770 -2.3779  3.4250  2.3598
   32MOL   H153 5795   7.006   5.952   5.548 -0.2278 -0.1554 -1.0705
   32MOL   H154 5796   7.145   5.691   5.412 -0.5786 -0.2419  1.3881
   32MOL   C155 5797   7.103   5.932   5.749 -0.3481 -0.3059 -0.2897
   32MOL   C156 5798   7.166   6.067   5.723 -0.0280  0.3447 -0.2662
   32MOL   C157 5799   7.304   6.048   5.658  0.1093 -0.1572  1.1236
   32MOL   O158 5800   7.411   6.076   5.716 -0.2572 -0.1368 -0.3392
   32MOL   O159 5801   7.304   5.992   5.535  0.4135 -0.3024 -0.5512
   32MOL   H160 5802   7.188   5.868   5.775 -0.0858 -0.3965 -1.3310
   32MOL   H161 5803   7.050   5.938   5.844 -0.9357  1.2637 -0.7092
   32MOL   H162 5804   7.110   6.132   5.656 -0.4985  0.6040  0.3722
   32MOL   H163 5805   7.383   6.015   5.488  0.4451  0.1049 -0.2971
   32MOL   C164 5806   7.184   6.149   5.852 -0.5944  0.0368 -0.1683
   32MOL   C165 5807   7.202   6.306   5.825 -0.3188  0.0508 -0.3833
   32MOL   C166 5808   7.265   6.367   5.949  0.3460 -0.4315  0.6301
   32MOL   O167 5809   7.270   6.315   6.064 -0.0579  0.8040  0.5094
   32MOL   O168 5810   7.317   6.493   5.930  0.4887 -0.6430  0.1687
   32MOL   H169 5811   7.270   6.113   5.908 -0.7486 -0.7929 -0.4646
   32MOL   H170 5812   7.104   6.128   5.923 -1.6263  1.6296 -0.8233
   32MOL   H171 5813   7.271   6.319   5.742  0.6871 -1.6140  0.1631
   32MOL   H172 5814   7.350   6.521   6.014  0.1159  2.5528 -0.6810
   32MOL   C173 5815   7.075   6.378   5.784  0.1927  0.7926  0.5211
   32MOL   C174 5816   6.942   6.322   5.845 -0.3411 -0.3801 -0.1321
   32MOL   C175 5817   6.929   6.329   5.994 -0.1245 -0.8398  0.5921
   32MOL   O176 5818   6.956   6.426   6.063  0.1917  0.3052 -0.2344
   32MOL   O177 5819   6.886   6.209   6.036  0.2318  0.0056 -0.7845
   32MOL   H178 5820   7.055   6.393   5.678 -4.1418  1.0061  1.2911
   32MOL   H179 5821   7.087   6.482   5.817  3.0231 -0.0521  2.3013
   32MOL   H180 5822   6.863   6.393   5.819  0.6356  1.7301  2.3983
   32MOL   H181 5823   6.882   6.218   6.130 -0.0880  0.2264 -0.8191
   32MOL   H182 5824   6.919   6.222   5.811  2.6773 -2.2299  2.9916
   33MOL     C1 5825   2.482   0.628   5.734  0.4746  0.0888 -0.1463
   33MOL     C2 5826   2.424   0.703   5.612  0.0801  0.2381 -0.1868
   33MOL     C3 5827   2.428   0.861   5.642 -0.2013 -0.0454  0.2282
   33MOL     O4 5828   2.328   0.928   5.653  0.1781 -0.2996 -0.0790
   33MOL     O5 5829   2.556   0.904   5.664 -0.1236  0.4093 -0.9345
   33MOL     H6 5830   2.415   0.650   5.817 -0.5936  0.3609 -1.0753
   33MOL     H7 5831   2.485   0.520   5.720 -1.7752  0.0705 -0.7533
   33MOL     H8 5832   2.486   0.668   5.529 -0.5145 -4.8643  1.3002
   33MOL     H9 5833   2.616   0.834   5.646 -0.6488  0.2150 -1.9743
   33MOL    H10 5834   2.583   0.650   5.767 -0.0579  1.1143  0.8393
   33MOL    C11 5835   2.280   0.660   5.576 -0.4838  0.0363 -0.4332
   33MOL    C12 5836   2.282   0.522   5.502  0.2236  0.5519  0.1889
   33MOL    C13 5837   2.320   0.520   5.350  0.3613 -0.2796 -0.7219
   33MOL    O14 5838   2.293   0.609   5.273  0.9478 -0.9294 -0.1396
   33MOL    O15 5839   2.389   0.411   5.309  0.6071 -0.6259 -0.3663
   33MOL    H16 5840   2.247   0.738   5.506  0.5191 -0.7839 -1.8603
   33MOL    H17 5841   2.201   0.666   5.651  1.0674  0.1550  1.2269
   33MOL    H18 5842   2.366   0.465   5.543  0.1219 -0.5225 -1.0682
   33MOL    H19 5843   2.402   0.415   5.215 -0.0816 -2.2040 -0.5417
   33MOL    C20 5844   2.158   0.435   5.534  0.1962  0.3064 -0.5117
   33MOL    C21 5845   2.129   0.394   5.674  0.6699  0.3363 -0.2320
   33MOL    C22 5846   2.246   0.312   5.727  0.4236  0.4974 -0.0433
   33MOL    O23 5847   2.324   0.357   5.805 -0.2696 -0.2536 -0.1733
   33MOL    O24 5848   2.246   0.179   5.681  0.5101  0.3084 -0.1180
   33MOL    H25 5849   2.151   0.347   5.470  2.1831 -0.1388 -0.1423
   33MOL    H26 5850   2.075   0.497   5.500 -1.8094 -1.4630  1.0488
   33MOL    H27 5851   2.125   0.481   5.738  0.4147  0.8622 -0.9530
   33MOL    H28 5852   2.323   0.131   5.707 -0.4600 -2.0200 -1.3661
   33MOL    C29 5853   2.002   0.303   5.686  0.0811  0.8090  0.2144
   33MOL    C30 5854   1.867   0.353   5.621 -0.2970 -0.1624 -0.4133
   33MOL    C31 5855   1.744   0.310   5.713  0.3375  0.0192  0.3863
   33MOL    O32 5856   1.748   0.227   5.800  0.0787  0.5212 -0.6464
   33MOL    O33 5857   1.629   0.375   5.684 -0.1842  0.5214  0.5809
   33MOL    H34 5858   1.998   0.283   5.793  0.5029  1.4985  0.3632
   33MOL    H35 5859   2.017   0.197   5.664 -0.6023  0.4958  1.2311
   33MOL    H36 5860   1.864   0.462   5.621 -3.0285 -0.1801  1.1834
   33MOL    H37 5861   1.553   0.356   5.737  0.4665 -2.8317  0.4236
   33MOL    C38 5862   1.838   0.315   5.473  0.1669  0.0320  0.5962
   33MOL    C39 5863   1.825   0.168   5.434  0.4086  0.0964  0.2611
   33MOL    C40 5864   1.958   0.102   5.386 -0.1449 -0.4510  0.0868
   33MOL    O41 5865   2.029   0.033   5.461  0.4958 -0.5215  0.1650
   33MOL    O42 5866   2.001   0.150   5.265  0.2711  0.1597  0.0877
   33MOL    H43 5867   1.914   0.360   5.410 -1.6785  3.9128  0.9769
   33MOL    H44 5868   1.745   0.367   5.453  0.2091 -0.4359 -0.8623
   33MOL    H45 5869   1.794   0.116   5.525  0.5232 -1.2717 -0.4743
   33MOL    H46 5870   2.084   0.114   5.237 -0.0093  0.3969 -1.0925
   33MOL    C47 5871   1.710   0.144   5.341 -0.4662  0.1198  0.5621
   33MOL    C48 5872   1.601   0.038   5.387  0.0113 -0.1420  0.4449
   33MOL    C49 5873   1.522   0.087   5.510  0.0173 -0.4809 -0.2747
   33MOL    O50 5874   1.508   0.014   5.615  0.1611 -0.1304  0.0678
   33MOL    O51 5875   1.467   0.209   5.500  0.0405  0.3341 -0.7034
   33MOL    H52 5876   1.750   0.117   5.243  0.5598 -0.6721  1.1966
   33MOL    H53 5877   1.657   0.233   5.305  1.2833  1.1169  0.3843
   33MOL    H54 5878   1.530   0.035   5.305  0.6385  0.4788 -0.1277
   33MOL    H55 5879   1.419   0.226   5.579  1.5951  0.2793  0.2690
   33MOL    C56 5880   1.660   7.753   5.398  0.4778  0.1216 -0.0645
   33MOL    C57 5881   1.676   7.678   5.268 -0.5023  0.0335 -0.0993
   33MOL    C58 5882   1.553   7.659   5.181 -0.1645  0.7373  0.0579
   33MOL    O59 5883   1.470   7.572   5.203 -0.1963  0.6852  1.2079
   33MOL    O60 5884   1.545   7.759   5.083  1.0852  0.1924 -0.9398
   33MOL    H61 5885   1.602   7.682   5.457 -3.1787  0.7520 -2.7070
   33MOL    H62 5886   1.758   7.758   5.446 -0.9285  0.1497  2.9022
   33MOL    H63 5887   1.745   7.731   5.204 -1.1112  2.3029  1.0573
   33MOL    H64 5888   1.463   7.751   5.036 -0.1668  1.1370  1.0059
   33MOL    C65 5889   1.734   7.536   5.292  0.6840 -0.3743  0.1252
   33MOL    C66 5890   1.871   7.526   5.360  0.0903 -0.3235 -0.6995
   33MOL    C67 5891   1.974   7.570   5.265  0.2959  0.1195  0.3242
   33MOL    O68 5892   1.954   7.594   5.144  0.4636  0.3102 -0.3832
   33MOL    O69 5893   2.096   7.588   5.324 -0.0803 -0.4904  0.0105
   33MOL    H70 5894   1.730   7.473   5.203  0.8843 -1.5876  0.9582
   33MOL    H71 5895   1.670   7.478   5.359 -0.2834 -1.2034 -1.5011
   33MOL    H72 5896   1.882   7.595   5.443  1.6105 -1.0161 -0.3025
   33MOL    H73 5897   2.165   7.598   5.261  1.7430 -0.4979  1.9604
   33MOL    C74 5898   1.909   7.381   5.403 -0.2963  0.2171 -1.3756
   33MOL    C75 5899   1.978   7.372   5.532 -0.7590  0.1788 -0.3295
   33MOL    C76 5900   2.098   7.275   5.516 -0.2637  0.5920 -0.0401
   33MOL    O77 5901   2.093   7.163   5.466  0.4762  0.1462 -0.0412
   33MOL    O78 5902   2.205   7.315   5.587 -0.9447  0.0461  0.1883
   33MOL    H79 5903   1.951   7.322   5.322 -0.6845  0.7109 -1.9419
   33MOL    H80 5904   1.814   7.330   5.416  0.3437 -1.2126 -2.1609
   33MOL    H81 5905   2.021   7.470   5.554 -0.5440 -0.2464  1.2577
   33MOL    H82 5906   2.271   7.247   5.592 -0.1107  0.8369  0.0164
   33MOL    C83 5907   1.889   7.355   5.655 -0.1471  0.6394 -0.0208
   33MOL    C84 5908   1.964   7.375   5.794  0.2350  0.3411  0.3986
   33MOL    C85 5909   1.887   7.308   5.905 -0.8394 -0.5208 -0.6364
   33MOL    O86 5910   1.770   7.266   5.895 -0.3607 -0.2389  0.1528
   33MOL    O87 5911   1.954   7.320   6.027  0.3245 -0.5220  0.1106
   33MOL    H88 5912   1.831   7.263   5.646  2.1495 -0.6313 -2.5988
   33MOL    H89 5913   1.809   7.429   5.648  0.6871  1.4461 -1.1282
   33MOL    H90 5914   2.062   7.326   5.789 -0.3515 -1.0082  1.8246
   33MOL    H91 5915   1.916   7.279   6.103  0.9025 -0.7766  0.2650
   33MOL    C92 5916   1.987   7.533   5.828  0.9248  1.1680  0.7205
   33MOL    C93 5917   1.865   7.630   5.841  0.2492  0.6620  0.4235
   33MOL    C94 5918   1.899   7.772   5.783 -0.0136  0.5493 -0.7745
   33MOL    O95 5919   1.938   0.014   5.852 -0.7177 -0.3050 -0.5465
   33MOL    O96 5920   1.880   7.780   5.654  0.2188 -0.0421 -0.1011
   33MOL    H97 5921   2.040   7.578   5.744  0.6668 -0.6946 -0.4763
   33MOL    H98 5922   2.057   7.546   5.910 -0.3887  2.2574  1.6911
   33MOL    H99 5923   1.785   7.597   5.775  1.1691 -1.1389  0.1869
   33MOL   H100 5924   1.907   0.016   5.638  1.3972 -0.7615 -2.1922
   33MOL   C101 5925   1.813   7.645   5.984 -0.2516  0.0250 -0.2191
   33MOL   C102 5926   1.693   7.738   6.019  0.3077  0.5339  0.4596
   33MOL   C103 5927   1.715   7.811   6.157 -0.6505 -0.3010  0.3292
   33MOL   O104 5928   1.650   7.786   6.257  0.8427  0.6436  0.0293
   33MOL   O105 5929   1.820   0.046   6.159  0.2879 -0.3841 -0.4528
   33MOL   H106 5930   1.899   7.670   6.045 -0.1591 -0.7614 -0.0157
   33MOL   H107 5931   1.790   7.546   6.024  1.1348 -1.0868 -2.1635
   33MOL   H108 5932   1.696   7.821   5.948 -0.4612  0.0850 -0.1010
   33MOL   H109 5933   1.831   0.095   6.239  0.0787 -0.6969 -0.2344
   33MOL   C110 5934   1.562   7.651   6.014  0.1510 -0.7685  0.2078
   33MOL   C111 5935   1.432   7.737   6.028 -0.0098 -0.3668  0.3418
   33MOL   C112 5936   1.313   7.644   6.046  0.6403  0.3923 -0.1755
   33MOL   O113 5937   1.200   7.661   6.007  0.0169  0.1284  0.0722
   33MOL   O114 5938   1.341   7.538   6.126  0.3503 -0.0838  0.1841
   33MOL   H115 5939   1.564   7.574   6.090  0.1100 -0.8064  0.1710
   33MOL   H116 5940   1.562   7.588   5.925  1.4559 -2.3242  1.2857
   33MOL   H117 5941   1.424   7.801   6.116 -0.7040 -1.7004  1.2485
   33MOL   H118 5942   1.264   7.483   6.136  1.1933 -1.1387  1.0963
   33MOL   C119 5943   1.408   7.828   5.908 -0.3986 -0.4200 -0.7145
   33MOL   C120 5944   1.353   0.121   5.944  0.5509  0.2610  0.4056
   33MOL   C121 5945   1.303   0.181   5.809 -0.2901 -0.6719  1.4885
   33MOL   O122 5946   1.359   0.278   5.764  0.4272  0.1615  0.6968
   33MOL   O123 5947   1.198   0.111   5.763 -0.6904 -0.0684 -0.1055
   33MOL   H124 5948   1.343   7.776   5.838 -0.6137 -0.7647 -0.2598
   33MOL   H125 5949   1.499   7.852   5.853  0.4363 -1.3917  0.2374
   33MOL   H126 5950   1.282   0.105   6.025  0.5138  0.7927  0.4784
   33MOL   H127 5951   1.164   0.153   5.685  0.3808 -1.3217 -1.2768
   33MOL   C128 5952   1.470   0.207   6.001 -0.5447 -0.4607  0.1260
   33MOL   C129 5953   1.444   0.329   6.095 -0.8038  0.9970  0.7553
   33MOL   C130 5954   1.570   0.431   6.083  0.0454 -0.1778  0.0250
   33MOL   O131 5955   1.652   0.452   6.175  0.0562 -0.0012 -0.2902
   33MOL   O132 5956   1.567   0.493   5.961 -0.3660 -0.5351  0.2156
   33MOL   H133 5957   1.542   0.233   5.924 -0.8765  3.8373  1.1464
   33MOL   H134 5958   1.516   0.139   6.073 -1.1028  0.7720  1.6807
   33MOL   H135 5959   1.366   0.384   6.043 -0.6748  0.1239 -0.3912
   33MOL   H136 5960   1.638   0.555   5.952 -0.9709  0.0552 -0.5336
   33MOL   C137 5961   1.418   0.284   6.241  0.6083  0.3710  0.5862
   33MOL   C138 5962   1.361   0.393   6.323 -0.3838 -0.4325  0.5865
   33MOL   C139 5963   1.388   0.358   6.477  0.2407  0.2663 -0.0759
   33MOL   O140 5964   1.457   0.269   6.517  0.3014  0.1727 -0.1609
   33MOL   O141 5965   1.336   0.451   6.556 -0.7035 -0.5071  0.0488
   33MOL   H142 5966   1.515   0.255   6.283  0.9864  0.7183 -0.0536
   33MOL   H143 5967   1.369   0.186   6.241  3.1058 -0.9290  0.9597
   33MOL   H144 5968   1.409   0.491   6.320  0.9025 -1.0741 -0.5546
   33MOL   H145 5969   1.373   0.442   6.642 -0.1129 -4.2169 -0.5395
   33MOL   C146 5970   1.208   0.393   6.294 -0.0747  0.6999  0.3357
   33MOL   C147 5971   1.149   0.531   6.334  0.1492  0.4887 -0.1389
   33MOL   C148 5972   1.017   0.512   6.411 -0.6002 -0.2461  0.3377
   33MOL   O149 5973   0.904   0.510   6.364  0.2312 -0.1628  0.4571
   33MOL   O150 5974   1.038   0.481   6.541  0.2817 -0.5879  0.4658
   33MOL   H151 5975   1.160   0.307   6.341  0.5159  0.8999  1.3098
   33MOL   H152 5976   1.194   0.376   6.188  2.0368  0.4822  0.0677
   33MOL   H153 5977   1.217   0.581   6.403  1.8077 -0.2711 -1.1838
   33MOL   H154 5978   1.128   0.475   6.570  0.2581 -3.6543 -0.0101
   33MOL   C155 5979   1.130   0.613   6.207 -0.0973 -0.8620 -1.0667
   33MOL   C156 5980   1.129   0.765   6.233  0.7635 -0.0207 -0.7782
   33MOL   C157 5981   1.022   0.836   6.145 -0.0034 -0.2817 -0.9166
   33MOL   O158 5982   0.916   0.883   6.193 -0.0204 -0.1643  0.7427
   33MOL   O159 5983   1.036   0.826   6.012 -0.7320 -0.1571 -0.3914
   33MOL   H160 5984   1.042   0.585   6.149 -2.3292 -0.4823  2.0156
   33MOL   H161 5985   1.219   0.597   6.146  0.8894  0.1610  0.0557
   33MOL   H162 5986   1.098   0.778   6.337  1.0650  0.3331 -0.7300
   33MOL   H163 5987   1.118   0.788   5.987  0.0854  0.8336  0.7296
   33MOL   C164 5988   1.272   0.828   6.223  0.9241  0.8000  0.6047
   33MOL   C165 5989   1.304   0.955   6.310  0.6622  0.3469  0.1330
   33MOL   C166 5990   1.214   1.073   6.270 -0.4068  0.0327 -0.1191
   33MOL   O167 5991   1.125   1.123   6.341 -0.3774  0.5842 -0.1887
   33MOL   O168 5992   1.249   1.113   6.145  0.6776  0.5565 -0.2653
   33MOL   H169 5993   1.298   0.859   6.122 -0.1516 -1.8907 -0.5569
   33MOL   H170 5994   1.338   0.750   6.261  0.2727 -0.2243 -0.3530
   33MOL   H171 5995   1.262   0.934   6.408 -2.4404  1.1747 -0.9562
   33MOL   H172 5996   1.217   1.199   6.122  0.8807  0.1494 -2.1690
   33MOL   C173 5997   1.455   0.982   6.305  0.5940 -0.2161  0.1276
   33MOL   C174 5998   1.491   1.083   6.420  0.6416  0.1823  0.0213
   33MOL   C175 5999   1.643   1.119   6.414  0.7305  0.2704 -0.2116
   33MOL   O176 6000   1.723   1.093   6.502 -0.0120  0.4864  0.3791
   33MOL   O177 6001   1.669   1.202   6.310  0.1558  0.2358 -0.0361
   33MOL   H178 6002   1.485   1.027   6.210  1.6256  0.7900  0.9131
   33MOL   H179 6003   1.518   0.894   6.307  1.6343  0.5017 -0.5550
   33MOL   H180 6004   1.441   1.180   6.419  2.4818  1.1719  1.0963
   33MOL   H181 6005   1.758   1.233   6.307  1.0666 -2.0720  2.0197
   33MOL   H182 6006   1.466   1.046   6.519  0.1113  0.0247 -0.1705
   34MOL     C1 6007   2.935   3.753   4.873 -1.1192  0.4106 -0.4647
   34MOL     C2 6008   2.883   3.658   4.763 -0.4796 -0.2861 -0.3405
   34MOL     C3 6009   2.839   3.748   4.645 -0.0199 -0.2487  0.0387
   34MOL     O4 6010   2.834   3.873   4.652  0.2746 -0.6831 -0.5450
   34MOL     O5 6011   2.809   3.683   4.534 -0.5371 -0.1683  0.0257
   34MOL     H6 6012   2.961   3.691   4.958 -0.5980 -1.4936 -1.9873
   34MOL     H7 6013   3.031   3.799   4.851 -1.0977 -0.0674 -1.3930
   34MOL     H8 6014   2.970   3.599   4.731  0.1774 -0.3027  1.4295
   34MOL     H9 6015   2.798   3.742   4.461  2.6039  0.5383  0.0283
   34MOL    H10 6016   2.862   3.827   4.906 -0.4282  2.2365 -2.8982
   34MOL    C11 6017   2.760   3.573   4.815  0.0955 -0.2678  0.4868
   34MOL    C12 6018   2.796   3.460   4.921  0.7230  0.6810 -0.6995
   34MOL    C13 6019   2.908   3.371   4.868  0.3405 -1.1729  0.3964
   34MOL    O14 6020   3.018   3.355   4.922  0.3165 -0.0029 -0.2339
   34MOL    O15 6021   2.878   3.320   4.741  0.1867 -0.1804 -0.0042
   34MOL    H16 6022   2.731   3.521   4.724  0.8758 -1.0686  0.6798
   34MOL    H17 6023   2.688   3.651   4.837  3.1506  2.3925  1.4246
   34MOL    H18 6024   2.830   3.504   5.014  0.6953  1.0004 -0.8394
   34MOL    H19 6025   2.950   3.268   4.710 -1.1312 -1.1720 -1.5353
   34MOL    C20 6026   2.674   3.372   4.953 -0.6647  0.8589 -0.3306
   34MOL    C21 6027   2.689   3.266   5.062 -0.0416  0.5112  0.3108
   34MOL    C22 6028   2.590   3.155   5.034 -0.0818  0.1300 -0.0013
   34MOL    O23 6029   2.470   3.179   5.066 -0.0251 -0.0181 -0.3953
   34MOL    O24 6030   2.644   3.033   4.994  0.6354 -0.7155  0.6209
   34MOL    H25 6031   2.649   3.317   4.862  1.9367 -1.0390  0.0653
   34MOL    H26 6032   2.582   3.429   4.967 -0.7198  0.2127  2.3009
   34MOL    H27 6033   2.786   3.217   5.053  0.6511  1.8354  0.3247
   34MOL    H28 6034   2.577   2.966   5.005  0.0456 -0.2070  0.1758
   34MOL    C29 6035   2.684   3.335   5.199 -0.5967 -0.2179  0.4896
   34MOL    C30 6036   2.687   3.250   5.330  0.2447 -0.4969 -0.6433
   34MOL    C31 6037   2.618   3.304   5.448 -0.3449 -0.0975 -0.6227
   34MOL    O32 6038   2.517   3.256   5.496 -0.5818  1.0504 -0.1658
   34MOL    O33 6039   2.684   3.413   5.502  0.6354  0.2431 -0.1907
   34MOL    H34 6040   2.590   3.388   5.182  0.8501  1.9187 -0.9824
   34MOL    H35 6041   2.766   3.405   5.211 -0.2286 -0.3058 -1.4052
   34MOL    H36 6042   2.625   3.163   5.307 -0.9481 -0.4516  2.2636
   34MOL    H37 6043   2.642   3.434   5.584  1.8210  0.0135  0.4836
   34MOL    C38 6044   2.831   3.214   5.369  0.0763 -0.1579  0.4373
   34MOL    C39 6045   2.886   3.077   5.303 -0.2606 -0.8372 -0.6066
   34MOL    C40 6046   2.840   2.947   5.377 -0.0943  0.2768  0.7644
   34MOL    O41 6047   2.913   2.844   5.379 -0.9063 -0.2003  0.0697
   34MOL    O42 6048   2.716   2.959   5.430  0.3490 -0.1996 -0.0454
   34MOL    H43 6049   2.854   3.213   5.475  2.6686  0.7361 -0.0848
   34MOL    H44 6050   2.891   3.303   5.351 -0.3951  0.4018  1.6393
   34MOL    H45 6051   2.839   3.073   5.205 -1.3735  2.4518 -0.2832
   34MOL    H46 6052   2.697   2.876   5.471  0.4436  0.0902  0.5779
   34MOL    C47 6053   3.039   3.091   5.273 -0.6241  0.3972  0.4207
   34MOL    C48 6054   3.117   2.999   5.159  0.1244 -0.3762  1.6018
   34MOL    C49 6055   3.269   2.994   5.179  0.9914 -0.2613 -0.1160
   34MOL    O50 6056   3.335   2.894   5.151 -0.5020 -0.2238  0.2993
   34MOL    O51 6057   3.313   3.104   5.245 -0.4081 -0.3493  0.4691
   34MOL    H52 6058   3.095   3.084   5.366 -0.2304 -0.6488  0.1253
   34MOL    H53 6059   3.046   3.195   5.241 -3.0011  0.5306  0.2588
   34MOL    H54 6060   3.081   2.897   5.147 -2.3190  0.6515 -0.3837
   34MOL    H55 6061   3.405   3.087   5.263  0.7491  2.6658 -2.0849
   34MOL    C56 6062   3.094   3.052   5.023  0.0122 -0.2521  0.3840
   34MOL    C57 6063   3.093   2.949   4.906  0.3772 -0.7812 -1.0246
   34MOL    C58 6064   3.112   3.017   4.773  0.4565 -0.2486  0.3193
   34MOL    O59 6065   3.030   3.103   4.740  0.1160  0.3306 -0.3825
   34MOL    O60 6066   3.226   2.986   4.712  0.2255 -0.5928 -0.3567
   34MOL    H61 6067   3.157   3.136   4.993 -0.5769 -0.3540 -1.2116
   34MOL    H62 6068   2.994   3.096   5.017  0.3659  0.6608  1.0880
   34MOL    H63 6069   3.169   2.872   4.918 -0.0595 -1.1745 -0.7692
   34MOL    H64 6070   3.240   3.040   4.635  1.8498 -1.1435 -0.4698
   34MOL    C65 6071   2.950   2.873   4.905  0.3235 -0.4135 -0.5528
   34MOL    C66 6072   2.920   2.754   4.808  0.1935 -0.0702  0.4282
   34MOL    C67 6073   2.773   2.728   4.792  0.5008  0.3706  0.9608
   34MOL    O68 6074   2.710   2.644   4.854 -0.1325  0.1157  0.2966
   34MOL    O69 6075   2.718   2.822   4.705  0.0659  0.2912  0.1402
   34MOL    H70 6076   2.876   2.948   4.878  1.9212  1.6358  0.6498
   34MOL    H71 6077   2.918   2.849   5.006 -0.5442  0.4435 -0.6239
   34MOL    H72 6078   2.945   2.797   4.711 -0.1218  0.1391  0.4395
   34MOL    H73 6079   2.629   2.797   4.686  0.6825 -1.1752 -0.8847
   34MOL    C74 6080   3.001   2.627   4.854 -0.3713  0.1320  0.3490
   34MOL    C75 6081   2.995   2.495   4.782 -0.6143 -0.4588 -0.2909
   34MOL    C76 6082   3.052   2.382   4.872  0.3035  0.1383 -0.2891
   34MOL    O77 6083   3.166   2.335   4.861  0.1792  0.3419 -0.0238
   34MOL    O78 6084   2.959   2.346   4.965  0.2835  0.5348  0.1741
   34MOL    H79 6085   2.962   2.610   4.954 -0.1931 -2.2916  0.0272
   34MOL    H80 6086   3.107   2.651   4.863  0.2608 -2.8605  1.4447
   34MOL    H81 6087   2.893   2.463   4.760 -0.7555  0.1921 -0.6059
   34MOL    H82 6088   2.992   2.280   5.025 -1.6376 -2.2591 -1.7205
   34MOL    C83 6089   3.071   2.506   4.644  0.4163 -0.5115 -0.1713
   34MOL    C84 6090   2.994   2.582   4.529 -1.2866 -0.0795 -0.0450
   34MOL    C85 6091   2.897   2.488   4.458 -0.1145 -0.4334  0.3401
   34MOL    O86 6092   2.778   2.478   4.489  0.0609 -0.3065 -0.5424
   34MOL    O87 6093   2.951   2.413   4.356 -0.3647  0.0810 -0.1577
   34MOL    H88 6094   3.091   2.406   4.606 -0.4297 -1.6234  2.1865
   34MOL    H89 6095   3.175   2.539   4.649  0.1737  0.7692 -2.8391
   34MOL    H90 6096   2.919   2.652   4.568 -0.4491  1.1322 -0.5765
   34MOL    H91 6097   2.899   2.339   4.327 -0.0894 -0.5120  0.8385
   34MOL    C92 6098   3.088   2.665   4.438  0.8219  0.3433  0.1075
   34MOL    C93 6099   3.032   2.758   4.329 -0.0566 -0.7583 -0.1624
   34MOL    C94 6100   3.132   2.790   4.217  0.7423 -0.0463  0.2619
   34MOL    O95 6101   3.196   2.897   4.207  0.3137  0.2570 -0.9409
   34MOL    O96 6102   3.121   2.693   4.126 -0.5308 -0.0628 -0.5865
   34MOL    H97 6103   3.157   2.601   4.384  2.5646  0.9464  1.5548
   34MOL    H98 6104   3.144   2.731   4.504  1.0015 -0.1538  0.4552
   34MOL    H99 6105   2.954   2.696   4.287 -0.6529 -0.5560  0.6302
   34MOL   H100 6106   3.195   2.694   4.067 -2.2526 -0.2298 -2.7879
   34MOL   C101 6107   2.970   2.888   4.391 -0.2017 -0.1672  0.3708
   34MOL   C102 6108   2.842   2.935   4.304 -0.5592  0.0294  0.2176
   34MOL   C103 6109   2.832   3.089   4.311 -0.0037  0.3587  0.2639
   34MOL   O104 6110   2.856   3.158   4.213 -0.7194 -0.0673  0.4340
   34MOL   O105 6111   2.802   3.140   4.429 -0.3718  0.2314  0.2471
   34MOL   H106 6112   3.050   2.959   4.411  0.7219 -1.2559  0.6545
   34MOL   H107 6113   2.918   2.870   4.486  0.0029  1.3729  0.7927
   34MOL   H108 6114   2.877   2.917   4.202  0.2308  1.6692  0.1822
   34MOL   H109 6115   2.793   3.233   4.417 -0.7080  0.4098  1.7657
   34MOL   C110 6116   2.710   2.858   4.341 -0.5810  0.1031 -0.7801
   34MOL   C111 6117   2.614   2.841   4.221 -1.1676  0.8605 -0.8166
   34MOL   C112 6118   2.519   2.965   4.213  0.6706  0.4622 -0.3044
   34MOL   O113 6119   2.536   3.073   4.258  0.0728 -0.0207  0.2897
   34MOL   O114 6120   2.407   2.936   4.136  0.7341  0.2897 -0.5199
   34MOL   H115 6121   2.668   2.913   4.425 -1.7347 -0.2220 -1.1308
   34MOL   H116 6122   2.742   2.762   4.379 -0.0543  0.8276  0.6491
   34MOL   H117 6123   2.681   2.834   4.136 -1.2754  0.9243 -0.9075
   34MOL   H118 6124   2.346   3.007   4.147  0.2252 -0.0619 -1.0506
   34MOL   C119 6125   2.537   2.711   4.236 -0.1366 -0.6121 -0.4273
   34MOL   C120 6126   2.425   2.706   4.349  0.0387  0.1405  0.0329
   34MOL   C121 6127   2.475   2.640   4.482 -0.0799  0.6230  1.2798
   34MOL   O122 6128   2.516   2.709   4.578 -0.1129  0.2773  0.5981
   34MOL   O123 6129   2.478   2.501   4.476 -0.1562  0.2871 -0.0734
   34MOL   H124 6130   2.610   2.630   4.251  0.4789  0.3617  2.2148
   34MOL   H125 6131   2.494   2.682   4.140  1.4491 -4.5702 -0.0721
   34MOL   H126 6132   2.404   2.810   4.376 -0.8618 -0.0858  0.2275
   34MOL   H127 6133   2.522   2.461   4.549 -0.4369  1.2325  0.6193
   34MOL   C128 6134   2.293   2.632   4.299  0.1796  0.1666  0.2274
   34MOL   C129 6135   2.167   2.629   4.388 -0.9235  0.3170 -0.3952
   34MOL   C130 6136   2.095   2.493   4.381 -0.6311 -0.0859 -0.2321
   34MOL   O131 6137   2.127   2.399   4.313  0.1334  0.4268 -0.0301
   34MOL   O132 6138   1.983   2.483   4.456  0.4115 -0.5599  0.5099
   34MOL   H133 6139   2.329   2.533   4.272  2.2049  1.2149 -1.0607
   34MOL   H134 6140   2.260   2.668   4.202 -0.9365  2.4994  1.4293
   34MOL   H135 6141   2.189   2.645   4.494  0.2576 -1.2092 -0.3850
   34MOL   H136 6142   1.954   2.393   4.456 -0.7908 -0.1834  0.5577
   34MOL   C137 6143   2.063   2.741   4.350  0.0260  0.5790 -0.0027
   34MOL   C138 6144   2.080   2.880   4.422 -1.0103 -0.3302 -0.3397
   34MOL   C139 6145   2.059   2.871   4.572  0.0730 -0.0614  0.9059
   34MOL   O140 6146   2.144   2.894   4.663  0.1571  0.2561  0.2659
   34MOL   O141 6147   1.933   2.835   4.601  0.5890  0.1918  0.1046
   34MOL   H142 6148   1.960   2.709   4.368  0.6921 -0.8983  1.2333
   34MOL   H143 6149   2.067   2.759   4.242  0.1213  3.4385  0.4445
   34MOL   H144 6150   2.181   2.900   4.386 -1.5606  3.0709 -0.1563
   34MOL   H145 6151   1.920   2.804   4.690  1.0756 -0.5986 -0.0972
   34MOL   C146 6152   1.992   2.990   4.357  0.3498  0.0296  0.4845
   34MOL   C147 6153   2.035   3.032   4.216 -0.0772 -0.9242 -0.0734
   34MOL   C148 6154   2.110   3.163   4.217  0.5072  0.1442 -0.4634
   34MOL   O149 6155   2.058   3.269   4.259  0.2764  0.2462 -0.3538
   34MOL   O150 6156   2.231   3.155   4.164 -0.3568  0.8714  0.1513
   34MOL   H151 6157   2.000   3.082   4.415 -0.5161 -1.1745  2.5662
   34MOL   H152 6158   1.886   2.974   4.378 -0.1063  0.1645 -1.6129
   34MOL   H153 6159   2.091   2.956   4.163  2.0942  1.2622 -1.0264
   34MOL   H154 6160   2.260   3.242   4.142 -2.8594  0.9133 -3.3394
   34MOL   C155 6161   1.910   3.043   4.125  0.0039  0.1264  0.6044
   34MOL   C156 6162   1.922   3.076   3.972 -0.3414  0.5446 -0.6263
   34MOL   C157 6163   1.916   3.222   3.942 -0.5649  0.1360 -0.0498
   34MOL   O158 6164   1.821   3.287   3.988  0.1064  0.4238  0.7409
   34MOL   O159 6165   2.024   3.277   3.892 -0.3625  0.3457 -0.3166
   34MOL   H160 6166   1.833   3.110   4.163  0.5620  0.6529  0.8177
   34MOL   H161 6167   1.865   2.943   4.128  1.1858 -0.5768 -2.9134
   34MOL   H162 6168   2.023   3.054   3.937 -1.3404 -0.7104 -2.8163
   34MOL   H163 6169   2.005   3.369   3.898  2.5786  0.9957 -0.5154
   34MOL   C164 6170   1.814   3.000   3.900 -0.4420  0.0513 -0.4177
   34MOL   C165 6171   1.784   3.035   3.753 -0.0880  0.0598  0.0806
   34MOL   C166 6172   1.649   2.984   3.710  0.0369 -0.4383  0.1675
   34MOL   O167 6173   1.637   2.883   3.638  0.5995 -0.1277  0.3849
   34MOL   O168 6174   1.551   3.064   3.758  0.5588  0.2113  0.2380
   34MOL   H169 6175   1.723   2.981   3.957 -0.6685 -0.1964 -0.8582
   34MOL   H170 6176   1.852   2.898   3.888 -1.3139 -0.2973 -0.2789
   34MOL   H171 6177   1.777   3.143   3.741 -2.5391  0.0587  1.0360
   34MOL   H172 6178   1.578   3.139   3.809  1.5253 -0.4951  0.7742
   34MOL   C173 6179   1.898   2.986   3.664 -0.0844 -0.1078 -0.2554
   34MOL   C174 6180   1.899   3.050   3.530 -0.3427  0.6316  0.5336
   34MOL   C175 6181   1.963   3.186   3.509 -0.5797 -0.6423  0.7901
   34MOL   O176 6182   2.020   3.250   3.599  0.0470  0.0521 -0.2888
   34MOL   O177 6183   1.960   3.224   3.380 -0.3727  0.2701 -0.0208
   34MOL   H178 6184   1.898   2.878   3.649 -2.4081 -0.0457 -0.8130
   34MOL   H179 6185   1.990   3.012   3.718 -0.2203 -1.9289  0.8905
   34MOL   H180 6186   1.956   2.981   3.468 -2.3412 -0.7993  0.2116
   34MOL   H181 6187   1.997   3.311   3.381 -1.5911  0.8017  1.9117
   34MOL   H182 6188   1.798   3.049   3.487  0.6286  2.7658 -1.8827
   35MOL     C1 6189   2.658   4.981   6.681 -0.0121 -0.3011  0.4322
   35MOL     C2 6190   2.734   5.101   6.735 -0.4974 -0.1432 -0.9003
   35MOL     C3 6191   2.816   5.174   6.623 -0.1756  0.2703 -0.8396
   35MOL     O4 6192   2.933   5.211   6.637 -0.3037 -0.5569  0.2469
   35MOL     O5 6193   2.744   5.212   6.519  0.1891 -0.1629  0.0041
   35MOL     H6 6194   2.593   4.946   6.762  0.9833 -0.3290  1.2213
   35MOL     H7 6195   2.602   5.003   6.590  0.8153  3.0403  0.6514
   35MOL     H8 6196   2.662   5.168   6.782 -1.1943 -2.9368  2.2152
   35MOL     H9 6197   2.810   5.260   6.472  1.0232  1.5076  2.7728
   35MOL    H10 6198   2.721   4.899   6.647  0.7423  0.8709 -1.0379
   35MOL    C11 6199   2.835   5.061   6.847  0.3540  0.1847  0.0876
   35MOL    C12 6200   2.793   4.962   6.966 -0.1681 -0.1592  0.3471
   35MOL    C13 6201   2.672   5.015   7.039 -0.3605 -0.0507 -0.1169
   35MOL    O14 6202   2.633   5.131   7.038 -0.0469  0.0631 -0.4662
   35MOL    O15 6203   2.608   4.919   7.106 -0.3679  0.3711 -0.1536
   35MOL    H16 6204   2.886   5.145   6.893 -0.3815  1.0721 -0.6978
   35MOL    H17 6205   2.920   5.022   6.791  0.6730  2.3179 -0.9764
   35MOL    H18 6206   2.769   4.866   6.920  0.1626 -0.8558  1.6115
   35MOL    H19 6207   2.523   4.945   7.135  1.7743  4.3375  2.9972
   35MOL    C20 6208   2.898   4.931   7.069  0.1924 -0.3250  0.2296
   35MOL    C21 6209   3.006   4.823   7.020  0.4734 -0.0196  0.2554
   35MOL    C22 6210   2.942   4.686   7.031 -0.1504  0.3147 -0.1491
   35MOL    O23 6211   2.909   4.619   6.928  0.2518  0.1387 -0.6823
   35MOL    O24 6212   2.914   4.649   7.164  0.1437 -0.0375  0.2067
   35MOL    H25 6213   2.862   4.898   7.167  1.3748 -1.7425  0.2009
   35MOL    H26 6214   2.949   5.018   7.110  2.5810 -0.8656 -1.4922
   35MOL    H27 6215   3.037   4.847   6.918  1.0100 -0.3564  0.3401
   35MOL    H28 6216   2.882   4.561   7.169  1.1394 -0.4755 -0.7979
   35MOL    C29 6217   3.137   4.835   7.105 -0.1223 -0.4846  0.1449
   35MOL    C30 6218   3.254   4.747   7.063 -0.5354  1.2220  0.0229
   35MOL    C31 6219   3.337   4.697   7.186 -0.3293  0.1817 -0.4388
   35MOL    O32 6220   3.456   4.709   7.202 -0.6380  0.0466  0.0611
   35MOL    O33 6221   3.252   4.642   7.275 -0.1216 -0.2156 -0.3111
   35MOL    H34 6222   3.112   4.818   7.210  0.4038 -2.0329  0.0366
   35MOL    H35 6223   3.162   4.941   7.098 -1.4788 -0.0870  1.1144
   35MOL    H36 6224   3.220   4.653   7.021 -1.5186  0.9368  1.4197
   35MOL    H37 6225   3.303   4.624   7.353 -0.0010  2.2842  0.2397
   35MOL    C38 6226   3.347   4.823   6.968 -0.1309  0.1198  0.6089
   35MOL    C39 6227   3.298   4.868   6.834 -0.0534  0.1996  0.5738
   35MOL    C40 6228   3.237   4.759   6.742  0.0311 -0.0413 -0.1452
   35MOL    O41 6229   3.275   4.641   6.745 -0.9611 -0.6737  0.2155
   35MOL    O42 6230   3.125   4.808   6.672 -0.5318 -0.2517 -0.1590
   35MOL    H43 6231   3.427   4.755   6.939 -0.7087 -1.0655  1.6996
   35MOL    H44 6232   3.393   4.909   7.017  0.1803  0.5386 -0.4021
   35MOL    H45 6233   3.225   4.945   6.859  0.7672  0.7887  1.1972
   35MOL    H46 6234   3.082   4.744   6.618  1.0019 -0.7213 -0.8332
   35MOL    C47 6235   3.416   4.935   6.762 -0.7664 -0.4006 -0.3834
   35MOL    C48 6236   3.385   5.040   6.651 -0.6982 -0.0883  0.1616
   35MOL    C49 6237   3.285   5.154   6.693  0.9377  0.7858  0.0098
   35MOL    O50 6238   3.282   5.208   6.800  0.0580  0.0157  0.1109
   35MOL    O51 6239   3.217   5.198   6.592  0.2722  0.0178 -0.0658
   35MOL    H52 6240   3.498   4.870   6.731  1.1824  2.0969 -0.6647
   35MOL    H53 6241   3.460   5.004   6.834  2.1277 -0.5210 -1.9136
   35MOL    H54 6242   3.479   5.088   6.622 -0.2960 -1.0252 -0.0886
   35MOL    H55 6243   3.148   5.258   6.614 -1.0891 -1.4684 -0.1397
   35MOL    C56 6244   3.346   4.966   6.517 -0.1763 -0.4843 -0.4597
   35MOL    C57 6245   3.389   5.028   6.383 -0.8005 -0.0110 -0.4537
   35MOL    C58 6246   3.282   5.004   6.276 -0.0216  0.7234  0.1971
   35MOL    O59 6247   3.219   5.088   6.212 -0.6501  0.3487  0.3269
   35MOL    O60 6248   3.267   4.874   6.263 -0.7626  0.0672  0.3251
   35MOL    H61 6249   3.237   4.967   6.525 -0.0431 -0.3591  1.4757
   35MOL    H62 6250   3.383   4.864   6.511  0.8765  0.0346 -3.2953
   35MOL    H63 6251   3.376   5.135   6.401  0.3405 -0.0641  0.7889
   35MOL    H64 6252   3.220   4.847   6.187  0.3954 -0.2303 -0.2964
   35MOL    C65 6253   3.532   4.985   6.341 -0.7080  0.4371 -0.1293
   35MOL    C66 6254   3.600   5.058   6.229  0.2310 -0.5101  0.1245
   35MOL    C67 6255   3.665   4.969   6.130  0.2363  0.3116  0.0631
   35MOL    O68 6256   3.625   4.954   6.013  0.0713  0.0090 -0.6008
   35MOL    O69 6257   3.771   4.898   6.189 -0.4043  0.1170  0.0623
   35MOL    H70 6258   3.528   4.876   6.328  0.5163  0.2273  1.0954
   35MOL    H71 6259   3.594   5.008   6.428 -1.6613 -0.9046  0.9337
   35MOL    H72 6260   3.525   5.103   6.164  2.6001 -0.0334 -2.3421
   35MOL    H73 6261   3.795   4.836   6.122 -0.9426  1.0364 -0.9970
   35MOL    C74 6262   3.699   5.176   6.280 -0.1777  0.6715  0.8570
   35MOL    C75 6263   3.640   5.305   6.331  0.0532 -0.4295  0.5884
   35MOL    C76 6264   3.606   5.402   6.211 -0.2599 -0.2529 -0.4755
   35MOL    O77 6265   3.685   5.430   6.123  0.2910 -0.0240 -0.4215
   35MOL    O78 6266   3.476   5.439   6.210  0.0387 -0.0227  0.0134
   35MOL    H79 6267   3.773   5.196   6.202  0.7369  1.7995  1.9943
   35MOL    H80 6268   3.739   5.123   6.367 -2.6268  1.6787  2.6476
   35MOL    H81 6269   3.551   5.280   6.389 -1.0734 -0.6300 -1.1853
   35MOL    H82 6270   3.448   5.488   6.135  1.7379 -0.5646 -1.0051
   35MOL    C83 6271   3.742   5.369   6.422  0.4179 -0.0451  0.0319
   35MOL    C84 6272   3.697   5.500   6.488 -0.0881  0.9538  0.2846
   35MOL    C85 6273   3.812   5.579   6.553  0.3349 -0.0951 -0.7229
   35MOL    O86 6274   3.866   5.669   6.495  0.0708  0.1152  0.1361
   35MOL    O87 6275   3.853   5.542   6.676 -0.1201  0.0845  0.2695
   35MOL    H88 6276   3.826   5.397   6.358 -0.3775  2.4219  0.0152
   35MOL    H89 6277   3.771   5.308   6.507  0.5937  0.5971  0.4381
   35MOL    H90 6278   3.678   5.568   6.405 -0.8890  1.8387  1.1779
   35MOL    H91 6279   3.918   5.609   6.690  0.0056 -0.3405  1.9011
   35MOL    C92 6280   3.578   5.491   6.585  0.3975  0.0122 -0.1839
   35MOL    C93 6281   3.515   5.628   6.620 -0.0567 -0.0047 -0.4774
   35MOL    C94 6282   3.403   5.616   6.729  0.7510 -0.2373  0.0530
   35MOL    O95 6283   3.287   5.659   6.723  0.1636 -0.3058  0.0511
   35MOL    O96 6284   3.440   5.537   6.837 -0.5170  0.5028  0.5283
   35MOL    H97 6285   3.606   5.429   6.671  0.7380  1.2200  0.5820
   35MOL    H98 6286   3.499   5.430   6.542  1.0823 -1.3735  0.4723
   35MOL    H99 6287   3.596   5.680   6.672 -0.0131  0.8506 -1.3897
   35MOL   H100 6288   3.365   5.540   6.895 -2.3024 -1.0087 -1.6214
   35MOL   C101 6289   3.469   5.722   6.501  0.4589  0.2683 -0.0143
   35MOL   C102 6290   3.467   5.874   6.523  0.3327  0.8546 -0.3271
   35MOL   C103 6291   3.379   5.946   6.425  0.1728 -0.1870  0.7817
   35MOL   O104 6292   3.416   5.956   6.303  0.0526  0.0060  0.1571
   35MOL   O105 6293   3.264   5.991   6.479  0.5934 -0.1181 -0.3111
   35MOL   H106 6294   3.372   5.683   6.472  0.4471 -0.7953  1.4083
   35MOL   H107 6295   3.527   5.702   6.410  1.1477 -0.4342  0.5637
   35MOL   H108 6296   3.419   5.886   6.620  2.4314  1.3674  0.6662
   35MOL   H109 6297   3.249   5.987   6.573  0.2732 -0.7630 -0.3910
   35MOL   C110 6298   3.607   5.947   6.532  0.2119 -0.2035  0.3255
   35MOL   C111 6299   3.617   6.048   6.653 -0.5912  0.0145  0.0286
   35MOL   C112 6300   3.605   5.970   6.779 -0.1688 -0.4489 -0.4513
   35MOL   O113 6301   3.508   5.967   6.849  0.1282  0.4554 -0.4192
   35MOL   O114 6302   3.717   5.900   6.802  0.1028 -0.0279 -0.1036
   35MOL   H115 6303   3.636   5.991   6.437 -0.7683 -1.7009 -0.6712
   35MOL   H116 6304   3.685   5.871   6.539 -1.2668 -1.5678  2.7747
   35MOL   H117 6305   3.719   6.085   6.644 -0.1435 -1.2704 -0.2302
   35MOL   H118 6306   3.709   5.854   6.884 -0.9692 -2.1917 -1.3804
   35MOL   C119 6307   3.513   6.167   6.647  0.3322  0.0260  0.7325
   35MOL   C120 6308   3.515   6.257   6.527  0.7364  0.0560  0.4757
   35MOL   C121 6309   3.655   6.314   6.501 -0.5461 -0.6927 -0.1797
   35MOL   O122 6310   3.715   6.370   6.594  0.6008  0.1109 -0.3872
   35MOL   O123 6311   3.700   6.292   6.377 -0.3252  0.3482 -0.2803
   35MOL   H124 6312   3.534   6.236   6.729 -1.2896  2.1208 -0.5679
   35MOL   H125 6313   3.416   6.122   6.665  0.5650 -0.7423  0.1136
   35MOL   H126 6314   3.494   6.191   6.443  0.1098  1.3850 -0.4142
   35MOL   H127 6315   3.791   6.314   6.367  0.0957 -1.3340 -0.3354
   35MOL   C128 6316   3.407   6.362   6.525  0.5070 -0.1419 -0.2633
   35MOL   C129 6317   3.408   6.455   6.399  0.6728 -0.1860  0.5748
   35MOL   C130 6318   3.441   6.598   6.427 -0.4487  0.0451 -0.1414
   35MOL   O131 6319   3.399   6.653   6.529  0.5494 -0.2303 -0.7847
   35MOL   O132 6320   3.521   6.651   6.332  0.1568 -0.3632 -0.0882
   35MOL   H133 6321   3.433   6.413   6.618  2.5935 -1.8104  0.0889
   35MOL   H134 6322   3.312   6.310   6.541  0.2793  0.5730  0.7820
   35MOL   H135 6323   3.472   6.421   6.317 -0.8032  0.6726 -0.9690
   35MOL   H136 6324   3.546   6.741   6.345 -0.5296  0.1566 -2.0899
   35MOL   C137 6325   3.277   6.446   6.317  0.3772 -0.2886  0.2074
   35MOL   C138 6326   3.277   6.472   6.158  0.4208 -0.2674  0.2846
   35MOL   C139 6327   3.179   6.587   6.124 -0.2404  0.2375  0.2999
   35MOL   O140 6328   3.070   6.573   6.074 -0.0697  0.3280  0.0635
   35MOL   O141 6329   3.232   6.706   6.162  0.1536 -0.1324  0.3463
   35MOL   H142 6330   3.207   6.512   6.368 -0.8101 -1.3851  0.0359
   35MOL   H143 6331   3.229   6.352   6.343 -1.9349  0.1831 -2.1277
   35MOL   H144 6332   3.376   6.507   6.129  0.2858  0.8650  1.1771
   35MOL   H145 6333   3.184   6.782   6.134 -0.6697 -1.1260 -1.0262
   35MOL   C146 6334   3.247   6.342   6.077 -0.1853 -0.3153 -0.9172
   35MOL   C147 6335   3.362   6.244   6.081 -0.2080  1.0291 -0.0852
   35MOL   C148 6336   3.494   6.296   6.015  0.1376  0.5039  0.1396
   35MOL   O149 6337   3.596   6.308   6.081  0.5025 -0.7706  0.1822
   35MOL   O150 6338   3.484   6.341   5.889 -0.1497 -0.2560 -0.2135
   35MOL   H151 6339   3.222   6.377   5.976 -0.0681  1.3154 -0.3913
   35MOL   H152 6340   3.165   6.289   6.125  1.9417 -0.3964  2.7244
   35MOL   H153 6341   3.395   6.225   6.183  0.7827  2.5154 -0.1039
   35MOL   H154 6342   3.563   6.382   5.856 -0.1973  0.7128  0.8212
   35MOL   C155 6343   3.320   6.106   6.041  0.0442 -0.7608  0.5359
   35MOL   C156 6344   3.262   6.088   5.904 -0.2587  0.2292 -0.3754
   35MOL   C157 6345   3.112   6.073   5.903  0.0226 -0.6193 -0.7078
   35MOL   O158 6346   3.048   5.985   5.958  0.0309 -0.2181  0.7022
   35MOL   O159 6347   3.052   6.164   5.828 -0.1101  0.2488  0.6952
   35MOL   H160 6348   3.257   6.060   6.117 -0.7138  2.1845  1.7205
   35MOL   H161 6349   3.406   6.040   6.053 -0.0187 -0.7974  0.7772
   35MOL   H162 6350   3.277   6.179   5.845  2.8740  0.5695  0.8460
   35MOL   H163 6351   2.958   6.154   5.823  0.0428 -0.6952 -0.5005
   35MOL   C164 6352   3.322   5.971   5.822  0.2219  0.6453  0.3591
   35MOL   C165 6353   3.464   5.980   5.766  0.2635 -0.2287 -0.0087
   35MOL   C166 6354   3.479   6.100   5.672 -0.1405 -0.1787 -0.8955
   35MOL   O167 6355   3.566   6.182   5.688 -0.3709 -0.2046 -0.2730
   35MOL   O168 6356   3.397   6.100   5.568 -0.2056 -0.1014  0.6348
   35MOL   H169 6357   3.263   5.933   5.739 -0.1869  0.7612  0.5939
   35MOL   H170 6358   3.325   5.882   5.885  1.3407 -1.9443 -3.2099
   35MOL   H171 6359   3.525   6.013   5.850  1.0402  1.6353 -1.2764
   35MOL   H172 6360   3.406   6.174   5.511 -0.8428 -0.0071  0.6482
   35MOL   C173 6361   3.506   5.847   5.702  0.7828 -0.5218  0.7313
   35MOL   C174 6362   3.628   5.788   5.770 -0.1215 -0.6356  0.3519
   35MOL   C175 6363   3.623   5.742   5.915  0.0464  0.2859  0.9677
   35MOL   O176 6364   3.524   5.742   5.987 -0.4620 -0.0694 -0.1845
   35MOL   O177 6365   3.742   5.693   5.946  0.0718 -0.1362  0.7729
   35MOL   H178 6366   3.530   5.869   5.598 -2.9452  1.5929  0.2104
   35MOL   H179 6367   3.426   5.774   5.715 -0.4145  0.6270 -0.0096
   35MOL   H180 6368   3.645   5.697   5.712 -1.5682  0.2406 -1.4739
   35MOL   H181 6369   3.764   5.672   6.036 -1.2439 -1.1032  0.8708
   35MOL   H182 6370   3.710   5.859   5.763 -0.7979  0.0608 -0.6035
   36MOL     C1 6371   3.963   5.300   4.216 -0.1978 -0.1173  0.0036
   36MOL     C2 6372   3.837   5.386   4.233 -0.1580  0.5732 -0.2680
   36MOL     C3 6373   3.726   5.313   4.303  0.1139  0.2918  0.1079
   36MOL     O4 6374   3.610   5.325   4.267 -0.0727  0.5720  0.1902
   36MOL     O5 6375   3.769   5.230   4.402 -0.0194 -0.1002 -0.0725
   36MOL     H6 6376   4.055   5.359   4.221 -0.4222  0.1049  1.7466
   36MOL     H7 6377   3.973   5.230   4.299  0.4289  0.9111  0.8149
   36MOL     H8 6378   3.859   5.457   4.313 -0.0693  1.0701 -0.7322
   36MOL     H9 6379   3.710   5.158   4.415  0.5754 -0.7767 -1.0695
   36MOL    H10 6380   3.966   5.233   4.131  0.1639 -0.7825  0.5334
   36MOL    C11 6381   3.796   5.467   4.109 -0.1088  0.2904  0.2076
   36MOL    C12 6382   3.904   5.567   4.053  0.0912 -0.2995 -0.0408
   36MOL    C13 6383   3.905   5.698   4.132 -0.2698 -0.2414  0.5635
   36MOL    O14 6384   3.818   5.721   4.217 -0.4685  0.1689 -0.3145
   36MOL    O15 6385   4.010   5.779   4.099 -0.1547  0.6574 -0.6951
   36MOL    H16 6386   3.706   5.521   4.137 -0.3580 -0.9519  1.8953
   36MOL    H17 6387   3.774   5.393   4.032 -1.2605  0.3708  0.4507
   36MOL    H18 6388   4.001   5.522   4.074 -0.0506 -0.8769 -0.6219
   36MOL    H19 6389   4.010   5.854   4.156 -0.6395 -0.4729  0.8155
   36MOL    C20 6390   3.892   5.597   3.894  0.3683  0.5545 -0.8743
   36MOL    C21 6391   3.782   5.703   3.849  0.1841 -0.2881 -0.0927
   36MOL    C22 6392   3.638   5.643   3.869 -0.2913  0.0358  0.3424
   36MOL    O23 6393   3.617   5.521   3.845 -0.1583 -0.1789  0.1697
   36MOL    O24 6394   3.550   5.731   3.924 -0.4139 -0.3607 -0.2332
   36MOL    H25 6395   3.876   5.496   3.857 -1.6427  0.3652  0.3824
   36MOL    H26 6396   3.991   5.623   3.858  1.0475  1.8036  1.7554
   36MOL    H27 6397   3.789   5.790   3.915 -2.4705 -0.7633  0.8538
   36MOL    H28 6398   3.470   5.683   3.938 -0.9347  0.7621  0.7021
   36MOL    C29 6399   3.806   5.752   3.702 -0.5758  0.3071 -0.4972
   36MOL    C30 6400   3.706   5.861   3.644  0.0571  0.3195  0.3809
   36MOL    C31 6401   3.660   5.799   3.507 -0.3486 -0.1073  0.2672
   36MOL    O32 6402   3.548   5.754   3.490  0.0397  0.0541  0.1448
   36MOL    O33 6403   3.757   5.803   3.408  0.3879 -0.1921 -0.2160
   36MOL    H34 6404   3.796   5.663   3.640  0.1729 -0.9046  1.1030
   36MOL    H35 6405   3.904   5.800   3.700 -1.1966  1.6674  0.6759
   36MOL    H36 6406   3.615   5.883   3.698 -1.1417 -1.6902 -0.7421
   36MOL    H37 6407   3.739   5.756   3.328  1.0655  0.1460 -0.5744
   36MOL    C38 6408   3.768   5.999   3.635  0.2973 -0.5777 -0.1985
   36MOL    C39 6409   3.823   6.066   3.765 -0.2482  0.1879 -0.3960
   36MOL    C40 6410   3.716   6.066   3.875 -0.3241  0.1037  0.7209
   36MOL    O41 6411   3.594   6.078   3.846 -0.4076  0.0091  0.1042
   36MOL    O42 6412   3.756   6.025   3.996 -0.5430 -0.2784  0.6831
   36MOL    H43 6413   3.703   6.071   3.585  1.6184  1.2846  0.6999
   36MOL    H44 6414   3.855   5.985   3.570 -0.0686 -1.6452 -0.4730
   36MOL    H45 6415   3.905   6.006   3.804 -0.8071 -0.5369 -0.3233
   36MOL    H46 6416   3.672   6.024   4.038 -0.2590  1.5386  1.3363
   36MOL    C47 6417   3.863   6.215   3.727  0.6795 -0.9588  0.6089
   36MOL    C48 6418   3.990   6.273   3.794  0.0220  0.3288 -0.7038
   36MOL    C49 6419   3.960   6.309   3.943  0.0610  0.6039  0.3931
   36MOL    O50 6420   3.916   6.424   3.974 -0.0673  0.2799  0.3099
   36MOL    O51 6421   3.972   6.201   4.025  0.0108  0.2132  0.2508
   36MOL    H52 6422   3.786   6.282   3.766  1.4070 -0.2434  0.8307
   36MOL    H53 6423   3.866   6.228   3.619  2.7761 -1.0316  0.6321
   36MOL    H54 6424   4.065   6.195   3.785  0.9352  1.0731  0.2769
   36MOL    H55 6425   3.952   6.206   4.117 -1.5300 -1.2286  0.0247
   36MOL    C56 6426   4.052   6.388   3.707 -0.2573 -0.8641  0.4978
   36MOL    C57 6427   4.185   6.445   3.756  0.3033  0.3552  0.1373
   36MOL    C58 6428   4.231   6.570   3.682 -0.1306 -0.3488 -0.0236
   36MOL    O59 6429   4.336   6.624   3.706  0.1049  0.7956 -0.3663
   36MOL    O60 6430   4.154   6.605   3.572 -0.5482  0.0242 -0.0381
   36MOL    H61 6431   3.975   6.459   3.678  0.9175 -0.6717 -2.3028
   36MOL    H62 6432   4.061   6.365   3.601 -0.4754 -0.6145  0.4248
   36MOL    H63 6433   4.177   6.468   3.862  2.1423  0.2143  0.3233
   36MOL    H64 6434   4.176   6.692   3.540 -1.0625 -0.1635 -0.9083
   36MOL    C65 6435   4.295   6.334   3.734  0.6784 -0.2981 -0.4234
   36MOL    C66 6436   4.434   6.354   3.802 -0.4601  0.0879  0.0458
   36MOL    C67 6437   4.553   6.342   3.700  0.0508  0.0929  0.1332
   36MOL    O68 6438   4.622   6.238   3.681 -0.1898 -0.2979  0.0212
   36MOL    O69 6439   4.573   6.458   3.640  0.4830 -0.0375 -0.3657
   36MOL    H70 6440   4.300   6.327   3.625 -0.2608  1.5214 -0.5964
   36MOL    H71 6441   4.268   6.233   3.763  0.4378 -0.5857 -1.6017
   36MOL    H72 6442   4.455   6.452   3.844 -1.4624  0.0569  0.6257
   36MOL    H73 6443   4.506   6.525   3.644  0.2189 -0.2035 -1.7466
   36MOL    C74 6444   4.469   6.264   3.922 -0.7785  0.0655  0.2014
   36MOL    C75 6445   4.373   6.266   4.033  0.2995 -0.4832 -0.0929
   36MOL    C76 6446   4.327   6.404   4.086  0.3922  0.2490 -0.0906
   36MOL    O77 6447   4.379   6.511   4.062 -0.1507  0.2391 -0.0756
   36MOL    O78 6448   4.210   6.395   4.157 -0.6244  0.3096  0.0483
   36MOL    H79 6449   4.566   6.295   3.960 -0.8123 -1.6885  1.8142
   36MOL    H80 6450   4.480   6.160   3.891 -0.6930  0.4617 -1.1632
   36MOL    H81 6451   4.278   6.224   3.997  0.5605 -1.1128 -0.0590
   36MOL    H82 6452   4.183   6.483   4.179 -0.4736  0.0848  1.1757
   36MOL    C83 6453   4.418   6.179   4.156  0.0704 -0.2367 -0.1743
   36MOL    C84 6454   4.461   6.031   4.126  0.5407 -0.2974 -0.0945
   36MOL    C85 6455   4.339   5.944   4.079 -0.0389  0.5074 -0.4018
   36MOL    O86 6456   4.311   5.938   3.958  0.1785 -0.1455 -0.0518
   36MOL    O87 6457   4.266   5.880   4.179  0.1419 -0.2391  0.1588
   36MOL    H88 6458   4.340   6.180   4.232 -0.2501  2.5167 -0.4954
   36MOL    H89 6459   4.497   6.241   4.198 -1.0460 -1.1824  3.4622
   36MOL    H90 6460   4.539   6.031   4.050 -0.0633  0.1557 -0.7228
   36MOL    H91 6461   4.190   5.840   4.141 -1.4886  3.0584 -0.2769
   36MOL    C92 6462   4.526   5.958   4.249  0.0859  0.0685  0.5001
   36MOL    C93 6463   4.639   6.036   4.318  0.4391  0.2026  1.0361
   36MOL    C94 6464   4.751   6.079   4.224 -0.2882  0.0685 -0.4475
   36MOL    O95 6465   4.766   6.197   4.197 -0.1126 -0.0686  0.0554
   36MOL    O96 6466   4.835   5.975   4.182 -0.6738  0.3018  0.6569
   36MOL    H97 6467   4.565   5.864   4.211  1.1243 -0.1767  2.1191
   36MOL    H98 6468   4.445   5.932   4.317 -0.0409 -0.6042  0.0862
   36MOL    H99 6469   4.579   6.120   4.352 -1.0278 -0.4807  0.2240
   36MOL   H100 6470   4.899   5.995   4.116 -2.2110 -0.4656 -1.1208
   36MOL   C101 6471   4.697   5.961   4.446 -0.1373 -0.3776  0.1538
   36MOL   C102 6472   4.796   6.034   4.540 -0.5813  0.0421 -0.2313
   36MOL   C103 6473   4.859   5.926   4.629 -0.5093 -0.2510  0.0638
   36MOL   O104 6474   4.974   5.883   4.609  0.4658  0.4193  0.0308
   36MOL   O105 6475   4.772   5.868   4.719  0.1069 -0.4735  0.1958
   36MOL   H106 6476   4.745   5.869   4.411  0.1556 -0.2796  0.2987
   36MOL   H107 6477   4.615   5.930   4.510 -1.3588  2.7755  0.1905
   36MOL   H108 6478   4.872   6.078   4.475  0.3246 -1.3469 -0.1321
   36MOL   H109 6479   4.815   5.811   4.781 -1.4525 -0.8732  0.9396
   36MOL   C110 6480   4.725   6.146   4.613 -0.0579 -0.1432 -0.4269
   36MOL   C111 6481   4.822   6.232   4.707 -0.1227  0.7912 -0.7573
   36MOL   C112 6482   4.733   6.310   4.805  0.1570  0.2925  0.0155
   36MOL   O113 6483   4.615   6.341   4.789  0.0633 -0.1139  0.2009
   36MOL   O114 6484   4.807   6.335   4.917  0.0744 -0.0757 -0.5928
   36MOL   H115 6485   4.646   6.097   4.669  1.7932 -2.5695  0.1264
   36MOL   H116 6486   4.672   6.215   4.546 -0.9310  1.0311  1.4243
   36MOL   H117 6487   4.875   6.160   4.769 -0.8988  0.7080 -0.1809
   36MOL   H118 6488   4.895   6.309   4.895  0.2792 -0.2358  0.3970
   36MOL   C119 6489   4.922   6.332   4.636  0.4205  0.2318 -0.0128
   36MOL   C120 6490   5.076   6.296   4.632  0.2057 -0.0834 -0.2778
   36MOL   C121 6491   5.141   6.295   4.776  0.7510  0.0078  1.3636
   36MOL   O122 6492   5.073   6.302   4.876  0.5089 -0.2966 -0.5760
   36MOL   O123 6493   5.276   6.291   4.770 -0.5453 -0.0621  0.3174
   36MOL   H124 6494   4.914   6.430   4.682  0.6132  0.4058 -0.3441
   36MOL   H125 6495   4.890   6.341   4.532  0.9187 -2.1737 -0.4023
   36MOL   H126 6496   5.091   6.189   4.619 -2.6532 -0.3957 -1.4939
   36MOL   H127 6497   5.307   6.282   4.858 -0.2533  0.2538  0.2470
   36MOL   C128 6498   5.160   6.375   4.529  0.3382  0.4080 -0.4460
   36MOL   C129 6499   5.204   6.315   4.397 -0.6689 -0.6130  0.3279
   36MOL   C130 6500   5.092   6.228   4.340 -0.4983 -0.3668  0.6134
   36MOL   O131 6501   5.099   6.103   4.328  0.0433  0.0149  0.6156
   36MOL   O132 6502   4.985   6.311   4.296  0.2391 -0.1082 -0.5788
   36MOL   H133 6503   5.240   6.434   4.574  0.2281  0.6218 -0.5326
   36MOL   H134 6504   5.095   6.452   4.488  2.3453  1.8909 -0.9356
   36MOL   H135 6505   5.205   6.398   4.326 -0.1217 -0.3469  0.6444
   36MOL   H136 6506   4.920   6.264   4.245  0.5321 -1.6889  0.4686
   36MOL   C137 6507   5.343   6.251   4.404 -0.0341 -0.0303 -0.3929
   36MOL   C138 6508   5.433   6.305   4.291  0.2511  0.0200 -0.7485
   36MOL   C139 6509   5.528   6.195   4.253 -0.2950 -0.3582  0.2180
   36MOL   O140 6510   5.633   6.180   4.314 -0.5671 -0.4927  0.2167
   36MOL   O141 6511   5.493   6.128   4.140  0.0572 -0.2155  0.0718
   36MOL   H142 6512   5.332   6.142   4.397 -0.8476 -0.0968  1.5521
   36MOL   H143 6513   5.400   6.265   4.495 -1.4998 -1.8799  0.8563
   36MOL   H144 6514   5.383   6.341   4.201 -0.2274  0.9614 -0.1086
   36MOL   H145 6515   5.548   6.055   4.120 -0.6485 -0.4272 -1.1485
   36MOL   C146 6516   5.494   6.432   4.346 -1.4608 -0.3810  0.3441
   36MOL   C147 6517   5.577   6.528   4.252 -0.3211  0.7853 -0.6908
   36MOL   C148 6518   5.716   6.466   4.219 -0.1530 -0.2292 -0.6747
   36MOL   O149 6519   5.760   6.465   4.102  0.3983  0.2439  0.0098
   36MOL   O150 6520   5.793   6.433   4.327  0.3625  0.2421  0.2067
   36MOL   H151 6521   5.561   6.410   4.430 -0.9753 -0.4332 -0.0511
   36MOL   H152 6522   5.412   6.486   4.393 -1.3015  0.3258 -0.1863
   36MOL   H153 6523   5.526   6.533   4.155  2.1446  0.3331 -2.0599
   36MOL   H154 6524   5.883   6.431   4.301  0.0680  2.3686 -1.1200
   36MOL   C155 6525   5.599   6.668   4.302  0.3645  1.1463 -0.6767
   36MOL   C156 6526   5.489   6.754   4.370 -0.3628 -0.2417 -0.3185
   36MOL   C157 6527   5.356   6.731   4.300 -1.0034  0.2643 -0.2930
   36MOL   O158 6528   5.344   6.733   4.178  0.3606 -0.2265 -0.3594
   36MOL   O159 6529   5.257   6.711   4.385 -0.3319 -0.6733 -0.3093
   36MOL   H160 6530   5.608   6.730   4.212  2.3974  0.1719 -1.1921
   36MOL   H161 6531   5.694   6.664   4.355  0.0483  0.4252 -0.1732
   36MOL   H162 6532   5.486   6.713   4.471  0.7506  0.1521 -0.1235
   36MOL   H163 6533   5.172   6.722   4.346 -0.2253  2.0188  0.0925
   36MOL   C164 6534   5.518   6.908   4.379  0.1890 -0.3508 -0.7066
   36MOL   C165 6535   5.463   6.998   4.500 -0.6579 -0.3171  0.7342
   36MOL   C166 6536   5.525   6.972   4.634 -0.4917 -0.6852 -0.3418
   36MOL   O167 6537   5.576   6.866   4.665 -0.2848 -0.4549  0.6459
   36MOL   O168 6538   5.504   7.080   4.717 -0.4775 -0.1989  0.5900
   36MOL   H169 6539   5.488   6.953   4.284  2.3080  1.3031 -0.6132
   36MOL   H170 6540   5.625   6.926   4.386 -0.1483  1.4686  0.2184
   36MOL   H171 6541   5.498   7.097   4.472 -0.5672 -0.4878  0.2421
   36MOL   H172 6542   5.458   7.152   4.676 -1.6213 -1.4419 -0.3508
   36MOL   C173 6543   5.305   7.001   4.514 -0.2906 -0.2661 -0.3752
   36MOL   C174 6544   5.230   7.066   4.406 -0.2535 -0.5483 -1.0098
   36MOL   C175 6545   5.244   7.216   4.418 -0.2123  0.9846  0.2761
   36MOL   O176 6546   5.315   7.279   4.498  0.6368 -0.2975  0.0131
   36MOL   O177 6547   5.175   7.277   4.319  0.0962 -0.6313 -0.1793
   36MOL   H178 6548   5.273   7.043   4.609  1.3388 -0.7848  0.4260
   36MOL   H179 6549   5.262   6.902   4.533  0.9477 -0.3491  2.2224
   36MOL   H180 6550   5.271   7.035   4.309 -0.5264  0.5661 -1.4954
   36MOL   H181 6551   5.195   7.370   4.322  0.2957 -0.7132  1.5040
   36MOL   H182 6552   5.123   7.047   4.404 -0.0053 -2.0767  0.0140
   37MOL     C1 6553   1.628   5.723   2.835  0.0628 -0.7677 -0.2745
   37MOL     C2 6554   1.480   5.696   2.790  1.0976 -0.3313  0.3431
   37MOL     C3 6555   1.426   5.813   2.707  0.1522  0.9638  0.1129
   37MOL     O4 6556   1.371   5.900   2.777  0.5204  0.6896  0.2540
   37MOL     O5 6557   1.458   5.815   2.575  0.1820 -0.2248 -0.0093
   37MOL     H6 6558   1.674   5.625   2.853  0.2246 -0.5311  0.5786
   37MOL     H7 6559   1.681   5.768   2.751 -0.7485 -1.7048 -1.3067
   37MOL     H8 6560   1.488   5.607   2.727  1.4655  0.1387 -0.2771
   37MOL     H9 6561   1.423   5.893   2.534  0.2601 -1.5127 -2.5982
   37MOL    H10 6562   1.632   5.791   2.920  0.1661 -0.0769 -0.8239
   37MOL    C11 6563   1.388   5.658   2.913  0.0548 -0.1163  0.1566
   37MOL    C12 6564   1.253   5.596   2.875 -0.4918  0.9271 -0.6263
   37MOL    C13 6565   1.131   5.667   2.934  0.2905  0.2110 -0.3849
   37MOL    O14 6566   1.071   5.621   3.032 -0.0378 -0.0003  0.0075
   37MOL    O15 6567   1.104   5.789   2.878 -0.3022  0.9309  0.4837
   37MOL    H16 6568   1.360   5.744   2.973 -1.4844  0.6615 -1.6466
   37MOL    H17 6569   1.451   5.591   2.973 -0.9973 -0.0538  1.3511
   37MOL    H18 6570   1.243   5.610   2.767 -0.3848  0.9241 -0.6367
   37MOL    H19 6571   1.161   5.805   2.804 -1.2981  0.2645 -0.4431
   37MOL    C20 6572   1.249   5.443   2.899  0.6007 -0.2277 -0.1938
   37MOL    C21 6573   1.373   5.351   2.874  0.2817  0.2047  0.5646
   37MOL    C22 6574   1.393   5.333   2.727 -0.0631  0.2337 -0.0091
   37MOL    O23 6575   1.304   5.335   2.644  0.4502  0.1968  1.0380
   37MOL    O24 6576   1.524   5.294   2.701  0.4324 -0.0532  0.1961
   37MOL    H25 6577   1.163   5.399   2.849 -0.1271  1.1647 -0.1810
   37MOL    H26 6578   1.223   5.426   3.003 -0.9350 -2.1761 -0.8642
   37MOL    H27 6579   1.458   5.400   2.921  1.8904 -1.0647 -0.9189
   37MOL    H28 6580   1.534   5.278   2.609  1.6521  0.7540  0.1755
   37MOL    C29 6581   1.364   5.210   2.937 -0.5442  0.3100 -0.9630
   37MOL    C30 6582   1.481   5.161   3.036  0.6089 -0.8963  0.1773
   37MOL    C31 6583   1.464   5.231   3.171 -0.7800  0.7955 -0.0154
   37MOL    O32 6584   1.466   5.165   3.273  0.7735 -0.3970 -0.2076
   37MOL    O33 6585   1.446   5.360   3.167  0.2448  0.1601  0.0668
   37MOL    H34 6586   1.356   5.139   2.854 -1.4141  0.2674 -0.8433
   37MOL    H35 6587   1.273   5.214   2.997 -1.3312  1.3229 -2.1978
   37MOL    H36 6588   1.462   5.055   3.052  0.0924 -0.6840  0.9810
   37MOL    H37 6589   1.466   5.411   3.243 -2.0051  0.7364  0.3211
   37MOL    C38 6590   1.620   5.161   2.980 -0.0480  0.1297  0.2065
   37MOL    C39 6591   1.735   5.112   3.070  0.1707 -0.7035  0.7088
   37MOL    C40 6592   1.830   5.233   3.093  0.4365 -0.2788  0.2063
   37MOL    O41 6593   1.876   5.310   3.004 -0.3832  0.5605 -0.0611
   37MOL    O42 6594   1.870   5.235   3.217  0.3335  0.4733  0.1230
   37MOL    H43 6595   1.627   5.266   2.951 -2.0193 -0.0218 -0.9208
   37MOL    H44 6596   1.622   5.106   2.886  1.2087  0.8888 -0.2150
   37MOL    H45 6597   1.693   5.080   3.165  0.3443 -3.7528 -0.2026
   37MOL    H46 6598   1.931   5.302   3.244 -2.0215  1.5382  3.2026
   37MOL    C47 6599   1.824   5.000   3.006  0.8232 -0.1406  0.6461
   37MOL    C48 6600   1.750   4.861   2.973 -0.0793  0.0297  0.6217
   37MOL    C49 6601   1.681   4.809   3.104  1.0136  0.0370  0.7611
   37MOL    O50 6602   1.739   4.762   3.200  0.4799 -0.0061 -0.8616
   37MOL    O51 6603   1.543   4.815   3.099 -0.3496 -0.0818 -0.2900
   37MOL    H52 6604   1.904   4.971   3.073  0.7758  2.0457  1.7053
   37MOL    H53 6605   1.880   5.037   2.920  2.3798 -2.1287  0.7675
   37MOL    H54 6606   1.671   4.874   2.900 -0.2399 -0.5293  0.7007
   37MOL    H55 6607   1.497   4.784   3.175 -2.1059  1.0472 -0.8605
   37MOL    C56 6608   1.849   4.748   2.926  0.3135 -0.0701  0.4195
   37MOL    C57 6609   1.785   4.603   2.905 -0.4513 -1.4958 -0.1904
   37MOL    C58 6610   1.898   4.498   2.894 -0.4719 -0.7216  1.0822
   37MOL    O59 6611   1.884   4.395   2.841  0.2937  0.0679 -0.3232
   37MOL    O60 6612   2.008   4.519   2.971  0.1307 -0.0178  0.0403
   37MOL    H61 6613   1.929   4.737   3.000 -0.9930  0.7812  1.9815
   37MOL    H62 6614   1.903   4.774   2.835  2.6668  2.1565  2.3641
   37MOL    H63 6615   1.735   4.577   2.998 -1.5585 -2.2687 -0.9832
   37MOL    H64 6616   2.068   4.447   2.962  0.1925  0.1879 -1.2534
   37MOL    C65 6617   1.686   4.592   2.786  0.2537  0.3385  0.2965
   37MOL    C66 6618   1.540   4.570   2.828  0.2998 -0.4461  0.5672
   37MOL    C67 6619   1.502   4.440   2.899 -0.4409 -0.4059 -1.0387
   37MOL    O68 6620   1.471   4.426   3.020  0.7512  0.4710 -0.0378
   37MOL    O69 6621   1.515   4.345   2.811  0.4654  0.2969  0.3291
   37MOL    H70 6622   1.705   4.510   2.718  0.9267  2.4095 -2.1000
   37MOL    H71 6623   1.699   4.676   2.717  0.3810  0.2044  0.1591
   37MOL    H72 6624   1.517   4.648   2.902  1.3040  1.4192 -1.0422
   37MOL    H73 6625   1.508   4.259   2.848 -0.7100  0.9127  1.5612
   37MOL    C74 6626   1.447   4.602   2.710  0.0173  0.1301 -0.7250
   37MOL    C75 6627   1.328   4.702   2.728 -0.4394 -0.4878 -0.5776
   37MOL    C76 6628   1.231   4.659   2.840 -0.2990  0.3322  0.2442
   37MOL    O77 6629   1.233   4.715   2.947 -0.3566 -0.9620  0.3056
   37MOL    O78 6630   1.149   4.560   2.806 -0.2530  0.1638 -0.1549
   37MOL    H79 6631   1.401   4.509   2.679  0.0863 -0.5030  0.9874
   37MOL    H80 6632   1.500   4.639   2.622 -0.4408  0.2000 -0.9708
   37MOL    H81 6633   1.375   4.795   2.758 -1.5147 -0.7585  2.0291
   37MOL    H82 6634   1.090   4.552   2.880  1.3726 -1.2809  1.0116
   37MOL    C83 6635   1.244   4.719   2.589 -0.1661 -0.6796 -0.9084
   37MOL    C84 6636   1.182   4.860   2.564 -0.3833  0.0581 -0.8711
   37MOL    C85 6637   1.274   4.982   2.547  0.3327  0.7694 -0.3418
   37MOL    O86 6638   1.387   4.981   2.592 -0.0110 -0.3751  1.2844
   37MOL    O87 6639   1.208   5.084   2.477  0.3520  0.5650  0.2325
   37MOL    H88 6640   1.171   4.639   2.578  0.9513 -1.6676 -1.2333
   37MOL    H89 6641   1.316   4.708   2.508  0.8244  0.8160 -0.2684
   37MOL    H90 6642   1.128   4.859   2.469 -0.7633 -1.5123 -0.6396
   37MOL    H91 6643   1.265   5.159   2.471 -0.9458  1.4364 -1.5770
   37MOL    C92 6644   1.063   4.898   2.658  0.3650 -0.0593 -0.4509
   37MOL    C93 6645   0.935   4.805   2.657 -0.0095 -0.6068  0.5133
   37MOL    C94 6646   0.841   4.839   2.541 -0.0080 -0.8510 -1.1259
   37MOL    O95 6647   0.781   4.950   2.539  0.1565  0.5661  0.2881
   37MOL    O96 6648   0.810   4.729   2.462  0.1589 -0.0799  0.0810
   37MOL    H97 6649   1.012   4.993   2.640 -0.3551 -0.7962 -2.4167
   37MOL    H98 6650   1.106   4.918   2.756  1.0671 -0.5661 -0.6479
   37MOL    H99 6651   0.975   4.704   2.663  2.6820  0.3298 -0.9396
   37MOL   H100 6652   0.746   4.761   2.401  0.3128  2.9121  1.3974
   37MOL   C101 6653   0.865   4.812   2.791  0.7443 -0.5460 -0.3358
   37MOL   C102 6654   0.720   4.778   2.813  1.3877  0.5811  0.1746
   37MOL   C103 6655   0.677   4.836   2.949 -0.3111  0.4197  0.1153
   37MOL   O104 6656   0.696   4.783   3.061 -0.1244  0.4972  0.4809
   37MOL   O105 6657   0.612   4.945   2.927  0.1587  0.5017 -0.0793
   37MOL   H106 6658   0.880   4.918   2.810  3.3588 -1.2128  1.7175
   37MOL   H107 6659   0.934   4.771   2.865  1.2928  1.7585  0.4731
   37MOL   H108 6660   0.657   4.824   2.737 -1.6298 -1.2781  1.4524
   37MOL   H109 6661   0.581   4.972   3.012  1.8058  0.2615  0.6000
   37MOL   C110 6662   0.702   4.620   2.801 -0.0097 -1.0418  0.5522
   37MOL   C111 6663   0.562   4.561   2.800 -0.4426 -0.1817 -0.9201
   37MOL   C112 6664   0.499   4.547   2.940 -1.1383 -0.7762 -0.6509
   37MOL   O113 6665   0.539   4.478   3.031  0.0846 -0.2056  0.5434
   37MOL   O114 6666   0.379   4.619   2.951  0.1279 -0.2355 -0.2276
   37MOL   H115 6667   0.766   4.564   2.869  1.1870 -0.5319 -0.1473
   37MOL   H116 6668   0.748   4.584   2.709 -0.8609  1.6791 -0.9967
   37MOL   H117 6669   0.496   4.625   2.742  1.8353  0.0857 -3.3314
   37MOL   H118 6670   0.344   4.602   3.037 -0.2749  0.6585 -0.2048
   37MOL   C119 6671   0.554   4.430   2.729  0.0098 -0.1004  0.2122
   37MOL   C120 6672   0.425   4.347   2.713  0.3607 -0.1338 -0.2190
   37MOL   C121 6673   0.457   4.200   2.673  0.2794  0.3365 -0.1113
   37MOL   O122 6674   0.410   4.143   2.573 -0.3878  0.8617 -0.4769
   37MOL   O123 6675   0.538   4.142   2.767  0.1381 -0.5595 -0.0217
   37MOL   H124 6676   0.638   4.371   2.767 -0.2782 -0.7192 -0.1113
   37MOL   H125 6677   0.579   4.451   2.625 -3.9150 -0.3136 -0.8483
   37MOL   H126 6678   0.374   4.343   2.810 -2.5847 -1.7135 -1.7442
   37MOL   H127 6679   0.554   4.061   2.720  0.1679  0.4432 -1.7783
   37MOL   C128 6680   0.322   4.401   2.613 -0.1022  0.1692  0.6044
   37MOL   C129 6681   0.174   4.356   2.634 -0.6224 -0.1936  0.3158
   37MOL   C130 6682   0.096   4.392   2.505 -0.1298  0.3550 -0.1474
   37MOL   O131 6683   0.044   4.502   2.482 -0.2691  0.8051  0.6281
   37MOL   O132 6684   0.107   4.293   2.407 -0.8683  0.3144 -0.2200
   37MOL   H133 6685   0.355   4.370   2.514 -0.5148  2.6812 -0.3621
   37MOL   H134 6686   0.327   4.510   2.606  0.9141  0.0768 -0.3946
   37MOL   H135 6687   0.176   4.247   2.629  2.7836 -0.1944  0.4081
   37MOL   H136 6688   0.122   4.210   2.449 -1.5539  1.3566  2.1976
   37MOL   C137 6689   0.097   4.404   2.764  0.1069  0.2241 -0.3224
   37MOL   C138 6690   0.063   4.295   2.870  0.1227 -0.0462  0.2670
   37MOL   C139 6691   7.797   4.207   2.817  0.9816 -0.3670  0.6759
   37MOL   O140 6692   7.738   4.224   2.709 -0.4759 -0.2080 -0.2984
   37MOL   O141 6693   7.768   4.116   2.913  0.2878  0.0806 -0.2775
   37MOL   H142 6694   0.021   4.478   2.741 -1.0947 -1.5757 -2.2963
   37MOL   H143 6695   0.170   4.469   2.812  1.9322 -1.1037 -1.2337
   37MOL   H144 6696   0.148   4.227   2.881 -0.0400 -0.2231  0.4467
   37MOL   H145 6697   7.681   4.084   2.896  0.2039  1.0757 -1.8137
   37MOL   C146 6698   0.041   4.344   3.016 -0.0974  0.0013 -0.3784
   37MOL   C147 6699   7.755   4.397   3.060 -0.7091  0.4928  0.1856
   37MOL   C148 6700   7.723   4.519   2.976  0.3158 -0.4598 -0.8110
   37MOL   O149 6701   7.785   4.631   2.985 -0.4461 -0.3468 -0.1758
   37MOL   O150 6702   7.620   4.494   2.888 -0.4478 -0.2057  0.3430
   37MOL   H151 6703   0.115   4.415   3.052  1.0333 -2.0769  1.6017
   37MOL   H152 6704   0.079   4.255   3.066  1.8452  1.2669  0.4411
   37MOL   H153 6705   7.668   4.334   3.041 -0.5274  0.4665 -0.5672
   37MOL   H154 6706   7.609   4.575   2.840 -1.3571  0.2058  1.2283
   37MOL   C155 6707   7.740   4.442   3.208 -0.3207  0.3881 -0.5649
   37MOL   C156 6708   7.775   4.339   3.316 -0.2078  0.1730 -0.7551
   37MOL   C157 6709   7.678   4.220   3.327  0.7921 -0.0451  0.2553
   37MOL   O158 6710   7.573   4.223   3.387 -0.8344 -0.0234 -0.2656
   37MOL   O159 6711   7.710   4.113   3.249  0.1684  0.4129  0.4534
   37MOL   H160 6712   7.639   4.479   3.228  0.6124  1.0883  3.3261
   37MOL   H161 6713   7.795   4.536   3.217 -0.0268  0.1406  0.3554
   37MOL   H162 6714   0.024   4.307   3.296  0.2761  1.5711 -0.6096
   37MOL   H163 6715   7.634   4.062   3.228 -1.3685  2.4321  0.9646
   37MOL   C164 6716   7.772   4.417   3.451  0.0294  0.0143 -0.2194
   37MOL   C165 6717   7.828   4.326   3.567  0.6323  0.0770 -0.8289
   37MOL   C166 6718   7.743   4.347   3.703  0.4846 -0.1818 -0.1194
   37MOL   O167 6719   7.769   4.431   3.796 -0.2882  0.0639 -0.1889
   37MOL   O168 6720   7.635   4.268   3.700  0.2331 -0.3027 -0.0221
   37MOL   H169 6721   7.672   4.456   3.468  0.3661  0.5076  0.6362
   37MOL   H170 6722   7.836   4.504   3.441 -0.5243  0.6630  1.7616
   37MOL   H171 6723   7.825   4.218   3.550  0.9229 -0.2359  0.9987
   37MOL   H172 6724   7.591   4.260   3.783  2.3393  0.7425  1.2130
   37MOL   C173 6725   0.124   4.358   3.598  0.3426 -0.0839  0.6525
   37MOL   C174 6726   0.222   4.285   3.499  0.2388  0.6752 -0.6831
   37MOL   C175 6727   0.364   4.291   3.548 -0.9492 -0.4449 -0.4814
   37MOL   O176 6728   0.392   4.332   3.663  0.0108 -0.4482  0.6026
   37MOL   O177 6729   0.444   4.253   3.445 -0.8846  0.3975  0.6841
   37MOL   H178 6730   0.152   4.319   3.696 -0.6148 -2.4456  0.0181
   37MOL   H179 6731   0.150   4.464   3.603  1.2878 -0.2409 -0.5883
   37MOL   H180 6732   0.200   4.179   3.489  1.1738  0.3615  0.4233
   37MOL   H181 6733   0.535   4.248   3.472 -0.6347 -3.0901 -0.5790
   37MOL   H182 6734   0.204   4.327   3.400  0.4031 -0.4096 -1.1762
   38MOL     C1 6735   0.249   1.308   3.740 -0.3342 -0.0557 -0.0430
   38MOL     C2 6736   0.170   1.300   3.606 -1.0034  0.4242  0.0667
   38MOL     C3 6737   0.267   1.275   3.487  0.2023 -0.1609  0.7037
   38MOL     O4 6738   0.244   1.196   3.399 -0.7258  1.0272  0.4152
   38MOL     O5 6739   0.376   1.356   3.496  0.3945  0.2724  0.4366
   38MOL     H6 6740   0.346   1.259   3.729 -1.2516 -1.6134 -1.3247
   38MOL     H7 6741   0.270   1.411   3.768 -1.0326 -0.3017  1.4464
   38MOL     H8 6742   0.100   1.216   3.609 -0.4185 -0.0671 -0.0278
   38MOL     H9 6743   0.440   1.346   3.427 -1.2535  1.7574 -1.3611
   38MOL    H10 6744   0.199   1.262   3.825  0.6611 -1.0667  0.0224
   38MOL    C11 6745   0.087   1.430   3.585  0.3644 -0.5689 -0.0460
   38MOL    C12 6746   7.828   1.394   3.476  0.0955  0.2616  0.3398
   38MOL    C13 6747   7.787   1.527   3.417  0.4683  0.5080  0.3097
   38MOL    O14 6748   7.661   1.557   3.409 -0.3857  0.4083  0.7326
   38MOL    O15 6749   0.037   1.600   3.366  0.0126 -0.0886 -0.1324
   38MOL    H16 6750   0.148   1.518   3.562 -0.8511  0.3774  0.2468
   38MOL    H17 6751   0.050   1.455   3.684  1.7812 -1.2710  0.6669
   38MOL    H18 6752   0.026   1.348   3.392  1.6966  0.2585  1.2951
   38MOL    H19 6753   7.851   1.664   3.309 -0.9288  0.2450  0.8710
   38MOL    C20 6754   7.716   1.302   3.519 -0.8570  0.0624  0.2737
   38MOL    C21 6755   7.692   1.184   3.426  0.1235 -0.3497  0.1363
   38MOL    C22 6756   7.654   1.217   3.281  0.4958 -1.1282 -0.3165
   38MOL    O23 6757   7.743   1.234   3.195  0.4692  0.0988  0.4490
   38MOL    O24 6758   7.520   1.230   3.255  0.2425 -0.1823  0.6785
   38MOL    H25 6759   7.624   1.362   3.525 -1.5293 -1.0575  1.4637
   38MOL    H26 6760   7.746   1.277   3.621 -1.6844  2.7374  1.2312
   38MOL    H27 6761   7.794   1.146   3.419  0.8954  1.9047 -1.6219
   38MOL    H28 6762   7.506   1.243   3.162  1.4274  2.7847  0.8451
   38MOL    C29 6763   7.602   1.076   3.490 -0.7780  0.2286 -0.3809
   38MOL    C30 6764   7.655   0.935   3.500 -0.2000 -0.7712  0.2880
   38MOL    C31 6765   7.749   0.916   3.622 -0.2821  0.0824 -0.2232
   38MOL    O32 6766   7.781   1.009   3.699 -0.4618 -0.0573 -0.3154
   38MOL    O33 6767   7.788   0.788   3.629  0.1200 -0.1816  0.0296
   38MOL    H34 6768   7.505   1.074   3.439 -1.3988 -1.6480  0.8178
   38MOL    H35 6769   7.571   1.096   3.593  1.4600  2.3857 -0.0826
   38MOL    H36 6770   7.563   0.893   3.541  0.8238 -0.8594  2.5622
   38MOL    H37 6771   7.848   0.788   3.702 -0.2758  0.2318  0.3577
   38MOL    C38 6772   7.702   0.872   3.366  0.1602  0.5349  0.2131
   38MOL    C39 6773   7.626   0.740   3.338  0.0493 -0.5273 -0.6576
   38MOL    C40 6774   7.687   0.612   3.399  0.3881  0.1766  0.6527
   38MOL    O41 6775   7.807   0.597   3.424  0.8353 -0.2118  0.4484
   38MOL    O42 6776   7.588   0.517   3.409  0.0326  0.2724  0.2090
   38MOL    H43 6777   7.809   0.856   3.353  0.2783 -0.8532  2.6354
   38MOL    H44 6778   7.679   0.942   3.286 -1.7645 -0.5944 -0.2817
   38MOL    H45 6779   7.532   0.748   3.393  0.8209  2.4922  0.3564
   38MOL    H46 6780   7.602   0.440   3.461  1.3631  0.6234  0.3721
   38MOL    C47 6781   7.611   0.717   3.180  0.1335  0.3112 -0.1585
   38MOL    C48 6782   7.743   0.710   3.102  0.1281  0.2171 -1.0760
   38MOL    C49 6783   7.775   0.840   3.025 -0.1333 -0.0077  0.3963
   38MOL    O50 6784   7.704   0.909   2.957  0.0603  0.1361 -0.1777
   38MOL    O51 6785   0.056   0.860   3.032  1.0010  0.2208 -0.5024
   38MOL    H52 6786   7.540   0.790   3.141  0.2313  1.7017  2.1831
   38MOL    H53 6787   7.559   0.621   3.170  1.7112 -0.5952  0.1396
   38MOL    H54 6788   7.825   0.699   3.173 -1.1247  3.2055  0.9446
   38MOL    H55 6789   0.079   0.914   2.958 -2.4905  0.2024 -1.7012
   38MOL    C56 6790   7.756   0.592   3.001 -0.3667 -0.5896 -0.1076
   38MOL    C57 6791   0.035   0.560   2.926  0.4331 -0.3758 -0.2537
   38MOL    C58 6792   0.011   0.494   2.793 -0.2246 -0.6365 -0.6920
   38MOL    O59 6793   7.840   0.563   2.690  0.6317 -0.4229  0.1546
   38MOL    O60 6794   0.021   0.363   2.789 -0.7029  0.2620  0.0144
   38MOL    H61 6795   7.687   0.618   2.921 -0.2962  1.4621  0.4633
   38MOL    H62 6796   7.713   0.509   3.057  1.3737 -0.5749  1.2775
   38MOL    H63 6797   0.088   0.655   2.913 -0.3731  0.0842 -0.1891
   38MOL    H64 6798   0.047   0.329   2.704  0.3485  1.5056 -0.1762
   38MOL    C65 6799   0.118   0.460   3.018  0.7818 -0.2488 -0.1793
   38MOL    C66 6800   0.261   0.440   2.973  0.3250 -0.0068 -0.5084
   38MOL    C67 6801   0.281   0.296   2.930 -0.6848  0.9817  0.1838
   38MOL    O68 6802   0.298   0.206   3.011  0.0024 -0.1615 -0.3570
   38MOL    O69 6803   0.305   0.281   2.796 -0.4755  0.1447  0.8438
   38MOL    H70 6804   0.058   0.369   3.014 -1.6630  1.3651 -1.4450
   38MOL    H71 6805   0.105   0.483   3.123 -0.9413 -0.8868 -0.2370
   38MOL    H72 6806   0.278   0.498   2.882  1.4376  2.3682  1.1900
   38MOL    H73 6807   0.326   0.191   2.776 -0.2002  0.0526  1.5431
   38MOL    C74 6808   0.355   0.486   3.082 -0.4352 -0.3542 -0.1822
   38MOL    C75 6809   0.369   0.642   3.093 -0.3463  0.2443  0.5204
   38MOL    C76 6810   0.446   0.708   2.976  0.1485 -0.0600 -0.2341
   38MOL    O77 6811   0.495   0.647   2.879 -0.1380 -0.2748 -0.5388
   38MOL    O78 6812   0.445   0.846   2.979 -0.0910 -0.3918 -0.2728
   38MOL    H79 6813   0.455   0.448   3.062 -0.3802  0.6771 -1.9903
   38MOL    H80 6814   0.330   0.438   3.176  0.3818  0.8889  0.6745
   38MOL    H81 6815   0.272   0.691   3.090 -0.7290 -0.5970 -1.6803
   38MOL    H82 6816   0.407   0.879   3.059 -0.5335  1.8643 -1.3671
   38MOL    C83 6817   0.442   0.681   3.224 -0.4392  0.2565  0.4554
   38MOL    C84 6818   0.345   0.726   3.343  0.0796  0.1197  0.1580
   38MOL    C85 6819   0.287   0.864   3.317 -0.5505 -1.1060 -0.2307
   38MOL    O86 6820   0.321   0.937   3.223 -0.0769  0.2316  0.0128
   38MOL    O87 6821   0.214   0.916   3.419  0.3743  0.1519  0.2283
   38MOL    H88 6822   0.511   0.763   3.206 -0.0361 -0.0133  0.7618
   38MOL    H89 6823   0.505   0.597   3.252  0.0479  0.1939 -0.8139
   38MOL    H90 6824   0.265   0.652   3.344  0.0764  0.1228  0.7716
   38MOL    H91 6825   0.198   1.009   3.413 -2.1601 -0.1670  1.2073
   38MOL    C92 6826   0.418   0.710   3.479 -0.1103  0.3562 -0.1728
   38MOL    C93 6827   0.343   0.642   3.598 -0.5662  0.3130  0.5742
   38MOL    C94 6828   0.396   0.707   3.726  0.5461  0.1353 -0.9263
   38MOL    O95 6829   0.340   0.803   3.781 -0.3019  0.0656  0.2360
   38MOL    O96 6830   0.518   0.658   3.771  0.7646  0.2682  0.4316
   38MOL    H97 6831   0.452   0.811   3.504  3.2158 -0.0437 -2.7348
   38MOL    H98 6832   0.514   0.659   3.476  0.0763  0.5716  1.3047
   38MOL    H99 6833   0.237   0.666   3.590 -1.1917 -2.0209  1.1435
   38MOL   H100 6834   0.536   0.720   3.840 -2.1241  1.4360  0.1787
   38MOL   C101 6835   0.351   0.483   3.591  0.3054  0.3019  0.0255
   38MOL   C102 6836   0.206   0.422   3.563 -0.2147  0.4973  0.4436
   38MOL   C103 6837   0.118   0.438   3.686  0.4310  0.2002 -0.1862
   38MOL   O104 6838   0.155   0.412   3.802 -0.7419  0.0581  0.1556
   38MOL   O105 6839   7.850   0.491   3.667  0.5572 -0.3207 -0.4588
   38MOL   H106 6840   0.383   0.442   3.686  0.7810 -1.6191 -0.9439
   38MOL   H107 6841   0.424   0.460   3.513 -0.3394 -1.0436 -0.1901
   38MOL   H108 6842   0.167   0.462   3.470  0.7742  0.9430  0.2103
   38MOL   H109 6843   7.842   0.526   3.580 -3.6354  1.9257  0.6606
   38MOL   C110 6844   0.226   0.269   3.535  0.0853  0.3305  0.0358
   38MOL   C111 6845   0.173   0.222   3.394  0.2863  0.2877 -0.1272
   38MOL   C112 6846   0.020   0.240   3.374 -0.2910  0.0949 -0.1774
   38MOL   O113 6847   7.794   0.286   3.462  0.1255 -0.2269  0.1959
   38MOL   O114 6848   7.851   0.227   3.244 -0.6338 -0.5040  0.6104
   38MOL   H115 6849   0.181   0.211   3.616 -1.3163  1.6368  0.2150
   38MOL   H116 6850   0.333   0.249   3.536 -0.1066 -0.9845 -1.4607
   38MOL   H117 6851   0.214   0.303   3.334  0.6265  0.5115  0.4052
   38MOL   H118 6852   7.761   0.247   3.226 -1.1120 -2.3608  0.8750
   38MOL   C119 6853   0.229   0.085   3.348 -0.3590  0.7523  0.2876
   38MOL   C120 6854   0.168   7.808   3.412 -0.4302  0.2210  0.1309
   38MOL   C121 6855   0.181   7.812   3.562 -0.5366  0.6281 -0.0198
   38MOL   O122 6856   0.083   7.836   3.638 -0.5268 -0.0986 -0.6806
   38MOL   O123 6857   0.305   7.802   3.616 -0.1277 -0.3342 -0.2418
   38MOL   H124 6858   0.338   0.080   3.342 -0.4865 -2.3002 -0.3775
   38MOL   H125 6859   0.206   0.089   3.241  1.9115  1.1222 -0.2116
   38MOL   H126 6860   0.062   7.818   3.389  0.1730  1.9619 -2.1654
   38MOL   H127 6861   0.298   7.797   3.710 -0.4423  0.4707 -0.2204
   38MOL   C128 6862   0.212   7.672   3.344  0.8762 -0.0327  0.6543
   38MOL   C129 6863   0.195   7.670   3.188  0.0002 -0.1109 -0.0822
   38MOL   C130 6864   0.052   7.702   3.147 -0.6177  0.1240 -0.4752
   38MOL   O131 6865   7.808   7.683   3.219  0.0811  0.4729  0.1478
   38MOL   O132 6866   0.045   7.751   3.020 -0.0994  0.2274 -0.0079
   38MOL   H133 6867   0.170   7.581   3.386 -2.2379 -0.3285 -2.8259
   38MOL   H134 6868   0.317   7.666   3.372  0.3166 -1.0496  2.5803
   38MOL   H135 6869   0.267   7.743   3.152  1.3105 -2.6632 -2.8967
   38MOL   H136 6870   7.805   7.751   3.002 -0.4030 -3.1607  1.2430
   38MOL   C137 6871   0.249   7.542   3.125 -0.3134 -0.1143  0.2271
   38MOL   C138 6872   0.391   7.494   3.159  0.0090 -0.0380  0.5100
   38MOL   C139 6873   0.489   7.597   3.105 -0.4649  0.1321  0.6144
   38MOL   O140 6874   0.464   7.654   3.002  0.3276 -0.5838  0.3880
   38MOL   O141 6875   0.611   7.606   3.179  0.3794 -0.3558 -0.0425
   38MOL   H142 6876   0.228   7.553   3.019  0.3712 -1.6911 -0.0843
   38MOL   H143 6877   0.186   7.456   3.148 -0.2111 -0.5007 -0.8902
   38MOL   H144 6878   0.402   7.481   3.267 -3.3164  0.1529  0.9499
   38MOL   H145 6879   0.672   7.657   3.129 -0.3782  0.0257 -0.6007
   38MOL   C146 6880   0.425   7.355   3.104 -1.3310 -0.4229 -0.1842
   38MOL   C147 6881   0.567   7.301   3.133 -0.3211 -0.7440  0.0369
   38MOL   C148 6882   0.662   7.330   3.016  0.1193 -0.4730 -0.6338
   38MOL   O149 6883   0.624   7.342   2.900  0.2270 -0.0175  0.2224
   38MOL   O150 6884   0.781   7.368   3.063 -0.6860 -0.1875 -0.5730
   38MOL   H151 6885   0.392   7.342   3.001 -3.2080 -1.2664  0.4910
   38MOL   H152 6886   0.352   7.294   3.157 -1.8860  0.2433 -0.1760
   38MOL   H153 6887   0.598   7.351   3.225 -2.7797 -0.3196  0.6461
   38MOL   H154 6888   0.843   7.401   3.000 -0.3085  0.5902  0.2020
   38MOL   C155 6889   0.554   7.148   3.160  0.2504  0.3740  0.0555
   38MOL   C156 6890   0.636   7.084   3.276  0.0386  0.1298 -0.6790
   38MOL   C157 6891   0.612   7.156   3.417  0.2624 -0.1735 -0.9051
   38MOL   O158 6892   0.665   7.255   3.458  0.1773  0.1598  0.2537
   38MOL   O159 6893   0.544   7.068   3.490  0.6230 -0.0727 -0.4197
   38MOL   H160 6894   0.571   7.087   3.071  1.0002 -0.6370  0.8833
   38MOL   H161 6895   0.451   7.125   3.189  0.9156 -1.9317  0.6721
   38MOL   H162 6896   0.596   6.986   3.302  0.2226  0.1035 -0.4941
   38MOL   H163 6897   0.552   7.093   3.580 -0.5438 -0.5491 -0.1761
   38MOL   C164 6898   0.790   7.081   3.242  0.2682 -0.4282  0.5160
   38MOL   C165 6899   0.875   7.007   3.345 -0.1767  0.2648 -0.3041
   38MOL   C166 6900   1.024   7.024   3.318 -0.3260 -0.2849 -0.6844
   38MOL   O167 6901   1.067   7.085   3.217  0.3156  0.0528  0.7793
   38MOL   O168 6902   1.099   6.976   3.424 -0.5743 -0.1072  0.3757
   38MOL   H169 6903   0.825   7.184   3.240 -2.2519  0.4359  0.3849
   38MOL   H170 6904   0.812   7.046   3.141  3.3404 -1.1998  1.3771
   38MOL   H171 6905   0.866   7.070   3.434  1.2849  0.9215 -0.6144
   38MOL   H172 6906   1.185   7.012   3.407  0.5739 -2.8935  0.0670
   38MOL   C173 6907   0.837   6.865   3.385  0.1740  0.0597 -0.3425
   38MOL   C174 6908   0.872   6.760   3.284  0.5459  0.0962  0.3642
   38MOL   C175 6909   0.763   6.737   3.179 -0.1327  0.2973  0.0974
   38MOL   O176 6910   0.641   6.748   3.209 -0.1075 -0.1474  0.5571
   38MOL   O177 6911   0.817   6.712   3.055 -0.8999 -0.7924  0.2850
   38MOL   H178 6912   0.737   6.866   3.429  0.2397 -0.7272 -0.1625
   38MOL   H179 6913   0.888   6.829   3.475 -0.5799 -0.5181 -0.1413
   38MOL   H180 6914   0.959   6.795   3.227 -0.3104 -0.5828 -1.4228
   38MOL   H181 6915   0.758   6.729   2.983 -0.5923  1.4484  0.5326
   38MOL   H182 6916   0.909   6.671   3.336 -0.9362 -0.7155  0.0631
   39MOL     C1 6917   5.016   2.189   4.518 -0.1796  0.4633  0.1866
   39MOL     C2 6918   4.925   2.107   4.612 -0.1967 -0.1621  0.8278
   39MOL     C3 6919   5.009   2.001   4.684  0.7965  0.1475  0.3777
   39MOL     O4 6920   5.129   1.978   4.666  0.0288 -0.8967 -0.3912
   39MOL     O5 6921   4.932   1.919   4.764 -0.4013  0.0083  0.5528
   39MOL     H6 6922   5.102   2.241   4.560  0.5434  0.2633 -1.0387
   39MOL     H7 6923   5.059   2.126   4.441 -1.0129  0.6702 -0.4588
   39MOL     H8 6924   4.895   2.186   4.682 -4.1624  1.2215 -2.2435
   39MOL     H9 6925   4.991   1.861   4.811 -0.3434 -1.3696 -1.1499
   39MOL    H10 6926   4.976   2.270   4.456 -1.8258  0.8687  1.7430
   39MOL    C11 6927   4.795   2.061   4.555  0.2445 -0.0419  0.3848
   39MOL    C12 6928   4.703   2.168   4.494 -0.5212 -0.4112 -0.0083
   39MOL    C13 6929   4.665   2.285   4.594 -0.2010 -0.0037  0.0863
   39MOL    O14 6930   4.558   2.287   4.653 -0.6678  0.4552  0.1872
   39MOL    O15 6931   4.771   2.369   4.612 -0.7006  0.5154 -0.6088
   39MOL    H16 6932   4.738   1.999   4.625 -1.6829  1.1197 -0.1145
   39MOL    H17 6933   4.811   1.982   4.482  2.9315 -1.9591  2.8910
   39MOL    H18 6934   4.763   2.211   4.414 -1.3095  0.1429 -0.2999
   39MOL    H19 6935   4.748   2.445   4.663  0.8173 -0.2648  1.3309
   39MOL    C20 6936   4.580   2.099   4.436  0.5498  0.8246  0.1140
   39MOL    C21 6937   4.498   2.195   4.341 -0.6392  0.1935 -0.1373
   39MOL    C22 6938   4.362   2.133   4.304  0.8641 -0.4731 -0.1804
   39MOL    O23 6939   4.261   2.153   4.373  0.1961  0.1120 -0.1210
   39MOL    O24 6940   4.365   2.051   4.189  0.3423 -0.0333 -0.2241
   39MOL    H25 6941   4.523   2.066   4.522  1.2071 -0.2581  0.1459
   39MOL    H26 6942   4.611   2.011   4.378 -0.7213  1.1434 -1.0676
   39MOL    H27 6943   4.478   2.277   4.410  0.3832  1.2030 -1.0254
   39MOL    H28 6944   4.278   2.019   4.170  0.5379 -1.3309  0.9618
   39MOL    C29 6945   4.571   2.239   4.215  0.1550 -0.2537 -0.2707
   39MOL    C30 6946   4.501   2.314   4.102 -0.4761  0.0477 -0.3687
   39MOL    C31 6947   4.600   2.318   3.982 -0.0888  0.6677  0.2812
   39MOL    O32 6948   4.578   2.262   3.875 -0.6112 -0.0568  0.4143
   39MOL    O33 6949   4.714   2.377   4.016  0.9507  0.1863 -0.3695
   39MOL    H34 6950   4.633   2.159   4.174 -0.1195 -0.7243  0.2313
   39MOL    H35 6951   4.643   2.313   4.252 -0.3084  0.3747 -0.6313
   39MOL    H36 6952   4.413   2.255   4.075 -0.3820 -2.0663  3.6351
   39MOL    H37 6953   4.772   2.376   3.941  1.5854 -3.2376  0.0706
   39MOL    C38 6954   4.459   2.453   4.140  0.4865  0.3565  0.3092
   39MOL    C39 6955   4.318   2.497   4.090  0.3266  0.0444  0.1410
   39MOL    C40 6956   4.305   2.650   4.110  0.1148  0.1079  0.6405
   39MOL    O41 6957   4.230   2.701   4.193 -0.7462 -0.1305  0.6173
   39MOL    O42 6958   4.363   2.730   4.014  0.3471 -0.0294  0.2423
   39MOL    H43 6959   4.537   2.528   4.122 -0.3038  0.4963 -2.9493
   39MOL    H44 6960   4.450   2.461   4.248  0.1339  0.7615  0.2523
   39MOL    H45 6961   4.308   2.485   3.983  0.5817  1.2854 -0.0395
   39MOL    H46 6962   4.331   2.818   4.025 -1.4244 -0.1331 -3.1793
   39MOL    C47 6963   4.204   2.420   4.160  0.1695 -0.0179 -0.4491
   39MOL    C48 6964   4.055   2.445   4.115 -0.4286  0.0156  0.4699
   39MOL    C49 6965   3.953   2.466   4.232  0.2780  0.2377  0.3517
   39MOL    O50 6966   3.901   2.576   4.253 -0.6551  0.4285 -0.1783
   39MOL    O51 6967   3.941   2.360   4.320 -0.1773  0.3309  0.3554
   39MOL    H52 6968   4.207   2.445   4.266 -0.6731  3.8262 -1.2514
   39MOL    H53 6969   4.218   2.314   4.144  0.2470  0.0930 -1.1042
   39MOL    H54 6970   4.053   2.539   4.059 -1.0026 -0.8553 -0.9986
   39MOL    H55 6971   3.876   2.381   4.386 -2.3276  1.9347 -2.1980
   39MOL    C56 6972   3.996   2.332   4.021 -0.0331 -0.1295  0.4021
   39MOL    C57 6973   4.079   2.309   3.892 -0.5217 -0.8037 -0.0824
   39MOL    C58 6974   4.067   2.422   3.789 -0.2403  0.5749  0.1892
   39MOL    O59 6975   4.007   2.527   3.807  0.3773 -0.7935 -0.1429
   39MOL    O60 6976   4.148   2.398   3.688 -0.0338 -0.2852  0.5365
   39MOL    H61 6977   3.888   2.345   4.010 -0.1889 -1.1626  0.6614
   39MOL    H62 6978   4.002   2.241   4.080 -0.3853 -0.5037 -0.1357
   39MOL    H63 6979   4.186   2.309   3.915 -0.4463 -1.1374 -0.4177
   39MOL    H64 6980   4.140   2.464   3.621  1.7172 -0.5334  0.0339
   39MOL    C65 6981   4.049   2.173   3.835  0.3435 -0.0234 -0.1997
   39MOL    C66 6982   4.113   2.053   3.911 -0.1020  0.2194 -0.4569
   39MOL    C67 6983   4.239   2.001   3.837 -0.0814  0.0874 -0.0466
   39MOL    O68 6984   4.232   1.900   3.766  0.8327  0.2603  0.6645
   39MOL    O69 6985   4.358   2.071   3.867 -0.2748 -0.2273  0.6392
   39MOL    H70 6986   4.070   2.167   3.729  0.3850  0.3955 -0.2151
   39MOL    H71 6987   3.942   2.152   3.839  0.0129  0.9433 -3.2653
   39MOL    H72 6988   4.163   2.079   4.005  1.1719  1.0929 -1.3706
   39MOL    H73 6989   4.436   2.036   3.826 -0.0090 -2.3890  2.8251
   39MOL    C74 6990   4.022   1.934   3.951  0.5237  0.2228 -0.0786
   39MOL    C75 6991   3.915   1.960   4.066  0.2068  0.0976  0.1001
   39MOL    C76 6992   3.978   1.997   4.198 -0.2339 -0.1230  0.5690
   39MOL    O77 6993   4.089   1.967   4.229  0.2132 -0.0241  0.6687
   39MOL    O78 6994   3.896   2.077   4.277 -0.0460  0.1260 -0.2037
   39MOL    H79 6995   4.078   1.843   3.974 -0.5398 -0.5664 -0.6077
   39MOL    H80 6996   3.975   1.891   3.862  0.4595 -1.4913  0.7531
   39MOL    H81 6997   3.848   2.042   4.040  0.0040 -0.4129 -0.9927
   39MOL    H82 6998   3.940   2.086   4.359 -0.9343 -1.6798  0.5018
   39MOL    C83 6999   3.817   1.837   4.083 -0.3149  0.4453 -0.1143
   39MOL    C84 7000   3.678   1.868   4.143 -0.0264 -0.7797  0.8152
   39MOL    C85 7001   3.648   1.864   4.289 -0.5031  0.6495  0.1489
   39MOL    O86 7002   3.732   1.829   4.371  0.4385  0.4146  0.2209
   39MOL    O87 7003   3.523   1.911   4.317  0.1019 -0.3219 -0.7370
   39MOL    H88 7004   3.867   1.762   4.144 -1.0191  0.2765  0.2733
   39MOL    H89 7005   3.815   1.782   3.989 -2.0056 -1.2713  0.9000
   39MOL    H90 7006   3.675   1.977   4.134  0.7228 -0.8288 -0.0176
   39MOL    H91 7007   3.511   1.920   4.410  0.5587  0.0875 -0.7173
   39MOL    C92 7008   3.557   1.824   4.057 -0.1815  0.0514  0.5608
   39MOL    C93 7009   3.453   1.925   4.006  0.8259  0.1956 -0.0331
   39MOL    C94 7010   3.324   1.845   3.975  0.2919 -0.4956  0.4712
   39MOL    O95 7011   3.216   1.868   4.036 -0.2915  0.0757 -0.1451
   39MOL    O96 7012   3.341   1.755   3.875 -0.1850  0.0517 -0.3351
   39MOL    H97 7013   3.507   1.751   4.121 -0.4180  0.2833  0.6420
   39MOL    H98 7014   3.592   1.771   3.969 -2.2746  0.4599 -0.5585
   39MOL    H99 7015   3.422   1.986   4.091 -0.9704  0.5082 -0.8918
   39MOL   H100 7016   3.261   1.713   3.847 -0.3149  0.5214 -0.6788
   39MOL   C101 7017   3.503   2.002   3.880 -0.1539  0.6980  0.0302
   39MOL   C102 7018   3.418   2.120   3.836  0.5532 -0.3768 -0.2415
   39MOL   C103 7019   3.459   2.162   3.689 -0.3040  0.0442 -0.1194
   39MOL   O104 7020   3.383   2.181   3.591 -0.0111  0.3958 -0.1828
   39MOL   O105 7021   3.594   2.200   3.688 -0.5005  0.6067  0.1102
   39MOL   H106 7022   3.502   1.931   3.797 -0.8167  1.1198 -0.3245
   39MOL   H107 7023   3.604   2.040   3.897 -0.6611  1.6343  1.0066
   39MOL   H108 7024   3.317   2.079   3.829  0.2294  0.5223 -0.9658
   39MOL   H109 7025   3.632   2.217   3.603 -2.2909  0.3675 -0.7651
   39MOL   C110 7026   3.417   2.226   3.943 -0.6014  0.4115  0.5816
   39MOL   C111 7027   3.284   2.259   4.019 -0.0517  0.4041  0.0539
   39MOL   C112 7028   3.178   2.339   3.936 -0.1538  0.6898  0.2267
   39MOL   O113 7029   3.198   2.393   3.828 -0.3909  0.6453 -0.3163
   39MOL   O114 7030   3.057   2.341   4.007 -0.2340  0.0020 -0.3952
   39MOL   H115 7031   3.459   2.320   3.908 -0.0379  0.0090  0.1638
   39MOL   H116 7032   3.489   2.192   4.017  0.2076  1.1560  0.1354
   39MOL   H117 7033   3.243   2.160   4.037 -0.3460  0.8293  1.7826
   39MOL   H118 7034   3.050   2.272   4.071 -0.1318  0.5279  0.1939
   39MOL   C119 7035   3.310   2.352   4.148  0.2251  0.2483  1.1138
   39MOL   C120 7036   3.336   2.268   4.273 -0.5123  0.4264  0.5419
   39MOL   C121 7037   3.221   2.178   4.323 -0.0146 -0.6495  0.7307
   39MOL   O122 7038   3.109   2.184   4.266 -0.1984  0.5569 -0.3615
   39MOL   O123 7039   3.241   2.087   4.425  0.4642 -0.5127  0.5503
   39MOL   H124 7040   3.237   2.429   4.171 -1.5436 -1.2756  0.6837
   39MOL   H125 7041   3.401   2.403   4.114  1.6821 -0.6848  3.4670
   39MOL   H126 7042   3.407   2.188   4.249 -1.9236 -0.4314 -0.8104
   39MOL   H127 7043   3.167   2.030   4.434  0.3761 -0.1279  2.3992
   39MOL   C128 7044   3.393   2.353   4.387 -0.5084  0.0608  0.5930
   39MOL   C129 7045   3.526   2.424   4.352  0.1186  0.6275 -0.2994
   39MOL   C130 7046   3.622   2.317   4.286  0.5207 -0.3682 -0.3633
   39MOL   O131 7047   3.649   2.315   4.169 -0.0778  0.3297  0.5313
   39MOL   O132 7048   3.676   2.223   4.373  1.0290 -0.2565 -0.0166
   39MOL   H133 7049   3.411   2.289   4.473 -0.2425  1.7790  1.8552
   39MOL   H134 7050   3.318   2.421   4.425 -0.4096  0.1097  0.7000
   39MOL   H135 7051   3.515   2.487   4.263  1.3376 -1.9735 -2.3604
   39MOL   H136 7052   3.735   2.170   4.322 -0.5895 -0.7432 -1.3990
   39MOL   C137 7053   3.600   2.512   4.458 -0.0189 -0.2818  0.5214
   39MOL   C138 7054   3.523   2.620   4.519  1.2129  0.2770  0.2823
   39MOL   C139 7055   3.490   2.732   4.410  0.4978 -0.1364 -0.5513
   39MOL   O140 7056   3.421   2.708   4.312  0.9953 -0.5692 -0.6921
   39MOL   O141 7057   3.554   2.849   4.428 -0.5933 -0.4885  0.0502
   39MOL   H142 7058   3.688   2.567   4.425  0.1291  0.2985  1.8635
   39MOL   H143 7059   3.648   2.448   4.531  2.3277  0.0865 -0.6469
   39MOL   H144 7060   3.422   2.584   4.537  1.7073 -0.3146  2.0376
   39MOL   H145 7061   3.525   2.915   4.367  0.8053  0.4115  0.3429
   39MOL   C146 7062   3.579   2.675   4.653 -0.1112  0.3413  0.4030
   39MOL   C147 7063   3.581   2.575   4.776 -0.3967 -0.3561  0.6250
   39MOL   C148 7064   3.438   2.537   4.809  0.6034 -0.2334 -0.4800
   39MOL   O149 7065   3.370   2.606   4.885  0.1916  0.5319 -0.0550
   39MOL   O150 7066   3.394   2.429   4.748  0.0524 -0.2074  0.2908
   39MOL   H151 7067   3.518   2.764   4.671  0.8475  1.4327 -1.5934
   39MOL   H152 7068   3.680   2.711   4.638  0.7472 -1.9499  0.5050
   39MOL   H153 7069   3.633   2.482   4.749  0.4187 -0.0884  1.2627
   39MOL   H154 7070   3.315   2.399   4.789  0.5818 -1.3811  0.4862
   39MOL   C155 7071   3.668   2.630   4.890  0.2950 -0.2264  0.1191
   39MOL   C156 7072   3.714   2.530   5.001  0.1338 -0.1897  0.1680
   39MOL   C157 7073   3.613   2.535   5.116  0.1598  0.4585  0.1098
   39MOL   O158 7074   3.591   2.438   5.183 -0.0449 -0.1239  0.5527
   39MOL   O159 7075   3.577   2.660   5.151  0.0417 -0.0143  0.4200
   39MOL   H160 7076   3.637   2.726   4.932  0.5863  0.9584 -2.2943
   39MOL   H161 7077   3.760   2.666   4.843 -0.3674  0.3753 -0.7260
   39MOL   H162 7078   3.731   2.432   4.957 -0.8876 -0.6429  0.7633
   39MOL   H163 7079   3.536   2.670   5.236  0.8905  2.3987  0.5791
   39MOL   C164 7080   3.855   2.566   5.062 -0.0950  0.3088 -0.4549
   39MOL   C165 7081   3.930   2.479   5.162  0.9124 -0.2666 -0.4756
   39MOL   C166 7082   3.911   2.331   5.120  0.2186 -0.3463 -0.1743
   39MOL   O167 7083   3.862   2.244   5.189 -0.5851  0.0520  0.3666
   39MOL   O168 7084   3.952   2.308   4.993 -0.0331 -0.0043  0.3895
   39MOL   H169 7085   3.842   2.660   5.116 -1.1632 -0.8097  1.3156
   39MOL   H170 7086   3.920   2.579   4.976 -0.6695 -1.8964 -1.2422
   39MOL   H171 7087   4.034   2.509   5.149  0.8083  1.6417  2.5443
   39MOL   H172 7088   3.928   2.223   4.960  0.9892  0.7946 -2.4933
   39MOL   C173 7089   3.898   2.516   5.304 -0.2315  0.2340  0.1957
   39MOL   C174 7090   3.964   2.436   5.416  0.3384 -0.0152  0.2789
   39MOL   C175 7091   4.118   2.449   5.425 -0.5133  0.2767 -0.3675
   39MOL   O176 7092   4.180   2.554   5.419  0.1145 -0.0441  0.0391
   39MOL   O177 7093   4.179   2.328   5.462 -0.0774  0.0503 -0.0835
   39MOL   H178 7094   3.794   2.505   5.331  0.8402  0.3597  4.7576
   39MOL   H179 7095   3.923   2.622   5.318  0.2411  0.1281  0.1720
   39MOL   H180 7096   3.917   2.483   5.502 -1.4510 -0.2536 -0.5515
   39MOL   H181 7097   4.268   2.336   5.493 -0.6921 -0.9649  2.0816
   39MOL   H182 7098   3.930   2.333   5.421  1.7645 -0.4283  1.7621
   40MOL     C1 7099   2.628   4.453   6.452  0.3849  0.2942 -0.2053
   40MOL     C2 7100   2.587   4.555   6.559 -0.2446 -0.1249 -1.0073
   40MOL     C3 7101   2.684   4.559   6.675  0.2846  0.0430  0.4019
   40MOL     O4 7102   2.780   4.479   6.686 -0.3323 -0.0416 -0.1322
   40MOL     O5 7103   2.666   4.658   6.768  0.3880 -0.0098 -0.2737
   40MOL     H6 7104   2.552   4.453   6.373 -1.0441 -0.6208  1.1263
   40MOL     H7 7105   2.727   4.471   6.410  0.9670  0.8010  1.3350
   40MOL     H8 7106   2.581   4.655   6.517  1.2812  1.3811  2.2390
   40MOL     H9 7107   2.746   4.669   6.817  0.1318 -1.0031  0.3762
   40MOL    H10 7108   2.649   4.353   6.488  1.3430  0.2152 -0.9591
   40MOL    C11 7109   2.441   4.528   6.609 -0.5063  0.5704  0.2557
   40MOL    C12 7110   2.413   4.430   6.726 -0.3997  0.3407  0.0477
   40MOL    C13 7111   2.467   4.294   6.701 -0.3754 -0.0572 -0.1533
   40MOL    O14 7112   2.438   4.237   6.606  0.4689 -0.1568  0.2607
   40MOL    O15 7113   2.548   4.257   6.807 -0.1931 -0.2373 -0.3751
   40MOL    H16 7114   2.390   4.489   6.521 -0.2921  1.3218 -0.2120
   40MOL    H17 7115   2.402   4.625   6.642 -1.4243  0.2878  0.0127
   40MOL    H18 7116   2.462   4.463   6.818 -2.8721  0.9714  1.1654
   40MOL    H19 7117   2.582   4.171   6.785 -0.4445 -0.5518  0.4494
   40MOL    C20 7118   2.261   4.429   6.762  0.1553 -0.0491  0.2941
   40MOL    C21 7119   2.202   4.321   6.863 -0.6681  0.0774  0.4093
   40MOL    C22 7120   2.156   4.203   6.774  0.1569  0.6060 -0.1805
   40MOL    O23 7121   2.084   4.210   6.678 -0.6601 -0.0485  0.5636
   40MOL    O24 7122   2.222   4.096   6.819  0.1192 -0.2461 -0.3795
   40MOL    H25 7123   2.210   4.434   6.666  0.2101  0.6668  0.2962
   40MOL    H26 7124   2.253   4.526   6.812  0.3382  0.5867 -0.8921
   40MOL    H27 7125   2.283   4.290   6.929 -1.6966 -1.0849  1.1292
   40MOL    H28 7126   2.193   4.017   6.774 -0.9198 -0.0182 -0.1318
   40MOL    C29 7127   2.107   4.378   6.967  1.0965 -0.5829  0.1894
   40MOL    C30 7128   2.008   4.276   7.036 -0.2224 -0.3019 -0.2996
   40MOL    C31 7129   1.882   4.261   6.958 -0.1088  0.1223 -0.2958
   40MOL    O32 7130   1.821   4.352   6.900 -1.0117 -0.4556  0.2030
   40MOL    O33 7131   1.837   4.134   6.970  0.0794  0.0921  0.3560
   40MOL    H34 7132   2.055   4.457   6.914  3.8433  1.2484  0.1186
   40MOL    H35 7133   2.162   4.438   7.040 -0.6658  1.1674  0.1068
   40MOL    H36 7134   2.052   4.179   7.059 -0.6184 -0.8232 -1.7086
   40MOL    H37 7135   1.749   4.123   6.938  1.1399 -3.1598 -1.6714
   40MOL    C38 7136   1.981   4.326   7.184  0.4036  0.4787  0.8460
   40MOL    C39 7137   1.907   4.230   7.277 -0.2808  0.2644  0.0217
   40MOL    C40 7138   1.760   4.261   7.286  0.1756 -0.4395 -0.4728
   40MOL    O41 7139   1.669   4.185   7.249  0.0294 -1.0170  0.1230
   40MOL    O42 7140   1.732   4.376   7.356  0.1146  0.1678 -0.2060
   40MOL    H43 7141   1.927   4.420   7.173 -0.3078  0.2751  2.4062
   40MOL    H44 7142   2.076   4.358   7.227  0.8788  0.9354 -0.5099
   40MOL    H45 7143   1.911   4.134   7.226  2.9074  0.8953 -1.0463
   40MOL    H46 7144   1.813   4.419   7.377  0.2273 -1.1824  2.3899
   40MOL    C47 7145   1.993   4.209   7.415  0.1518 -0.3458  0.1641
   40MOL    C48 7146   1.938   4.089   7.491 -0.2910  0.1057  0.0525
   40MOL    C49 7147   1.894   4.136   7.631  0.3166 -0.7832 -0.4167
   40MOL    O50 7148   1.780   4.119   7.683  0.4756 -0.4600 -0.0380
   40MOL    O51 7149   2.001   4.177   7.705  0.3648 -0.0272  0.0751
   40MOL    H52 7150   1.991   4.301   7.473 -1.8486 -1.0734  1.3023
   40MOL    H53 7151   2.101   4.202   7.398  0.1117 -0.5974  0.0129
   40MOL    H54 7152   1.844   4.055   7.447 -0.5468  1.2752 -0.3415
   40MOL    H55 7153   1.980   4.195   7.795  2.2864 -0.5668  0.6590
   40MOL    C56 7154   2.029   3.970   7.494 -0.4020 -0.2815  0.7427
   40MOL    C57 7155   1.973   3.845   7.572  0.3150  0.2395  0.4058
   40MOL    C58 7156   2.083   3.735   7.577  0.8272 -0.3079  0.2921
   40MOL    O59 7157   2.096   3.649   7.492 -0.8348  0.2747  0.1027
   40MOL    O60 7158   2.176   3.751   7.680  0.2953 -0.3344  0.3941
   40MOL    H61 7159   2.127   3.995   7.536 -0.6100  0.0062  1.0545
   40MOL    H62 7160   2.027   3.949   7.387  1.0437  0.2159  0.6024
   40MOL    H63 7161   1.942   3.879   7.671 -0.3618 -1.2290  0.7171
   40MOL    H64 7162   2.236   3.678   7.684 -0.1366 -0.6589  1.2072
   40MOL    C65 7163   1.845   3.781   7.499 -0.2086 -0.5054  0.1628
   40MOL    C66 7164   1.742   3.697   7.575  0.9786 -0.2138 -0.2691
   40MOL    C67 7165   1.756   3.547   7.575  0.3222  0.2966  0.3229
   40MOL    O68 7166   1.837   3.487   7.504  0.0853 -0.1562  0.8790
   40MOL    O69 7167   1.664   3.490   7.655  0.3534  0.5256  0.0036
   40MOL    H70 7168   1.890   3.730   7.413 -1.7301 -0.3797 -0.7292
   40MOL    H71 7169   1.791   3.862   7.450  0.2482 -1.0819 -1.3354
   40MOL    H72 7170   1.755   3.726   7.680 -2.7121  2.6297 -0.5035
   40MOL    H73 7171   1.678   3.397   7.653  0.0993  0.5083 -1.3864
   40MOL    C74 7172   1.589   3.739   7.554 -0.2567 -0.2342 -0.0086
   40MOL    C75 7173   1.532   3.725   7.411  0.2646 -0.2416  0.6209
   40MOL    C76 7174   1.573   3.837   7.320 -0.3080 -0.5539  0.8670
   40MOL    O77 7175   1.640   3.814   7.217  0.2212 -0.2909 -0.2329
   40MOL    O78 7176   1.531   3.967   7.346 -0.0970 -0.5950 -0.1375
   40MOL    H79 7177   1.574   3.842   7.585 -0.7747 -0.6527  1.1377
   40MOL    H80 7178   1.524   3.677   7.616 -2.6040 -0.4997 -2.6121
   40MOL    H81 7179   1.566   3.630   7.370  0.4689 -0.6246  1.6419
   40MOL    H82 7180   1.596   4.024   7.308  0.0351  1.0464  2.4175
   40MOL    C83 7181   1.377   3.710   7.422  0.0716 -0.3912 -0.1606
   40MOL    C84 7182   1.315   3.573   7.377 -0.5660  0.1532 -0.7048
   40MOL    C85 7183   1.347   3.548   7.233 -0.1573 -0.0882  0.3500
   40MOL    O86 7184   1.380   3.438   7.189 -0.4978  0.0223 -0.3250
   40MOL    O87 7185   1.318   3.656   7.155  0.3253 -0.5126 -0.4494
   40MOL    H88 7186   1.335   3.792   7.364  0.5470  1.3725  1.9052
   40MOL    H89 7187   1.340   3.738   7.521  0.9169  1.3280 -0.3275
   40MOL    H90 7188   1.365   3.494   7.434  0.7276  0.3728 -1.5331
   40MOL    H91 7189   1.343   3.631   7.067  1.4900 -1.3045  0.0970
   40MOL    C92 7190   1.155   3.563   7.389 -0.2387  0.5593  0.2865
   40MOL    C93 7191   1.095   3.551   7.531 -0.6209 -0.7521 -0.3666
   40MOL    C94 7192   1.171   3.448   7.607 -0.5450 -0.0546  0.0174
   40MOL    O95 7193   1.159   3.331   7.572 -0.3844  0.2579 -0.3413
   40MOL    O96 7194   1.241   3.501   7.711 -0.0582  0.0734  0.4421
   40MOL    H97 7195   1.129   3.478   7.326 -0.1086  0.4289  0.4082
   40MOL    H98 7196   1.133   3.661   7.345 -1.0030 -0.3134 -1.3104
   40MOL    H99 7197   1.101   3.650   7.575 -2.8496 -0.5558 -0.4218
   40MOL   H100 7198   1.295   3.437   7.755  0.3637  0.0949 -0.0332
   40MOL   C101 7199   0.942   3.519   7.522 -0.4174 -0.8099  0.3570
   40MOL   C102 7200   0.848   3.536   7.642  0.1189  0.1804 -0.7759
   40MOL   C103 7201   0.886   3.437   7.751 -0.6667 -0.1350  0.1927
   40MOL   O104 7202   0.939   3.466   0.004 -0.3894 -0.1634 -0.4446
   40MOL   O105 7203   0.867   3.308   7.701 -0.4787 -0.3317 -0.0645
   40MOL   H106 7204   0.940   3.425   7.468 -1.8822 -1.4946  1.5747
   40MOL   H107 7205   0.899   3.588   7.449  1.4106 -0.4467 -0.4272
   40MOL   H108 7206   0.851   3.628   7.699  0.0670 -1.5612  2.1324
   40MOL   H109 7207   0.905   3.245   7.759  2.7547  2.5054  1.0571
   40MOL   C110 7208   0.703   3.525   7.585 -0.4515  0.5770  0.6069
   40MOL   C111 7209   0.578   3.518   7.680 -0.3489  0.1012  0.5037
   40MOL   C112 7210   0.551   3.382   7.727  0.1661  0.5317 -0.7587
   40MOL   O113 7211   0.584   3.287   7.665  0.0177  0.4804  0.2853
   40MOL   O114 7212   0.466   3.388   7.835 -0.1155 -0.4930 -0.0655
   40MOL   H115 7213   0.704   3.437   7.520  0.8414  1.5408 -0.6946
   40MOL   H116 7214   0.687   3.613   7.524 -0.2888 -0.5193 -1.0458
   40MOL   H117 7215   0.599   3.586   7.763 -0.1113  2.2917 -1.3135
   40MOL   H118 7216   0.443   3.302   0.015  0.5957 -0.1684  1.2928
   40MOL   C119 7217   0.458   3.566   7.595  0.3080 -0.2912  0.3352
   40MOL   C120 7218   0.349   3.635   7.672  0.5739  0.1006 -0.3287
   40MOL   C121 7219   0.216   3.626   7.600 -0.1223  0.5512  0.1245
   40MOL   O122 7220   0.144   3.716   7.556  0.1045  0.2004 -0.9255
   40MOL   O123 7221   0.184   3.491   7.582  0.5237 -1.0900  0.1662
   40MOL   H124 7222   0.421   3.476   7.544  0.2707 -0.6086  0.9125
   40MOL   H125 7223   0.485   3.640   7.520  1.4766 -0.7791  0.2592
   40MOL   H126 7224   0.339   3.595   7.773 -0.7998 -1.6609 -1.1500
   40MOL   H127 7225   0.107   3.489   7.527  0.1906 -1.4274  0.6389
   40MOL   C128 7226   0.396   3.781   7.711  0.0982  0.2032 -0.2832
   40MOL   C129 7227   0.336   3.845   7.843  0.3199 -0.0710 -0.0175
   40MOL   C130 7228   0.197   3.906   7.818  0.0424  0.0428 -0.0471
   40MOL   O131 7229   0.085   3.873   0.016 -0.1202 -0.0192  0.1072
   40MOL   O132 7230   0.210   4.021   7.743  0.4294  0.0515  0.0633
   40MOL   H133 7231   0.381   3.851   7.629 -0.2364  1.4468  0.8132
   40MOL   H134 7232   0.504   3.788   7.721  0.2969 -1.9469 -0.7296
   40MOL   H135 7233   0.315   3.758   0.052 -0.8155  0.3540  0.2034
   40MOL   H136 7234   0.125   4.062   7.742 -0.2076 -1.1711  1.5791
   40MOL   C137 7235   0.433   3.937   0.075 -0.3466 -0.3292 -0.1668
   40MOL   C138 7236   0.522   3.863   0.173 -0.7005 -0.3293  0.3115
   40MOL   C139 7237   0.475   3.893   0.312  0.2255  0.0095  0.2465
   40MOL   O140 7238   0.518   3.977   0.387 -0.0916  0.9854  0.4285
   40MOL   O141 7239   0.393   3.794   0.351  0.1465 -0.2277 -0.7154
   40MOL   H142 7240   0.382   4.021   0.122  1.4660  0.6521  0.1275
   40MOL   H143 7241   0.501   3.991   0.009  2.0141 -1.6717  1.0982
   40MOL   H144 7242   0.515   3.755   0.154  0.8767 -0.6981  1.7514
   40MOL   H145 7243   0.352   3.816   0.434 -1.7597 -2.1157 -1.1107
   40MOL   C146 7244   0.668   3.903   0.152 -0.2257 -0.0002  0.3198
   40MOL   C147 7245   0.773   3.827   0.245  0.3861 -0.0561  0.1260
   40MOL   C148 7246   0.908   3.896   0.227 -0.3778  0.1104 -0.0516
   40MOL   O149 7247   0.960   3.892   0.114 -0.0577  0.4543 -0.8840
   40MOL   O150 7248   0.964   3.959   0.338 -0.3466  0.0080 -0.8457
   40MOL   H151 7249   0.671   4.011   0.167 -2.3416  0.2655 -0.9647
   40MOL   H152 7250   0.681   3.886   0.045 -0.5558  1.3845  0.0430
   40MOL   H153 7251   0.726   3.828   0.343 -0.5736  2.6540 -0.3102
   40MOL   H154 7252   1.052   3.986   0.320 -0.3777  0.3592 -0.4772
   40MOL   C155 7253   0.779   3.677   0.189  0.0313 -0.2005  0.0440
   40MOL   C156 7254   0.745   3.571   0.297  0.4872  0.5244  0.1277
   40MOL   C157 7255   0.870   3.517   0.366  0.8582 -0.3445  0.1219
   40MOL   O158 7256   0.886   3.522   0.485 -0.5384 -0.3120 -0.6353
   40MOL   O159 7257   0.965   3.484   0.276  0.0666  0.4374 -0.3764
   40MOL   H160 7258   0.880   3.671   0.147  0.1093  1.6460 -0.0761
   40MOL   H161 7259   0.716   3.661   0.101 -2.2581  0.9373  1.4369
   40MOL   H162 7260   0.681   3.607   0.377 -1.2958 -1.0424 -0.5640
   40MOL   H163 7261   0.922   3.475   0.192 -1.5564 -1.1745  0.5739
   40MOL   C164 7262   0.659   3.464   0.232  0.0797 -0.1072 -0.1503
   40MOL   C165 7263   0.615   3.354   0.329  0.7532 -0.1736 -0.5140
   40MOL   C166 7264   0.644   3.221   0.259 -0.7368 -0.0517 -0.0705
   40MOL   O167 7265   0.566   3.136   0.220 -0.1861  0.5062  0.2942
   40MOL   O168 7266   0.788   3.211   0.242  0.1614  0.5805 -0.1886
   40MOL   H169 7267   0.717   3.428   0.146  0.2189  1.2052 -0.6158
   40MOL   H170 7268   0.572   3.510   0.186  2.0067  1.2736 -2.6213
   40MOL   H171 7269   0.679   3.342   0.416 -1.5096 -0.4304  1.1774
   40MOL   H172 7270   0.811   3.138   0.186  0.3651  0.1651  0.4381
   40MOL   C173 7271   0.458   3.356   0.370  0.0802  0.2564 -0.0075
   40MOL   C174 7272   0.407   3.467   0.457  0.0619  0.3933  0.0563
   40MOL   C175 7273   0.447   3.450   0.599  0.9348 -0.0386  0.1179
   40MOL   O176 7274   0.363   3.425   0.685  0.4177  0.5136  0.3859
   40MOL   O177 7275   0.580   3.469   0.618  0.0439 -0.2551 -0.0989
   40MOL   H178 7276   0.439   3.260   0.419  0.1805 -0.3357 -1.1210
   40MOL   H179 7277   0.396   3.357   0.281 -2.1452  1.0692  1.5261
   40MOL   H180 7278   0.451   3.563   0.429  1.9730 -0.2077  0.9641
   40MOL   H181 7279   0.598   3.432   0.703  4.4791  0.8498 -0.4565
   40MOL   H182 7280   0.298   3.471   0.455  0.0391  0.0959  0.5606
   41MOL     C1 7281   1.354   2.290   4.393  0.5088 -0.2656 -0.3327
   41MOL     C2 7282   1.407   2.212   4.515 -0.1623  0.0198  0.1174
   41MOL     C3 7283   1.520   2.286   4.585  0.1705  0.0601  0.5840
   41MOL     O4 7284   1.636   2.249   4.574  0.1929  0.5864  0.1506
   41MOL     O5 7285   1.473   2.392   4.653 -0.2655 -0.5297  0.1857
   41MOL     H6 7286   1.320   2.392   4.411  2.3482  0.0639  1.5828
   41MOL     H7 7287   1.437   2.299   4.323 -0.5190  1.9610 -1.3200
   41MOL     H8 7288   1.317   2.218   4.576 -0.4209  0.1278 -0.2683
   41MOL     H9 7289   1.379   2.386   4.662 -0.5381 -0.8887 -2.6478
   41MOL    H10 7290   1.272   2.234   4.351  0.5891 -0.1585 -0.6302
   41MOL    C11 7291   1.429   2.064   4.474  0.9133  0.4383 -0.3203
   41MOL    C12 7292   1.381   1.963   4.583  0.3308  0.3812 -0.1843
   41MOL    C13 7293   1.463   1.978   4.709  0.0748 -0.4244  0.3450
   41MOL    O14 7294   1.571   1.923   4.722  0.2963 -0.1478  0.0978
   41MOL    O15 7295   1.402   2.044   4.804  0.0549 -0.3632 -0.2844
   41MOL    H16 7296   1.533   2.037   4.457  0.6861  0.4864 -1.8265
   41MOL    H17 7297   1.387   2.053   4.374  0.3454  0.0538 -0.0477
   41MOL    H18 7298   1.278   1.993   4.605  0.3546 -0.6025  1.3116
   41MOL    H19 7299   1.457   2.059   4.879 -0.4809  1.3146 -0.1923
   41MOL    C20 7300   1.386   1.813   4.523  0.5821 -0.1386 -0.1314
   41MOL    C21 7301   1.319   1.695   4.602 -0.2556  0.6058 -0.6614
   41MOL    C22 7302   1.409   1.653   4.721  0.0614 -0.0510  0.1092
   41MOL    O23 7303   1.505   1.574   4.718  0.5688 -0.8515 -0.2869
   41MOL    O24 7304   1.354   1.700   4.837  0.2208  0.4729  0.2941
   41MOL    H25 7305   1.489   1.782   4.504  1.3320  2.0780  0.1523
   41MOL    H26 7306   1.342   1.827   4.424 -3.2505  0.9299  1.6245
   41MOL    H27 7307   1.235   1.737   4.657 -0.4883 -0.3449 -0.2646
   41MOL    H28 7308   1.408   1.679   4.911  0.0980  0.4453  0.3755
   41MOL    C29 7309   1.270   1.584   4.513 -0.4962  0.2283  0.0402
   41MOL    C30 7310   1.374   1.514   4.417  0.1876 -0.6414 -0.6131
   41MOL    C31 7311   1.402   1.584   4.284  0.1909  0.0347 -0.2811
   41MOL    O32 7312   1.506   1.617   4.236 -0.1486 -0.3767 -0.4300
   41MOL    O33 7313   1.281   1.602   4.225  0.2177 -0.3286 -0.1235
   41MOL    H34 7314   1.186   1.611   4.450 -2.0838 -0.6953  1.6901
   41MOL    H35 7315   1.224   1.514   4.584 -2.0984  0.0875 -1.1111
   41MOL    H36 7316   1.472   1.508   4.466 -0.6954 -1.3340  1.1374
   41MOL    H37 7317   1.308   1.643   4.144  0.3460 -0.4939 -0.1655
   41MOL    C38 7318   1.335   1.366   4.398  0.2571  0.0341  0.0612
   41MOL    C39 7319   1.458   1.261   4.402 -0.0491  0.3180 -0.4376
   41MOL    C40 7320   1.558   1.288   4.280 -0.4028 -0.7627 -0.1389
   41MOL    O41 7321   1.675   1.282   4.300 -0.0460  0.3175  0.4080
   41MOL    O42 7322   1.507   1.289   4.156 -0.2465 -0.4628  0.2003
   41MOL    H43 7323   1.276   1.350   4.308 -1.0862  1.6978  0.6164
   41MOL    H44 7324   1.274   1.324   4.478  0.0523 -1.4142 -0.8343
   41MOL    H45 7325   1.514   1.263   4.495 -0.7589  0.6109 -0.0140
   41MOL    H46 7326   1.562   1.311   4.082 -0.4687 -2.6924 -0.6495
   41MOL    C47 7327   1.390   1.121   4.370  0.0347  0.3454 -0.3787
   41MOL    C48 7328   1.478   1.005   4.408  0.2116  0.4494  0.7066
   41MOL    C49 7329   1.461   0.888   4.303  0.3074 -0.0992 -0.2314
   41MOL    O50 7330   1.356   0.831   4.288  0.3809  0.6872 -0.1434
   41MOL    O51 7331   1.577   0.858   4.237  0.7951 -0.1548 -0.0219
   41MOL    H52 7332   1.359   1.116   4.266  0.6638  0.7909 -0.5848
   41MOL    H53 7333   1.296   1.116   4.425  1.3590  2.0751  2.1618
   41MOL    H54 7334   1.578   1.045   4.398  0.5717 -0.4670  0.5936
   41MOL    H55 7335   1.650   0.918   4.243  0.8142  0.1649 -3.0077
   41MOL    C56 7336   1.445   0.956   4.554  0.3515 -0.0306  0.0251
   41MOL    C57 7337   1.558   0.868   4.620  0.7752 -0.3609 -0.4540
   41MOL    C58 7338   1.497   0.730   4.661  0.1898  0.9334 -0.1030
   41MOL    O59 7339   1.375   0.709   4.683  0.2765 -0.6412 -0.5932
   41MOL    O60 7340   1.592   0.640   4.688  0.5180 -0.3624 -0.9359
   41MOL    H61 7341   1.350   0.904   4.547 -0.9905  2.2360  0.9419
   41MOL    H62 7342   1.420   1.033   4.627 -0.3708 -0.1593 -0.0846
   41MOL    H63 7343   1.629   0.836   4.543 -1.6516 -1.0589 -2.4972
   41MOL    H64 7344   1.559   0.557   4.717  1.5955 -0.3195  0.4590
   41MOL    C65 7345   1.641   0.935   4.731 -0.2699  0.1114 -0.1381
   41MOL    C66 7346   1.761   1.021   4.675 -0.1554  0.0226  1.0078
   41MOL    C67 7347   1.880   0.943   4.615  0.1569  0.1383 -0.5025
   41MOL    O68 7348   1.889   0.821   4.614  0.3640  0.2012  0.2564
   41MOL    O69 7349   1.981   1.022   4.570  0.3435  0.2228  0.4804
   41MOL    H70 7350   1.683   0.854   4.790 -0.4867  0.7534  0.8933
   41MOL    H71 7351   1.585   0.997   4.800  2.5339  1.7083  0.7990
   41MOL    H72 7352   1.722   1.071   4.586  0.8198  0.1683  0.6509
   41MOL    H73 7353   2.036   0.974   4.511 -0.5559  2.2324 -2.0568
   41MOL    C74 7354   1.808   1.126   4.781 -0.1789  0.7215  0.2854
   41MOL    C75 7355   1.907   1.086   4.891  0.0243 -0.9758  0.5165
   41MOL    C76 7356   1.867   0.971   4.977  0.6906  0.2122 -0.5131
   41MOL    O77 7357   1.760   0.949   5.033 -0.2249  0.5141  0.2517
   41MOL    O78 7358   1.971   0.885   4.974  0.4938 -0.0131  0.4384
   41MOL    H79 7359   1.717   1.176   4.815 -0.2841  1.3027 -0.8185
   41MOL    H80 7360   1.853   1.208   4.725 -0.5374  0.0674 -0.9787
   41MOL    H81 7361   1.997   1.062   4.834  0.2276  0.4049  0.2443
   41MOL    H82 7362   1.948   0.806   5.021  1.6921 -1.0129 -0.6349
   41MOL    C83 7363   1.926   1.208   4.987 -0.0531 -0.8371 -0.2875
   41MOL    C84 7364   2.009   1.334   4.933  0.0604  0.4295 -0.5417
   41MOL    C85 7365   2.145   1.303   4.871  0.4753 -0.0248 -0.4406
   41MOL    O86 7366   2.174   1.319   4.752 -0.6765  0.5553 -0.2803
   41MOL    O87 7367   2.231   1.239   4.958  0.1031  0.4266 -0.4553
   41MOL    H88 7368   1.977   1.172   5.077 -0.1594  0.4854  0.3280
   41MOL    H89 7369   1.826   1.246   5.006 -0.4949 -1.3758 -1.5488
   41MOL    H90 7370   1.951   1.365   4.846 -0.5246 -2.0415 -1.0442
   41MOL    H91 7371   2.315   1.222   4.918 -0.0785  3.0324 -2.0853
   41MOL    C92 7372   2.020   1.446   5.038 -0.1705 -0.3999  0.2467
   41MOL    C93 7373   1.994   1.595   4.995 -0.6877  0.8013 -0.3000
   41MOL    C94 7374   2.112   1.691   4.990 -0.5073 -0.0898 -0.4974
   41MOL    O95 7375   2.093   1.816   4.993  0.6062  0.7570  0.6530
   41MOL    O96 7376   2.237   1.626   4.978 -0.0687 -0.6931  0.0070
   41MOL    H97 7377   2.117   1.441   5.088  0.4131  0.8195 -0.7375
   41MOL    H98 7378   1.965   1.417   5.128 -2.9161  0.7874 -1.0076
   41MOL    H99 7379   1.954   1.583   4.894  0.0895 -1.4811 -0.3646
   41MOL   H100 7380   2.301   1.695   4.973  0.2627 -1.0776 -1.2331
   41MOL   C101 7381   1.885   1.657   5.086  0.1924 -0.1448  0.0092
   41MOL   C102 7382   1.735   1.613   5.058 -0.4165 -0.5654  1.0051
   41MOL   C103 7383   1.667   1.728   4.977  0.0496 -0.1928 -0.4889
   41MOL   O104 7384   1.563   1.781   5.016 -0.1105  0.2561  0.2703
   41MOL   O105 7385   1.726   1.752   4.860  0.0643 -0.5575  0.0751
   41MOL   H106 7386   1.889   1.766   5.096 -1.6085  0.1802 -2.3844
   41MOL   H107 7387   1.907   1.616   5.185  1.7451 -0.1405 -0.3203
   41MOL   H108 7388   1.735   1.525   4.993 -0.7178 -1.2073  1.8619
   41MOL   H109 7389   1.677   1.818   4.813  0.8578 -0.2031 -0.2579
   41MOL   C110 7390   1.673   1.578   5.192 -0.6950  0.3566  0.3552
   41MOL   C111 7391   1.701   1.429   5.243 -0.2173 -0.9851 -0.2575
   41MOL   C112 7392   1.596   1.335   5.186 -0.6142  0.6390 -0.2388
   41MOL   O113 7393   1.492   1.366   5.133  0.3177 -0.1161 -0.1172
   41MOL   O114 7394   1.620   1.206   5.221  0.0094 -0.4230 -0.3679
   41MOL   H115 7395   1.567   1.598   5.181 -0.8719  0.3385  1.9326
   41MOL   H116 7396   1.696   1.655   5.266  1.5024 -0.6688  0.7880
   41MOL   H117 7397   1.790   1.386   5.197 -0.5670 -1.0047 -0.9313
   41MOL   H118 7398   1.541   1.156   5.203 -0.0210 -0.7421  0.6164
   41MOL   C119 7399   1.699   1.436   5.402  0.6530  0.1649 -0.2944
   41MOL   C120 7400   1.728   1.309   5.490 -0.4551  0.6318  0.1158
   41MOL   C121 7401   1.721   1.352   5.634 -0.6840 -0.4260  0.2812
   41MOL   O122 7402   1.632   1.326   5.712  0.2052  0.8155 -0.0880
   41MOL   O123 7403   1.823   1.437   5.668  0.0914  0.6426  0.5113
   41MOL   H124 7404   1.601   1.478   5.427  0.6873  1.0784 -1.6214
   41MOL   H125 7405   1.768   1.513   5.437 -1.5500  0.3838  3.9754
   41MOL   H126 7406   1.638   1.248   5.478 -1.3448  1.9077  0.2815
   41MOL   H127 7407   1.879   1.442   5.592 -0.7692  0.8535 -0.1136
   41MOL   C128 7408   1.856   1.230   5.447  0.6566 -0.8446 -0.5400
   41MOL   C129 7409   1.868   1.087   5.511 -0.4457  0.2242 -0.1664
   41MOL   C130 7410   2.002   1.018   5.491  0.5419  0.0977  0.4497
   41MOL   O131 7411   2.024   0.917   5.427  0.3719  0.7009  0.9740
   41MOL   O132 7412   2.093   1.078   5.567  0.2373  0.0933  0.0359
   41MOL   H133 7413   1.944   1.289   5.474  0.5000 -1.9862  2.7229
   41MOL   H134 7414   1.856   1.226   5.338 -0.2264 -0.5363 -0.5494
   41MOL   H135 7415   1.865   1.105   5.618 -0.0042 -0.7342  0.0098
   41MOL   H136 7416   2.180   1.041   5.572  1.0437  2.1355  1.8893
   41MOL   C137 7417   1.747   0.985   5.479 -0.4683  0.2253  0.2458
   41MOL   C138 7418   1.747   0.856   5.573 -0.0875 -0.2300 -0.7827
   41MOL   C139 7419   1.630   0.768   5.533  0.0105  0.2394  0.6675
   41MOL   O140 7420   1.526   0.807   5.480  0.2185 -0.0248 -0.0867
   41MOL   O141 7421   1.658   0.635   5.555  0.1373  0.0584  0.0911
   41MOL   H142 7422   1.738   0.954   5.375 -0.2616  3.8224 -0.8915
   41MOL   H143 7423   1.655   1.043   5.488  0.2832  1.3592  0.5870
   41MOL   H144 7424   1.832   0.789   5.565  0.0967 -0.1095  0.0798
   41MOL   H145 7425   1.583   0.577   5.556  0.5730 -0.5257 -0.5109
   41MOL   C146 7426   1.723   0.904   5.719  0.1926  0.0324 -0.1192
   41MOL   C147 7427   1.838   0.869   5.821 -0.4264  0.2947 -0.0126
   41MOL   C148 7428   1.858   0.718   5.850  0.3283 -0.4521  0.5681
   41MOL   O149 7429   1.769   0.650   5.899  0.6190 -0.6759  0.1947
   41MOL   O150 7430   1.984   0.683   5.820 -0.2075 -0.0557  0.2104
   41MOL   H151 7431   1.634   0.855   5.760  0.0107  0.5159  0.0674
   41MOL   H152 7432   1.701   1.010   5.730  1.9924  0.2312  1.8407
   41MOL   H153 7433   1.930   0.902   5.773 -1.3853 -0.8812 -2.7234
   41MOL   H154 7434   1.992   0.594   5.852  0.8527 -0.7099 -1.7785
   41MOL   C155 7435   1.803   0.934   5.957 -0.4349 -0.2628  0.1696
   41MOL   C156 7436   1.904   1.041   5.999  0.3301  0.2877  0.2113
   41MOL   C157 7437   1.886   1.166   5.919 -0.3614 -0.3136  0.3941
   41MOL   O158 7438   1.954   1.205   5.828  0.3793  0.7613 -0.7167
   41MOL   O159 7439   1.768   1.228   5.957  0.5494  0.2616  0.6656
   41MOL   H160 7440   1.782   0.865   6.039 -0.7513  0.1039  0.3971
   41MOL   H161 7441   1.702   0.973   5.943 -0.0221  1.1977  1.2166
   41MOL   H162 7442   1.882   1.067   6.103 -0.1167 -2.2289  0.7738
   41MOL   H163 7443   1.738   1.307   5.915 -2.7052 -1.0486  0.4174
   41MOL   C164 7444   2.052   0.992   6.004 -0.3099  0.2739 -0.0648
   41MOL   C165 7445   2.090   0.878   6.100 -0.0436  0.3346 -0.5163
   41MOL   C166 7446   2.083   0.927   6.247  0.1013  0.3311  0.3564
   41MOL   O167 7447   2.136   1.028   6.288 -0.5720  0.2258  0.2313
   41MOL   O168 7448   2.029   0.833   6.331 -0.1246 -0.0127 -0.0085
   41MOL   H169 7449   2.111   1.074   6.045 -0.7663 -0.3045  1.7617
   41MOL   H170 7450   2.081   0.948   5.908 -2.0844 -1.5355  0.1925
   41MOL   H171 7451   2.021   0.793   6.093  0.3562 -0.1461  1.2239
   41MOL   H172 7452   2.056   0.851   6.420 -1.1389 -0.7835  0.4525
   41MOL   C173 7453   2.230   0.812   6.083  0.3345  0.0028  0.5714
   41MOL   C174 7454   2.338   0.915   6.049  0.6378 -0.4752  0.2803
   41MOL   C175 7455   2.473   0.875   6.109  0.1856 -1.0202 -0.5322
   41MOL   O176 7456   2.507   0.757   6.114  0.0561  0.0640  0.1630
   41MOL   O177 7457   2.554   0.981   6.140 -0.0206 -0.3038 -0.6375
   41MOL   H178 7458   2.223   0.741   6.001  0.4445 -0.8810  1.3202
   41MOL   H179 7459   2.261   0.752   6.169  0.7677  0.1153  0.4924
   41MOL   H180 7460   2.347   0.926   5.941 -1.7206  0.1454  0.1336
   41MOL   H181 7461   2.643   0.961   6.166 -1.2485  0.0278  4.3435
   41MOL   H182 7462   2.315   1.016   6.082 -0.0248 -0.3535 -0.5397
   42MOL     C1 7463   4.858   5.737   7.358  0.4859  0.6390  0.5528
   42MOL     C2 7464   4.991   5.815   7.379  0.5886 -0.1481 -0.1232
   42MOL     C3 7465   5.074   5.827   7.252  0.0941  0.0280  0.1317
   42MOL     O4 7466   5.071   5.739   7.160 -0.4484 -0.5142  0.2055
   42MOL     O5 7467   5.138   5.947   7.241 -0.7869 -0.5415 -0.1201
   42MOL     H6 7468   4.794   5.727   7.446  2.2611  1.9336  2.0173
   42MOL     H7 7469   4.808   5.764   7.265  0.1192  0.1433  0.5996
   42MOL     H8 7470   4.970   5.920   7.397  1.0296  0.0474 -0.7562
   42MOL     H9 7471   5.192   5.962   7.165  1.7044 -0.0163  1.6919
   42MOL    H10 7472   4.883   5.633   7.336  0.0088  0.6793 -0.2231
   42MOL    C11 7473   5.084   5.764   7.494  0.3424 -0.3520 -0.1422
   42MOL    C12 7474   5.037   5.781   7.641  1.4331  0.2682 -0.1588
   42MOL    C13 7475   4.967   5.914   7.669  0.1446  0.0983 -0.6018
   42MOL    O14 7476   4.850   5.933   7.644  0.3862  0.7561 -0.0303
   42MOL    O15 7477   5.050   6.008   7.717  0.4510 -0.2517 -0.7009
   42MOL    H16 7478   5.185   5.804   7.485  0.7308 -1.2535  0.1797
   42MOL    H17 7479   5.114   5.664   7.464  1.1736  0.0228 -0.5770
   42MOL    H18 7480   4.952   5.715   7.658  1.2156  0.6165  0.1158
   42MOL    H19 7481   5.016   6.097   7.723 -0.4396 -0.6473  0.2546
   42MOL    C20 7482   5.138   5.738   7.752 -0.0553 -0.2685  0.4638
   42MOL    C21 7483   5.086   5.631   0.007  0.3761 -0.1484 -0.1902
   42MOL    C22 7484   4.994   5.691   0.114 -0.0084 -0.0358 -0.0850
   42MOL    O23 7485   5.022   5.709   0.236 -0.4379  0.1080  0.1937
   42MOL    O24 7486   4.866   5.714   0.055  0.1389 -0.3681  0.4896
   42MOL    H25 7487   5.175   5.827   7.803  0.7000 -1.0934  1.3656
   42MOL    H26 7488   5.218   5.702   7.687 -1.0329 -2.1377  0.2576
   42MOL    H27 7489   5.023   5.553   7.816 -0.9715  1.0879 -0.4922
   42MOL    H28 7490   4.803   5.735   0.122 -0.2223 -0.2264  0.1094
   42MOL    C29 7491   5.206   5.557   0.072  0.3348  0.3186 -0.0288
   42MOL    C30 7492   5.317   5.506   7.837  0.4971 -0.5060  0.1259
   42MOL    C31 7493   5.271   5.418   7.720 -0.2977  0.6420  0.1351
   42MOL    O32 7494   5.307   5.306   7.718 -0.0737  0.0966 -0.1928
   42MOL    O33 7495   5.183   5.471   7.633 -0.2451 -0.0561 -0.1071
   42MOL    H34 7496   5.185   5.478   0.145  0.7733  0.6134  0.4149
   42MOL    H35 7497   5.258   5.627   0.137  0.2642 -0.4818  0.9182
   42MOL    H36 7498   5.360   5.589   7.781  0.4355 -0.5974 -0.0534
   42MOL    H37 7499   5.161   5.417   7.559 -1.5863 -1.5612  1.3479
   42MOL    C38 7500   5.439   5.458   0.074  0.2535  0.7184 -0.4394
   42MOL    C39 7501   5.567   5.417   7.844 -0.0843  0.1274  0.4023
   42MOL    C40 7502   5.607   5.266   0.019  0.6739  0.5381  0.0975
   42MOL    O41 7503   5.537   5.187   0.082  0.5961 -0.3024  0.1138
   42MOL    O42 7504   5.713   5.225   7.805 -0.0197 -0.6679  0.2907
   42MOL    H43 7505   5.413   5.371   0.134 -0.6286 -0.5195 -2.5493
   42MOL    H44 7506   5.461   5.536   0.147 -0.3206  3.8724 -3.5164
   42MOL    H45 7507   5.553   5.443   7.739  1.2509  0.2086  0.2323
   42MOL    H46 7508   5.730   5.134   7.825 -0.7041 -1.2890 -1.8433
   42MOL    C47 7509   5.684   5.518   0.030 -0.1444 -0.6663 -0.0151
   42MOL    C48 7510   5.812   5.516   7.788 -0.4607  0.1279 -0.2950
   42MOL    C49 7511   5.918   5.616   7.824  0.3789 -0.1838  0.3029
   42MOL    O50 7512   5.895   5.729   0.016 -0.2877  0.4749 -0.1380
   42MOL    O51 7513   6.042   5.563   7.790 -0.4866  0.6657  0.1846
   42MOL    H52 7514   5.714   5.504   0.134  2.3756  0.4643 -0.5616
   42MOL    H53 7515   5.652   5.621   0.046  0.4187 -0.7289  1.6008
   42MOL    H54 7516   5.860   5.420   7.805  2.2137  1.1898 -1.5701
   42MOL    H55 7517   6.117   5.619   7.804 -0.0880  0.3446 -0.6414
   42MOL    C56 7518   5.780   5.545   7.635 -0.1459  0.1698 -1.0122
   42MOL    C57 7519   5.768   5.424   7.540  0.5967 -0.4150  0.7947
   42MOL    C58 7520   5.904   5.354   7.523  0.1429  0.0754  0.0583
   42MOL    O59 7521   6.010   5.408   7.500  0.5834 -0.4436 -0.1121
   42MOL    O60 7522   5.897   5.221   7.534  0.0913  0.4303  0.3049
   42MOL    H61 7523   5.864   5.603   7.598 -0.7593  2.4429  0.9752
   42MOL    H62 7524   5.691   5.609   7.630 -0.7932 -0.6082  0.0663
   42MOL    H63 7525   5.691   5.355   7.574 -1.2163  1.5114  0.6992
   42MOL    H64 7526   5.979   5.185   7.506 -0.2554  0.5875 -0.9438
   42MOL    C65 7527   5.724   5.477   7.393  0.6838 -0.1283  0.1599
   42MOL    C66 7528   5.569   5.486   7.374  0.2651  0.2516  0.2908
   42MOL    C67 7529   5.499   5.603   7.443  0.1116 -0.2583 -0.4959
   42MOL    O68 7530   5.415   5.591   7.525 -0.8487  0.6511 -0.0469
   42MOL    O69 7531   5.550   5.722   7.394  0.3207  0.2690  0.6915
   42MOL    H70 7532   5.758   5.417   7.309 -0.6211  2.0890 -2.0099
   42MOL    H71 7533   5.757   5.579   7.376  0.6808 -0.5168 -2.2625
   42MOL    H72 7534   5.550   5.518   7.272 -1.1915 -0.0026  0.4659
   42MOL    H73 7535   5.516   5.796   7.442  0.0674 -0.3762  1.5169
   42MOL    C74 7536   5.498   5.351   7.404 -0.3701  0.1341  0.1183
   42MOL    C75 7537   5.374   5.310   7.320 -0.1257 -0.3061 -0.5583
   42MOL    C76 7538   5.248   5.397   7.312  0.4565 -0.7717  0.0078
   42MOL    O77 7539   5.152   5.387   7.388 -0.7135 -0.2967  0.4719
   42MOL    O78 7540   5.262   5.486   7.207 -0.7069 -0.3340 -0.5600
   42MOL    H79 7541   5.476   5.333   7.510  1.4367  2.7242  0.9988
   42MOL    H80 7542   5.574   5.278   7.379 -1.1613 -0.5104 -0.4135
   42MOL    H81 7543   5.421   5.322   7.222 -1.7222 -1.1384 -1.4545
   42MOL    H82 7544   5.188   5.538   7.181  0.5515  0.9245 -1.7096
   42MOL    C83 7545   5.327   5.163   7.325  0.2772 -0.7702  0.6893
   42MOL    C84 7546   5.408   5.067   7.226  0.4271 -0.3402  0.2857
   42MOL    C85 7547   5.339   5.057   7.089  0.2757 -0.1047  0.5681
   42MOL    O86 7548   5.308   4.950   7.035  0.3921 -0.6974 -0.1256
   42MOL    O87 7549   5.334   5.180   7.031 -0.3601  0.3314  0.3837
   42MOL    H88 7550   5.229   5.156   7.279  1.4988  1.6483 -2.4241
   42MOL    H89 7551   5.321   5.134   7.430 -0.0826 -1.3285  0.5165
   42MOL    H90 7552   5.505   5.115   7.208 -0.6822  1.5573 -0.8238
   42MOL    H91 7553   5.294   5.165   6.947  3.8696 -1.2761 -1.4785
   42MOL    C92 7554   5.447   4.935   7.286  0.3027  0.4079 -0.3441
   42MOL    C93 7555   5.530   4.926   7.423  0.3836  0.5056  0.8503
   42MOL    C94 7556   5.662   5.013   7.413  0.2209 -0.3902  0.3140
   42MOL    O95 7557   5.721   5.051   7.313  0.2997 -0.3121 -0.4891
   42MOL    O96 7558   5.703   5.036   7.538  0.1313  0.1022  0.2470
   42MOL    H97 7559   5.514   4.889   7.214  0.6153 -1.7743  1.2621
   42MOL    H98 7560   5.361   4.868   7.286  0.6988 -0.1038 -0.0020
   42MOL    H99 7561   5.477   4.966   7.509  2.0433  1.0786  1.6266
   42MOL   H100 7562   5.793   5.065   7.539  0.1185  0.3537 -2.4074
   42MOL   C101 7563   5.562   4.780   7.462 -0.2239  0.5119  0.5799
   42MOL   C102 7564   5.529   4.750   7.612  1.0899 -0.0230 -0.5918
   42MOL   C103 7565   5.653   4.739   7.707 -0.3648 -0.1454 -0.2579
   42MOL   O104 7566   5.762   4.695   7.676  0.1008 -0.2757 -0.2590
   42MOL   O105 7567   5.622   4.754   7.839 -0.2194 -0.2926  0.2505
   42MOL   H106 7568   5.668   4.762   7.443 -0.9861 -0.8357 -2.7274
   42MOL   H107 7569   5.517   4.708   7.394 -2.4547  0.1756  2.3351
   42MOL   H108 7570   5.470   4.828   7.659  4.6612  1.9019  0.8543
   42MOL   H109 7571   5.529   4.762   0.000 -0.3190 -1.9644  0.6584
   42MOL   C110 7572   5.446   4.623   7.616 -0.0653  0.3922  0.2046
   42MOL   C111 7573   5.315   4.625   7.542  0.5047 -0.1245 -0.7105
   42MOL   C112 7574   5.219   4.720   7.616 -0.0668  0.5147 -0.4539
   42MOL   O113 7575   5.158   4.684   7.717  0.4280  0.7625  0.6430
   42MOL   O114 7576   5.213   4.847   7.567 -0.0881  0.0194 -0.6148
   42MOL   H115 7577   5.429   4.596   7.721 -1.4031 -0.6400 -0.2704
   42MOL   H116 7578   5.514   4.546   7.578  1.1028  1.3669  0.3004
   42MOL   H117 7579   5.337   4.664   7.443  1.8556  0.0317 -0.3657
   42MOL   H118 7580   5.165   4.911   7.617  0.8458  0.2876 -0.0424
   42MOL   C119 7581   5.270   4.480   7.504 -0.7216 -0.2132 -0.3225
   42MOL   C120 7582   5.153   4.468   7.402  0.4209 -0.6465 -0.1022
   42MOL   C121 7583   5.100   4.327   7.393 -0.2354  0.9731  0.0367
   42MOL   O122 7584   5.140   4.228   7.327 -0.1245  0.4190 -0.4901
   42MOL   O123 7585   4.992   4.312   7.469 -0.1251  0.3626  0.0194
   42MOL   H124 7586   5.252   4.426   7.597  0.1054  2.9463  1.7724
   42MOL   H125 7587   5.361   4.433   7.470  1.5723  0.0871  4.8355
   42MOL   H126 7588   5.071   4.526   7.443  1.6103  1.2897 -0.4192
   42MOL   H127 7589   4.957   4.224   7.475 -0.2795  0.5665  2.9236
   42MOL   C128 7590   5.183   4.516   7.258 -0.6996 -0.0147 -0.0095
   42MOL   C129 7591   5.087   4.615   7.189 -0.2068  0.0347 -0.2817
   42MOL   C130 7592   5.068   4.589   7.035  0.1903 -0.3360 -0.0390
   42MOL   O131 7593   5.083   4.674   6.949  0.1542 -0.1226 -0.5289
   42MOL   O132 7594   5.030   4.459   6.999 -0.1165 -0.3479 -0.0476
   42MOL   H133 7595   5.197   4.436   7.185 -0.6044  0.3978 -0.4471
   42MOL   H134 7596   5.281   4.563   7.250 -0.1833 -1.1783 -0.6499
   42MOL   H135 7597   4.991   4.578   7.225 -0.1118  0.0288 -0.0389
   42MOL   H136 7598   5.032   4.439   6.907 -0.2559 -0.3357 -0.0521
   42MOL   C137 7599   5.086   4.763   7.224  0.3134 -0.3109  0.2598
   42MOL   C138 7600   4.947   4.834   7.220 -0.2640 -0.2448  0.5379
   42MOL   C139 7601   4.966   4.985   7.196  0.0098  0.1617 -0.3986
   42MOL   O140 7602   4.974   5.075   7.279 -0.3914  0.9206 -0.7589
   42MOL   O141 7603   5.001   5.003   7.064 -0.1400  0.5153  0.1456
   42MOL   H142 7604   5.161   4.813   7.163 -1.1372 -0.2091 -1.4551
   42MOL   H143 7605   5.113   4.781   7.329  0.1935 -0.2960  0.2878
   42MOL   H144 7606   4.898   4.803   7.128 -0.1704  1.0340  0.0598
   42MOL   H145 7607   4.990   4.929   7.007  1.6501 -0.3838  0.9601
   42MOL   C146 7608   4.858   4.803   7.349 -0.0316 -0.6873  0.3615
   42MOL   C147 7609   4.721   4.738   7.309 -0.1097 -0.1651 -0.0512
   42MOL   C148 7610   4.644   4.850   7.248 -0.3078  0.0794 -0.0110
   42MOL   O149 7611   4.638   4.862   7.122  0.7417 -0.0623 -0.5351
   42MOL   O150 7612   4.582   4.934   7.334 -0.0713  0.0838 -0.0446
   42MOL   H151 7613   4.855   4.884   7.422 -0.5568 -0.3839  0.0065
   42MOL   H152 7614   4.919   4.729   7.400 -0.1876 -1.9972 -1.3116
   42MOL   H153 7615   4.737   4.657   7.238 -1.0243  0.4467 -0.9618
   42MOL   H154 7616   4.557   5.015   7.293 -0.3260  0.2812  0.5111
   42MOL   C155 7617   4.649   4.682   7.438  0.0587  0.3077 -0.4868
   42MOL   C156 7618   4.574   4.542   7.418 -0.8178 -0.5574  0.2844
   42MOL   C157 7619   4.490   4.533   7.294 -0.0267 -0.5990  1.2012
   42MOL   O158 7620   4.374   4.566   7.304  0.6159  0.2606  0.1352
   42MOL   O159 7621   4.558   4.484   7.186  0.4007 -0.4552 -0.1291
   42MOL   H160 7622   4.580   4.752   7.485  0.3540  0.3199 -0.0662
   42MOL   H161 7623   4.718   4.669   7.521 -0.0551  2.9329  0.0515
   42MOL   H162 7624   4.648   4.463   7.408 -0.8231 -0.3801 -1.2250
   42MOL   H163 7625   4.506   4.456   7.111 -0.7628 -0.8510  0.8085
   42MOL   C164 7626   4.489   4.507   7.546 -0.8422 -1.0678  0.4401
   42MOL   C165 7627   4.476   4.356   7.588  0.2142 -0.2718  0.4471
   42MOL   C166 7628   4.603   4.309   7.656 -0.9807  0.6911 -0.0273
   42MOL   O167 7629   4.691   4.379   7.703  0.4765 -0.2109  0.1527
   42MOL   O168 7630   4.602   4.171   7.666  0.1991 -0.4254  0.1102
   42MOL   H169 7631   4.394   4.560   7.537 -0.2599 -0.2042 -0.7157
   42MOL   H170 7632   4.518   4.561   7.636 -1.0559  0.6032 -0.4758
   42MOL   H171 7633   4.402   4.365   7.667 -0.7838 -1.5075 -0.3363
   42MOL   H172 7634   4.677   4.145   7.718 -0.3213 -2.2407 -0.0090
   42MOL   C173 7635   4.423   4.251   7.488 -0.6365 -0.4015  0.1223
   42MOL   C174 7636   4.512   4.196   7.368 -0.4299  0.1222  0.5175
   42MOL   C175 7637   4.418   4.139   7.250  0.5148 -0.0224  0.0253
   42MOL   O176 7638   4.420   4.020   7.222 -0.0134  0.2837  0.7309
   42MOL   O177 7639   4.322   4.222   7.213  0.0373  0.0011  0.2120
   42MOL   H178 7640   4.336   4.301   7.446 -1.2811 -2.2791 -0.8278
   42MOL   H179 7641   4.376   4.169   7.542 -0.6950 -0.4663 -0.0271
   42MOL   H180 7642   4.577   4.269   7.320  0.2184  0.3180  1.6644
   42MOL   H181 7643   4.271   4.182   7.145 -1.3774  1.6730  0.2654
   42MOL   H182 7644   4.587   4.121   7.394  0.7023  0.1449 -2.5432
   43MOL     C1 7645   1.881   6.967   2.249 -0.5652  0.3786 -0.1067
   43MOL     C2 7646   1.848   7.107   2.307 -0.1809 -0.0334  0.0884
   43MOL     C3 7647   1.712   7.157   2.262  0.1811  0.3959 -0.4278
   43MOL     O4 7648   1.671   7.146   2.148 -0.6364 -0.2136  0.5227
   43MOL     O5 7649   1.651   7.212   2.369  0.3753  0.1362 -0.3831
   43MOL     H6 7650   1.876   6.957   2.141  0.5016  0.0643 -0.1339
   43MOL     H7 7651   1.980   6.940   2.285 -0.7134 -1.6249 -1.1374
   43MOL     H8 7652   1.841   7.086   2.414  2.7661 -0.4986  0.2060
   43MOL     H9 7653   1.562   7.231   2.344  0.2418 -1.3844 -1.1376
   43MOL    H10 7654   1.810   6.897   2.293  1.7161 -3.1386 -1.8019
   43MOL    C11 7655   1.955   7.206   2.276 -0.1106  0.4820 -0.1300
   43MOL    C12 7656   1.943   7.348   2.346 -0.2214  0.2457 -0.1567
   43MOL    C13 7657   1.844   7.447   2.293 -0.7503  0.2122  0.5701
   43MOL    O14 7658   1.789   7.437   2.184 -0.2053 -0.2126 -0.4867
   43MOL    O15 7659   1.842   7.559   2.371  0.2340 -0.3178  0.0002
   43MOL    H16 7660   1.960   7.212   2.168 -2.3216 -0.1624 -0.2949
   43MOL    H17 7661   2.054   7.171   2.306  1.1355  0.7309 -3.7082
   43MOL    H18 7662   1.902   7.320   2.443 -2.3158  1.8613 -0.5451
   43MOL    H19 7663   1.779   7.621   2.338 -0.8788 -1.9860 -1.0227
   43MOL    C20 7664   2.083   7.415   2.360 -0.3172 -0.2915  0.2155
   43MOL    C21 7665   2.164   7.360   2.489  0.5306  0.5342  0.2123
   43MOL    C22 7666   2.160   7.466   2.607 -0.2650 -0.2681  0.4769
   43MOL    O23 7667   2.087   7.562   2.612  0.3361  0.1781 -1.1304
   43MOL    O24 7668   2.236   7.430   2.705 -0.4948  0.3404 -0.2373
   43MOL    H25 7669   2.083   7.524   2.363  1.4074 -0.2800  0.2477
   43MOL    H26 7670   2.143   7.387   2.274  1.1937  1.0858  0.7891
   43MOL    H27 7671   2.119   7.269   2.527  0.7840  0.6977  0.9246
   43MOL    H28 7672   2.225   7.492   2.775 -0.6974  0.0959 -0.0507
   43MOL    C29 7673   2.312   7.345   2.447 -0.8981  0.0284  0.4181
   43MOL    C30 7674   2.378   7.204   2.437 -0.1141 -0.7070  0.0804
   43MOL    C31 7675   2.307   7.119   2.332  0.8942  0.1543  0.0506
   43MOL    O32 7676   2.262   7.006   2.353 -0.0924  0.1938 -0.4458
   43MOL    O33 7677   2.303   7.178   2.211 -0.3383  0.0670  0.5567
   43MOL    H34 7678   2.381   7.407   2.504  1.8692 -0.4808 -2.2428
   43MOL    H35 7679   2.344   7.407   2.363  0.0325  0.0483  0.7807
   43MOL    H36 7680   2.478   7.223   2.397  0.3921  2.6318  2.7340
   43MOL    H37 7681   2.257   7.122   2.151  0.6166 -1.0169  0.8082
   43MOL    C38 7682   2.405   7.136   2.582 -0.0324  0.3491  0.1095
   43MOL    C39 7683   2.552   7.091   2.594 -0.2829  0.5238  0.2367
   43MOL    C40 7684   2.589   6.972   2.503 -0.5709 -0.3556  0.5069
   43MOL    O41 7685   2.506   6.905   2.439  0.1052  0.2400 -0.0261
   43MOL    O42 7686   2.716   6.949   2.499 -0.0290 -0.5261 -0.0069
   43MOL    H43 7687   2.326   7.066   2.608 -0.7775  2.1960  2.9453
   43MOL    H44 7688   2.389   7.223   2.646  3.0055  1.1732 -0.1409
   43MOL    H45 7689   2.618   7.175   2.571  1.9595 -0.6812  2.0733
   43MOL    H46 7690   2.729   6.868   2.452 -0.7116 -0.8634  0.3831
   43MOL    C47 7691   2.567   7.051   2.744  0.1512  0.2257 -0.4257
   43MOL    C48 7692   2.696   7.107   2.812 -0.0057 -1.1752  0.3239
   43MOL    C49 7693   2.813   7.015   2.792 -0.5681 -0.7260  0.4481
   43MOL    O50 7694   2.900   7.040   2.706  0.0051  0.0953  0.3100
   43MOL    O51 7695   2.798   6.902   2.866 -0.1035 -0.1142 -0.1531
   43MOL    H52 7696   2.557   6.944   2.760  0.8082  0.1379 -0.5739
   43MOL    H53 7697   2.482   7.084   2.805  0.8910 -0.6998  1.1501
   43MOL    H54 7698   2.709   7.209   2.776 -1.8442 -1.7721 -2.1329
   43MOL    H55 7699   2.846   6.833   2.823  0.3808  0.8198 -1.1605
   43MOL    C56 7700   2.674   7.111   2.972 -0.8277  0.6106  0.4294
   43MOL    C57 7701   2.602   7.229   3.033  0.3835 -0.2509  0.2432
   43MOL    C58 7702   2.675   7.360   2.991 -0.0663 -0.5429  0.5509
   43MOL    O59 7703   2.618   7.469   2.953  0.2970 -0.2648  0.3912
   43MOL    O60 7704   2.809   7.345   2.999 -0.5698  0.3214  0.2274
   43MOL    H61 7705   2.769   7.094   3.022 -0.9186 -2.1679 -0.2940
   43MOL    H62 7706   2.613   7.023   2.991  2.3442 -1.6826  0.3279
   43MOL    H63 7707   2.501   7.239   2.996  1.0934 -0.0772 -1.7001
   43MOL    H64 7708   2.845   7.424   2.963 -0.5750 -0.9008 -2.5517
   43MOL    C65 7709   2.599   7.230   3.182 -0.7933 -0.1087  0.6833
   43MOL    C66 7710   2.531   7.112   3.258  0.4394 -0.6064  0.2769
   43MOL    C67 7711   2.404   7.054   3.192  0.6124  0.0848 -0.3227
   43MOL    O68 7712   2.388   6.938   3.158 -0.1070  0.1751 -0.0243
   43MOL    O69 7713   2.305   7.148   3.187  0.1200 -0.7200 -0.0096
   43MOL    H70 7714   2.553   7.324   3.212 -0.6013 -0.5387  2.4284
   43MOL    H71 7715   2.697   7.251   3.226  0.3588 -0.0003 -1.8674
   43MOL    H72 7716   2.611   7.040   3.238 -2.2463 -3.6598  0.1262
   43MOL    H73 7717   2.226   7.109   3.153 -0.9278  0.3564  1.1183
   43MOL    C74 7718   2.516   7.138   3.407 -0.1807  0.5674  0.4336
   43MOL    C75 7719   2.520   7.003   3.484  0.0687  0.9318 -0.6124
   43MOL    C76 7720   2.462   7.051   3.618 -0.6713 -0.0308 -0.1660
   43MOL    O77 7721   2.536   7.075   3.715  0.1429 -0.5434  0.4776
   43MOL    O78 7722   2.325   7.073   3.611 -0.4250 -0.3011  0.1255
   43MOL    H79 7723   2.425   7.195   3.425 -1.5371 -0.6598 -2.2694
   43MOL    H80 7724   2.599   7.199   3.441  0.2718 -0.0560  0.4468
   43MOL    H81 7725   2.451   6.928   3.446  0.0253  0.7397 -0.1654
   43MOL    H82 7726   2.275   7.046   3.536  0.5896 -2.9311  0.3295
   43MOL    C83 7727   2.667   6.938   3.491 -0.8523  0.4705  0.2338
   43MOL    C84 7728   2.688   6.789   3.455 -0.0919  0.2576 -0.3410
   43MOL    C85 7729   2.609   6.749   3.330 -0.0461 -0.5657  0.5031
   43MOL    O86 7730   2.506   6.682   3.337  0.6805  0.5726 -0.2609
   43MOL    O87 7731   2.666   6.796   3.219  0.6729  0.0553  0.2771
   43MOL    H88 7732   2.718   6.954   3.586 -0.6282 -3.7081  0.9180
   43MOL    H89 7733   2.738   6.994   3.431  1.2583 -2.2941  0.0337
   43MOL    H90 7734   2.793   6.787   3.425  0.4915  2.6564  1.3207
   43MOL    H91 7735   2.613   6.781   3.142 -1.4411  1.1490  1.4632
   43MOL    C92 7736   2.671   6.688   3.572  0.0713  0.7079 -0.4088
   43MOL    C93 7737   2.799   6.603   3.610 -0.2416  0.1102 -0.8538
   43MOL    C94 7738   2.775   6.451   3.609  0.6598 -0.4281 -0.2176
   43MOL    O95 7739   2.672   6.393   3.638  0.0435 -0.4612 -0.0165
   43MOL    O96 7740   2.893   6.388   3.586 -0.4572 -0.4033 -0.1348
   43MOL    H97 7741   2.589   6.618   3.552  0.5017  0.1206 -0.1081
   43MOL    H98 7742   2.639   6.744   3.660  1.6172  1.4315 -0.2900
   43MOL    H99 7743   2.878   6.615   3.535  1.7519 -1.0145  1.0062
   43MOL   H100 7744   2.888   6.294   3.578  1.0544 -0.5252  0.2208
   43MOL   C101 7745   2.876   6.645   3.741  0.1431 -0.1980 -0.3041
   43MOL   C102 7746   2.986   6.754   3.720 -0.3210 -0.1225  0.0752
   43MOL   C103 7747   3.103   6.695   3.642  0.5812  0.0335 -0.7979
   43MOL   O104 7748   3.136   6.571   3.641 -0.6530 -0.4125 -0.0976
   43MOL   O105 7749   3.177   6.790   3.577 -0.5307 -0.4490  0.1412
   43MOL   H106 7750   2.916   6.557   3.792  0.3478  0.5368  0.8326
   43MOL   H107 7751   2.792   6.673   3.805 -0.5078 -1.1314 -0.7437
   43MOL   H108 7752   2.937   6.824   3.653  0.6734  0.0334 -0.4886
   43MOL   H109 7753   3.246   6.757   3.523  0.0278 -0.1044  0.6365
   43MOL   C110 7754   3.027   6.814   3.858  0.2487  0.6134 -0.3732
   43MOL   C111 7755   2.911   6.870   3.951 -0.3639  0.7293  0.4229
   43MOL   C112 7756   2.808   6.959   3.881 -0.2661 -0.0131 -0.4263
   43MOL   O113 7757   2.834   7.062   3.826  0.1568  0.4863 -0.5181
   43MOL   O114 7758   2.686   6.898   3.885 -0.2544  0.5542  0.4102
   43MOL   H115 7759   3.103   6.889   3.836  2.1043 -0.4657  2.0660
   43MOL   H116 7760   3.076   6.731   3.909 -1.5095 -1.4914 -2.0176
   43MOL   H117 7761   2.853   6.785   3.987 -1.0249  1.3105  0.7299
   43MOL   H118 7762   2.611   6.935   3.841 -0.3161  0.6559  0.5984
   43MOL   C119 7763   2.976   6.930   4.078  0.1987 -0.0161 -0.4023
   43MOL   C120 7764   2.884   6.982   4.194 -0.3780  0.2055 -0.3747
   43MOL   C121 7765   2.798   6.865   4.246 -0.4962  0.0486  0.0021
   43MOL   O122 7766   2.682   6.855   4.224  0.3974 -0.0587 -0.3909
   43MOL   O123 7767   2.872   6.772   4.316  0.3567 -0.2312  0.1222
   43MOL   H124 7768   3.053   7.002   4.053  0.1858  0.2639  0.3614
   43MOL   H125 7769   3.032   6.858   4.137  0.1997  0.1335 -0.2222
   43MOL   H126 7770   2.952   6.996   4.278  0.6537 -2.0300 -0.8050
   43MOL   H127 7771   2.817   6.697   4.335 -0.3800 -0.4415 -2.6129
   43MOL   C128 7772   2.802   7.108   4.165  0.1641  0.4435 -0.4308
   43MOL   C129 7773   2.727   7.167   4.283 -0.0382  0.3552 -0.3487
   43MOL   C130 7774   2.576   7.197   4.247  0.2117 -0.3319 -0.2534
   43MOL   O131 7775   2.526   7.300   4.292  0.3070 -0.2581 -0.1044
   43MOL   O132 7776   2.517   7.101   4.167 -0.1117  0.5332 -0.3952
   43MOL   H133 7777   2.737   7.072   4.085 -0.4873 -1.3693  0.8870
   43MOL   H134 7778   2.864   7.180   4.111 -1.4979  2.2853  0.0540
   43MOL   H135 7779   2.718   7.093   4.363 -0.3596 -1.0708 -1.6830
   43MOL   H136 7780   2.425   7.121   4.155  0.0707  1.0522 -0.9908
   43MOL   C137 7781   2.804   7.288   4.349  0.1745  0.0199  0.0254
   43MOL   C138 7782   2.804   7.321   4.498 -0.3676 -0.6748 -0.6871
   43MOL   C139 7783   2.671   7.392   4.534 -0.4973 -0.1424  0.2463
   43MOL   O140 7784   2.588   7.340   4.609  0.4681 -0.1300 -0.0047
   43MOL   O141 7785   2.659   7.526   4.488  0.6182 -0.3161  0.7279
   43MOL   H142 7786   2.789   7.370   4.279  0.2376 -0.4552 -0.5423
   43MOL   H143 7787   2.908   7.265   4.326  0.4329  0.4772  0.7048
   43MOL   H144 7788   2.800   7.227   4.554  0.6738  0.0394  0.5931
   43MOL   H145 7789   2.577   7.565   4.514  0.1798 -0.4369 -0.4181
   43MOL   C146 7790   2.927   7.403   4.538 -0.7196  0.4118  0.1878
   43MOL   C147 7791   3.002   7.342   4.664  0.1036  0.0803 -0.2859
   43MOL   C148 7792   2.913   7.359   4.802  0.7184 -0.2722  0.4597
   43MOL   O149 7793   2.821   7.434   4.817 -0.1039  0.3623 -0.5256
   43MOL   O150 7794   2.965   7.276   4.901  0.7133  0.6049 -0.2793
   43MOL   H151 7795   2.896   7.502   4.572 -0.5591 -0.4584  2.9820
   43MOL   H152 7796   2.998   7.417   4.456  1.7821  0.3847  2.2896
   43MOL   H153 7797   3.014   7.233   4.658 -0.3428 -0.0787  1.4206
   43MOL   H154 7798   2.914   7.277   4.980  0.9504  0.4019 -0.1237
   43MOL   C155 7799   3.146   7.388   4.686  0.0193 -0.2526  0.3853
   43MOL   C156 7800   3.171   7.549   4.690 -0.1721 -0.4716 -0.0725
   43MOL   C157 7801   3.311   7.595   4.632 -0.2711 -0.4329  0.4343
   43MOL   O158 7802   3.395   7.517   4.587  0.3929 -0.5838  0.3421
   43MOL   O159 7803   3.341   7.725   4.647 -0.3744  0.3304 -0.0743
   43MOL   H160 7804   3.216   7.345   4.616 -0.2761 -0.1837  0.0472
   43MOL   H161 7805   3.179   7.343   4.780  0.6127  1.0058  0.7875
   43MOL   H162 7806   3.093   7.592   4.627 -0.5406  0.9559  1.3318
   43MOL   H163 7807   3.427   7.741   4.612 -0.5345  0.1659 -0.5374
   43MOL   C164 7808   3.149   7.613   4.837  0.0636  0.4940 -0.5597
   43MOL   C165 7809   3.243   7.548   4.944  0.0001  0.4090  0.7242
   43MOL   C166 7810   3.162   7.492   5.066  0.7869 -0.3763  0.7550
   43MOL   O167 7811   3.063   7.542   5.115 -0.3341  0.3269 -0.0695
   43MOL   O168 7812   3.212   7.375   5.127 -0.4692 -0.1894 -0.0010
   43MOL   H169 7813   3.043   7.613   4.863  0.4296 -0.3829  0.9832
   43MOL   H170 7814   3.167   7.720   4.823  4.2808 -0.0898  0.0601
   43MOL   H171 7815   3.295   7.462   4.901  0.3283  0.5843  0.7717
   43MOL   H172 7816   3.151   7.370   5.199 -0.2675  1.6545  0.3265
   43MOL   C173 7817   3.362   7.645   4.993  0.2933  0.2139  0.0554
   43MOL   C174 7818   3.316   7.753   5.092 -0.6775 -0.5676  0.0124
   43MOL   C175 7819   3.430   7.846   5.133  0.1849 -0.0779 -0.4464
   43MOL   O176 7820   3.418   0.113   5.158  0.1916  0.3004 -0.0750
   43MOL   O177 7821   3.553   7.785   5.151  0.4869  0.2916 -0.0584
   43MOL   H178 7822   3.412   7.696   4.910  2.4258 -2.4627 -0.3774
   43MOL   H179 7823   3.442   7.586   5.036 -0.3116 -1.3259 -0.8960
   43MOL   H180 7824   3.239   7.813   5.044  0.4599  0.5689 -0.4217
   43MOL   H181 7825   3.606   7.851   5.192  0.1097  0.3362  0.3701
   43MOL   H182 7826   3.278   7.712   5.185  0.5747 -0.1740  0.7250
   44MOL     C1 7827   3.058   0.178   2.604  0.0957  0.0218 -0.5093
   44MOL     C2 7828   3.017   0.174   2.456  0.4193 -0.3512  0.3887
   44MOL     C3 7829   3.143   0.162   2.365 -0.1284 -0.3753  0.2379
   44MOL     O4 7830   3.258   0.165   2.401 -0.2686  0.3845  0.5524
   44MOL     O5 7831   3.103   0.160   2.236  0.3006  0.4365 -0.3355
   44MOL     H6 7832   3.126   0.099   2.636  0.5102  0.6030  0.0581
   44MOL     H7 7833   3.096   0.278   2.623 -0.6034  0.2509 -0.3094
   44MOL     H8 7834   2.954   0.087   2.439 -1.4380  1.0253  0.0433
   44MOL     H9 7835   3.174   0.147   2.175  0.6919  2.0151 -0.2401
   44MOL    H10 7836   2.966   0.166   2.660  0.4123 -0.7786 -0.1489
   44MOL    C11 7837   2.943   0.312   2.422 -0.6559 -0.1068  0.4013
   44MOL    C12 7838   2.794   0.340   2.466 -0.3732  0.5001 -0.2683
   44MOL    C13 7839   2.697   0.238   2.404  0.2922 -0.5110 -0.2090
   44MOL    O14 7840   2.696   0.214   2.284 -0.0980  0.0535  0.2184
   44MOL    O15 7841   2.606   0.187   2.490 -0.4208 -0.0658  0.0953
   44MOL    H16 7842   2.941   0.316   2.313 -1.5891  0.3132  0.4303
   44MOL    H17 7843   3.006   0.394   2.455  1.0358 -1.3715  0.3577
   44MOL    H18 7844   2.782   0.315   2.572 -0.6443 -0.5853 -0.5544
   44MOL    H19 7845   2.545   0.134   2.440 -0.1499 -0.2595 -0.0264
   44MOL    C20 7846   2.752   0.482   2.427  0.0948 -0.0183 -0.0481
   44MOL    C21 7847   2.618   0.533   2.502 -0.6900  0.1082  0.4796
   44MOL    C22 7848   2.532   0.625   2.407  0.6463 -0.0201  0.6856
   44MOL    O23 7849   2.439   0.578   2.345 -0.0275 -0.2217  0.2121
   44MOL    O24 7850   2.563   0.755   2.405 -0.4279  0.1058  0.4836
   44MOL    H25 7851   2.732   0.482   2.320 -1.8838 -2.0928  0.2820
   44MOL    H26 7852   2.822   0.564   2.444 -1.1404  0.7724  1.4408
   44MOL    H27 7853   2.556   0.444   2.520  0.6160 -0.9650 -0.2096
   44MOL    H28 7854   2.516   0.807   2.342  1.1394  0.2601 -0.5820
   44MOL    C29 7855   2.653   0.585   2.648 -0.1165  0.7614  1.2097
   44MOL    C30 7856   2.546   0.613   2.747 -0.1988 -0.0372 -0.4317
   44MOL    C31 7857   2.598   0.706   2.853 -0.2854 -0.0462  0.1654
   44MOL    O32 7858   2.534   0.734   2.955 -0.1332 -0.4566 -0.3309
   44MOL    O33 7859   2.729   0.754   2.848 -0.2986  0.2570 -0.0525
   44MOL    H34 7860   2.707   0.677   2.624 -0.5097  1.2574  2.1838
   44MOL    H35 7861   2.728   0.523   2.697  0.5910  0.8748  0.2679
   44MOL    H36 7862   2.454   0.656   2.705 -1.1917  0.0707  1.7774
   44MOL    H37 7863   2.743   0.813   2.921 -0.7517 -0.2748  0.4670
   44MOL    C38 7864   2.491   0.479   2.810  0.3376  0.1330  0.0657
   44MOL    C39 7865   2.358   0.509   2.889 -0.5813  0.0558  0.2171
   44MOL    C40 7866   2.360   0.473   3.042  0.4081 -0.0781 -0.3101
   44MOL    O41 7867   2.325   0.366   3.084 -0.4723  0.0239  0.0650
   44MOL    O42 7868   2.419   0.565   3.124  0.6327  0.2009  0.3532
   44MOL    H43 7869   2.557   0.423   2.875  0.1154 -1.4718 -1.0680
   44MOL    H44 7870   2.458   0.415   2.728 -0.2722  0.6175 -0.0774
   44MOL    H45 7871   2.347   0.617   2.897 -0.8625  0.1645 -1.4025
   44MOL    H46 7872   2.445   0.642   3.076 -0.0741 -0.4357 -1.0696
   44MOL    C47 7873   2.236   0.449   2.826 -0.3391 -0.2942 -0.4008
   44MOL    C48 7874   2.183   0.515   2.692 -0.2537 -0.3029  0.0060
   44MOL    C49 7875   2.129   0.663   2.718 -0.4961  0.1120  0.1353
   44MOL    O50 7876   2.117   0.714   2.826  0.0642  0.2383 -0.6087
   44MOL    O51 7877   2.093   0.724   2.605  0.7453  0.5743 -0.4513
   44MOL    H52 7878   2.153   0.452   2.897 -0.3754  0.7675 -0.4931
   44MOL    H53 7879   2.255   0.341   2.820 -1.4945 -0.6131  1.2346
   44MOL    H54 7880   2.268   0.531   2.625 -0.5237  0.5526 -0.1417
   44MOL    H55 7881   2.126   0.680   2.529  0.7237  1.8588 -1.2094
   44MOL    C56 7882   2.066   0.436   2.634  0.5873 -0.5687  0.3610
   44MOL    C57 7883   2.107   0.296   2.567  0.0446  0.6454 -0.2317
   44MOL    C58 7884   2.221   0.307   2.466  0.9275  0.2483 -0.1560
   44MOL    O59 7885   2.339   0.290   2.496  0.0281 -0.8541 -0.3083
   44MOL    O60 7886   2.187   0.338   2.339 -0.3233  0.1896 -0.2689
   44MOL    H61 7887   2.022   0.491   2.551 -2.3370  0.4675  2.4918
   44MOL    H62 7888   1.982   0.427   2.703  1.1146 -0.6492  1.0000
   44MOL    H63 7889   2.151   0.228   2.640  0.2972 -1.0845 -1.9666
   44MOL    H64 7890   2.260   0.342   2.280  0.0328 -2.6183 -0.0952
   44MOL    C65 7891   1.983   0.226   2.505  0.1150  0.0942  0.0918
   44MOL    C66 7892   1.884   0.156   2.605  0.7823  0.9085  0.3148
   44MOL    C67 7893   1.908   0.003   2.612  0.6129  0.0529  0.7185
   44MOL    O68 7894   1.822   7.773   2.585 -0.2291 -0.1720 -0.0259
   44MOL    O69 7895   2.037   7.823   2.626 -0.3445 -0.5478  0.1902
   44MOL    H70 7896   2.028   0.154   2.437 -0.7534 -0.6561  0.3136
   44MOL    H71 7897   1.934   0.304   2.448 -1.7371 -1.3054 -0.2686
   44MOL    H72 7898   1.905   0.204   2.701  1.8338  2.0275 -0.4583
   44MOL    H73 7899   2.035   7.729   2.620 -2.0157 -0.5204  0.2158
   44MOL    C74 7900   1.732   0.185   2.573 -0.6120  0.6283 -0.0402
   44MOL    C75 7901   1.689   0.337   2.573  0.0899 -0.2692  0.1122
   44MOL    C76 7902   1.669   0.385   2.715 -0.1075 -0.6736  0.4662
   44MOL    O77 7903   1.639   0.323   2.811 -0.0262 -0.6876 -0.7578
   44MOL    O78 7904   1.691   0.520   2.724  0.4380 -0.1939 -0.2481
   44MOL    H79 7905   1.669   0.131   2.642  0.9596  0.4681  1.2944
   44MOL    H80 7906   1.708   0.152   2.472  2.1152 -2.2580  0.2019
   44MOL    H81 7907   1.771   0.401   2.539 -0.5216  0.1968 -0.5037
   44MOL    H82 7908   1.686   0.547   2.815 -0.1900  1.9253 -0.8831
   44MOL    C83 7909   1.566   0.371   2.487 -0.2077 -0.1706  0.1621
   44MOL    C84 7910   1.594   0.484   2.382 -0.0733 -0.1777 -0.1669
   44MOL    C85 7911   1.466   0.549   2.343  0.0272 -0.2411  0.8955
   44MOL    O86 7912   1.374   0.491   2.283 -0.1059  0.7407 -0.1217
   44MOL    O87 7913   1.460   0.682   2.373 -0.0905  0.4879  0.1532
   44MOL    H88 7914   1.486   0.398   2.557 -0.7920 -0.5123 -0.3684
   44MOL    H89 7915   1.521   0.286   2.435  0.9549  1.3745 -3.5076
   44MOL    H90 7916   1.657   0.556   2.434  0.1902 -0.4298 -0.1378
   44MOL    H91 7917   1.376   0.715   2.347 -0.1126 -1.5884 -2.6528
   44MOL    C92 7918   1.670   0.418   2.261  0.1369 -1.1455 -0.8903
   44MOL    C93 7919   1.751   0.515   2.172 -0.4571  0.1561 -0.4365
   44MOL    C94 7920   1.751   0.476   2.021  0.1224 -0.1175  0.0658
   44MOL    O95 7921   1.828   0.401   1.966 -0.3201 -0.4533  0.1457
   44MOL    O96 7922   1.659   0.556   1.961  0.6477  0.0824 -0.5866
   44MOL    H97 7923   1.597   0.381   2.189 -1.9848  0.5939  0.2645
   44MOL    H98 7924   1.737   0.343   2.304  0.3810  0.2730  1.3144
   44MOL    H99 7925   1.706   0.614   2.175  1.5242  1.0487  0.9511
   44MOL   H100 7926   1.650   0.528   1.872  0.2849 -0.6023 -0.3414
   44MOL   C101 7927   1.900   0.532   2.229 -0.2697 -0.6782 -0.1024
   44MOL   C102 7928   1.996   0.641   2.157  0.4527 -0.4084 -0.2850
   44MOL   C103 7929   2.128   0.651   2.240  0.4659  0.1143  0.4762
   44MOL   O104 7930   2.138   0.658   2.359  0.2061  0.8735 -0.2216
   44MOL   O105 7931   2.234   0.656   2.159  0.2969 -0.5099 -0.8882
   44MOL   H106 7932   1.957   0.440   2.222 -0.0349 -0.6830  1.7702
   44MOL   H107 7933   1.895   0.559   2.334  1.0220 -0.8357  0.0102
   44MOL   H108 7934   2.023   0.592   2.064 -0.8511  0.9701 -1.4124
   44MOL   H109 7935   2.310   0.668   2.214 -0.8308  0.5642  0.4630
   44MOL   C110 7936   1.934   0.778   2.128 -0.1186  0.2474 -0.7678
   44MOL   C111 7937   1.939   0.899   2.222 -0.1419  0.4271 -0.6426
   44MOL   C112 7938   1.861   0.871   2.348  0.5369  0.5280  0.3719
   44MOL   O113 7939   1.749   0.816   2.347 -0.4274  0.0589  0.3773
   44MOL   O114 7940   1.916   0.933   2.458 -0.1643  0.1591 -0.0246
   44MOL   H115 7941   1.830   0.772   2.094 -1.0061  3.1891  1.1994
   44MOL   H116 7942   1.979   0.809   2.034 -2.0014 -0.3795 -1.9190
   44MOL   H117 7943   2.040   0.917   2.258  0.2839 -1.7242 -0.6940
   44MOL   H118 7944   1.865   0.922   2.537 -0.2751 -0.9408 -0.2507
   44MOL   C119 7945   1.891   1.027   2.154 -0.3522 -0.1747  0.0758
   44MOL   C120 7946   1.977   1.084   2.034 -0.6113  0.1385 -0.2579
   44MOL   C121 7947   2.105   1.163   2.076  0.2594  0.5555  0.1301
   44MOL   O122 7948   2.107   1.225   2.182 -0.4125 -0.2568  0.8455
   44MOL   O123 7949   2.207   1.156   1.986  0.4512 -0.8262  0.1816
   44MOL   H124 7950   1.882   1.100   2.235 -1.5974  1.3357 -1.3598
   44MOL   H125 7951   1.792   0.993   2.124 -0.0944 -0.2795 -0.6549
   44MOL   H126 7952   2.022   1.011   1.966 -0.4240  0.7449 -0.7949
   44MOL   H127 7953   2.278   1.205   2.024  1.6470 -0.3922 -2.5157
   44MOL   C128 7954   1.877   1.175   1.959  0.0823  0.6357  0.4394
   44MOL   C129 7955   1.905   1.194   1.807 -0.0498 -0.6897 -0.0914
   44MOL   C130 7956   1.844   1.322   1.748 -0.3379  0.6896 -0.0973
   44MOL   O131 7957   1.794   1.321   1.638 -0.5352 -0.2087 -0.9264
   44MOL   O132 7958   1.867   1.435   1.818  0.0124 -0.4875 -0.2057
   44MOL   H133 7959   1.863   1.269   2.011 -0.5340  0.7541  0.0563
   44MOL   H134 7960   1.786   1.115   1.958  0.8133 -0.5145  1.4602
   44MOL   H135 7961   2.011   1.216   1.796 -0.2680  0.6136  0.3201
   44MOL   H136 7962   1.844   1.519   1.781  1.1125 -0.4735 -0.8660
   44MOL   C137 7963   1.872   1.066   1.728 -0.4169 -0.9857  0.3667
   44MOL   C138 7964   1.946   1.059   1.591 -0.5131  0.7470 -0.1640
   44MOL   C139 7965   1.849   1.023   1.479  0.3119  0.0020  0.8074
   44MOL   O140 7966   1.854   0.916   1.425 -0.3887  0.5228 -0.3497
   44MOL   O141 7967   1.756   1.118   1.461 -0.1864  0.0024 -0.3303
   44MOL   H142 7968   1.763   1.059   1.719 -0.3671 -1.9983  0.4604
   44MOL   H143 7969   1.913   0.980   1.781 -0.3471 -1.2850 -0.1694
   44MOL   H144 7970   1.995   1.155   1.581 -1.2149  1.3304  1.8658
   44MOL   H145 7971   1.770   1.195   1.513 -1.9999  1.2877 -1.6757
   44MOL   C146 7972   2.069   0.966   1.599 -0.6720 -0.0935  0.5799
   44MOL   C147 7973   2.199   0.963   1.504  0.3658  0.2720 -0.4800
   44MOL   C148 7974   2.169   0.967   1.353 -0.0802  0.4252  0.4988
   44MOL   O149 7975   2.139   0.865   1.292  0.2594 -0.4914 -0.4248
   44MOL   O150 7976   2.170   1.094   1.302  0.0519 -0.0738 -0.2633
   44MOL   H151 7977   2.032   0.863   1.602 -2.7669  0.6096  0.0248
   44MOL   H152 7978   2.109   0.974   1.700 -1.5712 -1.8467  1.1077
   44MOL   H153 7979   2.247   1.057   1.531 -0.9620 -0.2832  4.3453
   44MOL   H154 7980   2.154   1.080   1.210  0.3170 -0.1854 -0.2936
   44MOL   C155 7981   2.285   0.837   1.528 -0.1896  0.7871  0.0060
   44MOL   C156 7982   2.423   0.814   1.462 -0.8978  0.3096 -0.0023
   44MOL   C157 7983   2.454   0.667   1.475  0.4895  0.1225 -0.0584
   44MOL   O158 7984   2.529   0.619   1.561 -0.1161  0.2457  0.1351
   44MOL   O159 7985   2.392   0.593   1.377 -0.3260  0.5095 -0.4724
   44MOL   H160 7986   2.229   0.745   1.513 -0.1176  0.1914  3.1218
   44MOL   H161 7987   2.306   0.844   1.634 -0.3429  1.6175 -0.0148
   44MOL   H162 7988   2.422   0.839   1.356 -1.9827  0.4111  0.0320
   44MOL   H163 7989   2.356   0.636   1.301  1.6560 -0.0521 -1.7785
   44MOL   C164 7990   2.531   0.894   1.531  0.7686 -0.3981  0.5319
   44MOL   C165 7991   2.652   0.928   1.443 -0.0114  0.1506  0.3281
   44MOL   C166 7992   2.756   1.001   1.523  0.2307 -0.4380 -0.5548
   44MOL   O167 7993   2.730   1.089   1.607 -0.2741 -0.0318 -0.1535
   44MOL   O168 7994   2.882   0.978   1.479  0.2296 -0.3463  0.2739
   44MOL   H169 7995   2.560   0.866   1.632 -3.0057  0.5796  1.9908
   44MOL   H170 7996   2.482   0.989   1.552  0.1712 -0.1427 -1.8995
   44MOL   H171 7997   2.696   0.831   1.419 -0.5897 -0.1027  0.2976
   44MOL   H172 7998   2.888   0.914   1.410  0.1278 -1.0120  0.8893
   44MOL   C173 7999   2.621   0.993   1.307  0.2968 -0.0038 -0.4769
   44MOL   C174 8000   2.531   1.117   1.319 -0.2883  0.3194  0.8535
   44MOL   C175 8001   2.466   1.157   1.184 -0.6084  0.1682  0.1332
   44MOL   O176 8002   2.470   1.085   1.088 -0.1101  1.0669  0.4926
   44MOL   O177 8003   2.416   1.277   1.176  0.4499  0.5036 -0.1518
   44MOL   H178 8004   2.579   0.912   1.248  1.5981 -1.0643  0.0548
   44MOL   H179 8005   2.713   1.030   1.263  0.2811 -0.1689 -0.6463
   44MOL   H180 8006   2.451   1.117   1.392  0.0201  2.4808  1.2459
   44MOL   H181 8007   2.368   1.284   1.095 -1.2580 -0.9365  0.6894
   44MOL   H182 8008   2.579   1.211   1.348  0.1059  0.2038  0.5825
   45MOL     C1 8009   0.081   5.924   3.089  0.3901  0.4581 -0.4157
   45MOL     C2 8010   0.119   5.883   2.949 -0.3283  0.3289 -0.1712
   45MOL     C3 8011   0.077   5.978   2.835 -0.2216  0.0685  0.4092
   45MOL     O4 8012   0.160   6.037   2.760 -0.1637  0.0004  0.0396
   45MOL     O5 8013   7.794   5.975   2.823 -0.0157 -0.3788  0.3013
   45MOL     H6 8014   7.827   5.918   3.111  0.4909  0.9451  0.2293
   45MOL     H7 8015   0.135   5.870   3.166  0.3094  0.0052 -0.6776
   45MOL     H8 8016   0.226   5.903   2.953 -0.7618  2.6137  0.9378
   45MOL     H9 8017   7.769   6.034   2.752  0.4874 -0.4121  0.0916
   45MOL    H10 8018   0.091   6.033   3.097 -0.2827  0.4869  0.0555
   45MOL    C11 8019   0.074   5.731   2.918  0.2451  0.5700  0.2844
   45MOL    C12 8020   0.154   5.666   2.804 -0.0950  0.1500 -0.0833
   45MOL    C13 8021   0.098   5.524   2.766 -0.5277  0.2882 -0.6542
   45MOL    O14 8022   0.111   5.478   2.651 -0.5350 -0.2543  0.7945
   45MOL    O15 8023   0.024   5.457   2.857 -0.1435  0.7702  0.0302
   45MOL    H16 8024   7.825   5.722   2.880  1.6897 -1.2259 -3.4060
   45MOL    H17 8025   0.071   5.674   3.012  1.1849 -3.0531 -1.7899
   45MOL    H18 8026   0.144   5.730   2.716 -1.4761 -1.1817 -0.9128
   45MOL    H19 8027   7.852   5.381   2.808  0.9314  0.0390  0.5979
   45MOL    C20 8028   0.307   5.655   2.828 -0.5345  0.0877  0.0119
   45MOL    C21 8029   0.404   5.720   2.728 -0.2187  0.1910  0.4642
   45MOL    C22 8030   0.403   5.634   2.597 -0.3116  0.1174 -0.2910
   45MOL    O23 8031   0.419   5.515   2.595 -0.2300 -0.2800 -0.4434
   45MOL    O24 8032   0.392   5.709   2.480 -0.0054 -0.0948  0.3274
   45MOL    H25 8033   0.339   5.551   2.837 -1.4947 -0.3642 -1.6957
   45MOL    H26 8034   0.314   5.696   2.929 -1.1647  1.4446 -0.4820
   45MOL    H27 8035   0.361   5.819   2.710 -0.7958 -0.0946  0.2669
   45MOL    H28 8036   0.388   5.658   2.401 -0.6102  1.3278 -0.5804
   45MOL    C29 8037   0.544   5.728   2.775  0.5407 -0.2335  0.5312
   45MOL    C30 8038   0.580   5.832   2.888  0.4618  0.3964 -0.0896
   45MOL    C31 8039   0.515   5.964   2.854 -0.0828 -0.2691 -0.0751
   45MOL    O32 8040   0.422   6.014   2.912 -0.1808  1.0185 -0.2984
   45MOL    O33 8041   0.575   6.017   2.743 -0.0151 -0.3938 -0.3278
   45MOL    H34 8042   0.603   5.753   2.688  0.6451  0.7370  0.8735
   45MOL    H35 8043   0.581   5.629   2.801 -2.4634 -1.1880  1.3952
   45MOL    H36 8044   0.545   5.789   2.982 -2.3026  1.1088 -0.7746
   45MOL    H37 8045   0.531   6.099   2.727 -0.2419 -0.5198 -0.3496
   45MOL    C38 8046   0.743   5.841   2.916  0.0450 -0.2362 -0.4185
   45MOL    C39 8047   0.799   5.877   3.057  0.6151  0.1666 -0.3487
   45MOL    C40 8048   0.775   5.763   3.161 -0.0252  0.4370 -0.4038
   45MOL    O41 8049   0.704   5.665   3.145  0.0213  0.6403  0.1385
   45MOL    O42 8050   0.849   5.780   3.274 -0.3059  0.1871 -0.2206
   45MOL    H43 8051   0.799   5.908   2.850 -1.9299 -0.5459 -2.4994
   45MOL    H44 8052   0.784   5.743   2.891 -0.5368 -1.0575  1.7835
   45MOL    H45 8053   0.907   5.890   3.049  0.4094  1.6706 -1.0168
   45MOL    H46 8054   0.859   5.705   3.330 -1.1246  0.9947  1.0707
   45MOL    C47 8055   0.751   6.013   3.126  0.1060  0.2512 -0.2189
   45MOL    C48 8056   0.782   6.133   3.050  0.4052 -0.7566 -0.4876
   45MOL    C49 8057   0.930   6.140   3.009  0.4137 -0.1193 -0.0516
   45MOL    O50 8058   0.970   6.120   2.897  0.7706 -0.0100 -0.3233
   45MOL    O51 8059   1.011   6.164   3.117 -0.4652 -0.0044  0.3336
   45MOL    H52 8060   0.785   6.019   3.229 -1.7537  2.3349  0.3173
   45MOL    H53 8061   0.646   5.993   3.149  0.4349  2.1009  3.2293
   45MOL    H54 8062   0.734   6.116   2.954  2.1417 -1.9572 -1.1696
   45MOL    H55 8063   1.103   6.145   3.108 -0.1985  0.8972  1.1363
   45MOL    C56 8064   0.739   6.264   3.121 -0.0257 -0.2317  0.6449
   45MOL    C57 8065   0.592   6.299   3.087 -0.4501  0.3299  0.2205
   45MOL    C58 8066   0.581   6.381   2.969 -0.0438  1.1089 -0.1956
   45MOL    O59 8067   0.559   6.506   2.964 -0.4078 -0.0123  0.4728
   45MOL    O60 8068   0.588   6.292   2.868 -0.0835 -0.7278  0.0184
   45MOL    H61 8069   0.803   6.340   3.075  1.8394 -0.7657  2.3140
   45MOL    H62 8070   0.757   6.258   3.228  0.4992  1.2132  0.6541
   45MOL    H63 8071   0.541   6.206   3.062 -0.0944  0.5116 -1.2035
   45MOL    H64 8072   0.569   6.332   2.784 -2.8005 -0.4921  0.6914
   45MOL    C65 8073   0.525   6.367   3.208 -0.1264 -0.1068  0.5035
   45MOL    C66 8074   0.467   6.266   3.306 -0.3458  0.4002  0.3370
   45MOL    C67 8075   0.343   6.188   3.258 -0.6891 -0.4999  0.8351
   45MOL    O68 8076   0.227   6.238   3.264 -0.0755  0.6955  0.5623
   45MOL    O69 8077   0.371   6.062   3.211  0.3275  0.1776 -0.2243
   45MOL    H70 8078   0.440   6.426   3.176  0.9514  1.7576  0.9816
   45MOL    H71 8079   0.598   6.434   3.254 -1.3428  1.1767  0.6038
   45MOL    H72 8080   0.543   6.193   3.336  1.1948  1.1838 -1.5464
   45MOL    H73 8081   0.285   6.026   3.194 -0.6718  2.6755 -0.5852
   45MOL    C74 8082   0.454   6.341   3.442  0.3637 -0.1557 -0.2942
   45MOL    C75 8083   0.496   6.261   3.571  0.3120  0.5004  0.1815
   45MOL    C76 8084   0.650   6.239   3.576 -0.1519  0.0941 -0.9331
   45MOL    O77 8085   0.725   6.291   3.492 -0.4446  0.1560 -0.3448
   45MOL    O78 8086   0.690   6.175   3.691 -0.1822 -0.0218  0.0140
   45MOL    H79 8087   0.348   6.352   3.464  0.8964  0.7591  1.9470
   45MOL    H80 8088   0.493   6.443   3.449  1.0130 -0.4987  1.1729
   45MOL    H81 8089   0.483   6.325   3.658  0.2201  1.6549 -0.6517
   45MOL    H82 8090   0.782   6.154   3.684  0.0682  0.5809  1.2446
   45MOL    C83 8091   0.411   6.135   3.603  0.1884  0.8790 -0.2963
   45MOL    C84 8092   0.279   6.143   3.676 -0.4277 -0.1375  0.1931
   45MOL    C85 8093   0.298   6.168   3.830 -0.5000 -0.2528  0.2580
   45MOL    O86 8094   0.403   6.214   3.875 -0.0834  0.7164  0.5806
   45MOL    O87 8095   0.189   6.144   3.900 -0.0073  0.2551 -0.3412
   45MOL    H88 8096   0.467   6.060   3.659  0.3721  0.5767 -0.8767
   45MOL    H89 8097   0.405   6.082   3.508  1.0671 -2.9080  1.6195
   45MOL    H90 8098   0.231   6.231   3.633 -1.3853 -0.9853 -0.5156
   45MOL    H91 8099   0.197   6.145   3.994 -1.1171 -1.4275 -0.2103
   45MOL    C92 8100   0.182   6.029   3.641  0.3978  0.7640 -0.4717
   45MOL    C93 8101   0.036   6.059   3.631 -0.3899 -1.0469 -0.0224
   45MOL    C94 8102   7.797   5.953   3.690 -0.2475  0.0048  0.3872
   45MOL    O95 8103   7.757   5.957   3.803  0.1519  0.3362  0.0704
   45MOL    O96 8104   7.782   5.853   3.603  0.1316  0.2697 -0.5774
   45MOL    H97 8105   0.191   5.942   3.706 -1.7891  0.6463 -0.2715
   45MOL    H98 8106   0.210   5.986   3.545 -0.8763 -0.5674 -0.2697
   45MOL    H99 8107   0.024   6.132   3.711  2.3093 -1.3267  0.7027
   45MOL   H100 8108   7.735   5.781   3.643  2.2165 -0.3407  0.8037
   45MOL   C101 8109   7.843   6.135   3.505  0.0991 -0.6254 -0.2636
   45MOL   C102 8110   7.702   6.202   3.527  0.2930  0.3641 -0.0476
   45MOL   C103 8111   7.585   6.110   3.481  0.5356 -0.2685 -0.7110
   45MOL   O104 8112   7.592   6.013   3.401 -0.3958  0.6847  0.0976
   45MOL   O105 8113   7.468   6.147   3.539 -1.0648  0.4664  0.0849
   45MOL   H106 8114   7.845   6.064   3.422  1.1975 -0.9098  0.0036
   45MOL   H107 8115   0.064   6.208   3.475  0.2650 -0.7894 -0.2532
   45MOL   H108 8116   7.693   6.226   3.633  0.8897  3.5665 -0.6594
   45MOL   H109 8117   7.473   6.224   3.593  0.4355  0.4956 -0.0641
   45MOL   C110 8118   7.696   6.339   3.463  0.5101  0.6704 -0.0327
   45MOL   C111 8119   7.776   6.453   3.530 -0.4648  0.0764 -0.4299
   45MOL   C112 8120   7.693   6.553   3.604  0.4558  0.1115 -0.2716
   45MOL   O113 8121   7.579   6.590   3.573  0.3735 -0.4182 -0.2485
   45MOL   O114 8122   7.754   6.605   3.717 -0.1310 -0.6028 -0.0363
   45MOL   H115 8123   7.589   6.359   3.457 -0.3298 -3.2018  0.8225
   45MOL   H116 8124   7.734   6.322   3.362  2.5874 -0.2452  0.8717
   45MOL   H117 8125   7.849   6.406   3.596  0.4320  0.3647 -1.2023
   45MOL   H118 8126   7.695   6.672   3.747  0.7091 -0.2135  0.7586
   45MOL   C119 8127   0.009   6.529   3.423  0.5067  0.1621 -0.3927
   45MOL   C120 8128   0.123   6.639   3.450  0.1908 -0.8162  0.0777
   45MOL   C121 8129   0.232   6.600   3.548  0.5144 -0.0072  0.5388
   45MOL   O122 8130   0.228   6.494   3.612 -0.1976  0.1351  0.0814
   45MOL   O123 8131   0.336   6.687   3.546 -0.4375 -0.2261  0.1924
   45MOL   H124 8132   7.796   6.571   3.347 -0.3661 -2.2951 -1.0637
   45MOL   H125 8133   0.070   6.452   3.376  1.0061  0.2044  0.1802
   45MOL   H126 8134   0.166   6.650   3.351  0.4027 -0.3074  0.2260
   45MOL   H127 8135   0.405   6.659   3.604  0.6066 -0.0985 -0.9903
   45MOL   C128 8136   0.063   6.773   3.495 -0.2149  0.0676 -0.0636
   45MOL   C129 8137   0.107   6.899   3.417 -0.4433 -0.1994  0.8253
   45MOL   C130 8138   0.050   7.028   3.491 -0.1689  0.2039 -0.2186
   45MOL   O131 8139   0.115   7.128   3.532 -0.4706 -0.7584  0.8963
   45MOL   O132 8140   7.767   7.017   3.523 -0.4834 -0.0116  0.3185
   45MOL   H133 8141   0.077   6.784   3.602 -1.9736 -1.4013  0.3412
   45MOL   H134 8142   7.809   6.764   3.471  0.4089 -1.3227 -2.5239
   45MOL   H135 8143   0.216   6.894   3.414 -0.4666 -0.2277 -0.0806
   45MOL   H136 8144   7.749   7.097   3.571  0.6443 -1.5003  3.3263
   45MOL   C137 8145   0.050   6.893   3.276  1.1431  0.5556 -0.4579
   45MOL   C138 8146   0.151   6.936   3.162  0.0392 -0.4530 -0.0315
   45MOL   C139 8147   0.116   7.077   3.121 -0.0022 -0.3170  0.2797
   45MOL   O140 8148   0.114   7.171   3.200  0.3267  0.1870 -0.4047
   45MOL   O141 8149   0.102   7.104   2.988  0.3049  0.0745 -0.1426
   45MOL   H142 8150   7.809   6.946   3.257  1.6968  1.7190  0.0599
   45MOL   H143 8151   0.030   6.788   3.254  3.0349  0.4193 -1.7033
   45MOL   H144 8152   0.251   6.941   3.205 -0.5065 -2.6169  1.6206
   45MOL   H145 8153   0.070   7.193   2.994  0.4327  0.1649 -0.8406
   45MOL   C146 8154   0.139   6.846   3.040 -0.4585 -0.2321  0.1064
   45MOL   C147 8155   0.198   6.709   3.059 -0.6702  0.3431 -0.5448
   45MOL   C148 8156   0.345   6.721   3.082 -0.4128  0.1383 -0.6220
   45MOL   O149 8157   0.418   6.759   2.994 -0.8706 -0.2208 -0.2819
   45MOL   O150 8158   0.388   6.689   3.208 -0.5835 -0.0126  0.0425
   45MOL   H151 8159   0.175   6.897   2.951 -0.4762  0.2921  0.3966
   45MOL   H152 8160   0.032   6.841   3.024 -0.6497  0.1604  1.2241
   45MOL   H153 8161   0.156   6.661   3.147 -0.0784  0.9676  0.0764
   45MOL   H154 8162   0.480   6.710   3.208 -0.1542 -1.7921  1.2606
   45MOL   C155 8163   0.161   6.605   2.945  0.5477  0.3219  0.1756
   45MOL   C156 8164   0.165   6.456   2.999  0.0776  0.6407  0.0724
   45MOL   C157 8165   0.193   6.351   2.888 -0.5095  0.2766 -0.1850
   45MOL   O158 8166   0.145   6.358   2.774  0.3782 -0.2575  0.5089
   45MOL   O159 8167   0.267   6.247   2.934  0.3135  0.5015 -0.2020
   45MOL   H160 8168   0.222   6.618   2.855  1.0719 -2.5408  0.0465
   45MOL   H161 8169   0.057   6.621   2.917  0.3644 -0.4509  0.3849
   45MOL   H162 8170   0.247   6.464   3.070 -0.5750  0.4900  0.8589
   45MOL   H163 8171   0.276   6.179   2.870 -0.9167  0.6428 -0.5324
   45MOL   C164 8172   0.029   6.417   3.077  0.1672  0.2094  0.4780
   45MOL   C165 8173   7.750   6.431   2.996 -0.4611  0.1635 -0.2507
   45MOL   C166 8174   7.650   6.524   3.068  0.2473 -0.1901 -0.0095
   45MOL   O167 8175   7.530   6.498   3.081  0.4340 -0.1344  0.2156
   45MOL   O168 8176   7.706   6.639   3.101 -0.5127 -0.5496  0.3435
   45MOL   H169 8177   0.028   6.479   3.166  1.4267  2.5130 -1.0426
   45MOL   H170 8178   0.022   6.319   3.123  1.3152  1.0586  2.5364
   45MOL   H171 8179   7.772   6.480   2.901  0.6045  2.0079  0.9259
   45MOL   H172 8180   7.639   6.693   3.141 -0.1827 -0.0633  0.2379
   45MOL   C173 8181   7.693   6.298   2.942  0.2657 -0.1347  0.0946
   45MOL   C174 8182   7.595   6.299   2.819  0.4194  0.1950  0.2094
   45MOL   C175 8183   7.668   6.298   2.686  0.4686 -0.0655 -0.4927
   45MOL   O176 8184   7.695   6.400   2.623 -0.3273  0.6240  0.2698
   45MOL   O177 8185   7.731   6.180   2.650  0.1746  0.5888  0.2192
   45MOL   H178 8186   7.638   6.244   3.019 -0.8228 -2.1741 -2.0669
   45MOL   H179 8187   7.774   6.227   2.924 -0.3755 -0.5687 -1.1355
   45MOL   H180 8188   7.546   6.202   2.819  1.0307 -0.1321  2.0634
   45MOL   H181 8189   7.781   6.197   2.572 -1.2793 -0.0649 -0.8804
   45MOL   H182 8190   7.524   6.381   2.826 -0.5738 -0.5079 -1.4831
   46MOL     C1 8191   5.450   0.936   6.179  0.4384 -0.0423 -0.2420
   46MOL     C2 8192   5.345   1.038   6.235 -0.0380 -0.4928 -0.3913
   46MOL     C3 8193   5.413   1.154   6.304 -0.3299 -0.0198  0.4616
   46MOL     O4 8194   5.506   1.148   6.385 -0.2373 -1.0863  0.1358
   46MOL     O5 8195   5.366   1.268   6.249 -0.6055  0.1811  0.2352
   46MOL     H6 8196   5.451   0.844   6.239  0.9580  0.6641  0.8474
   46MOL     H7 8197   5.420   0.918   6.076 -1.6925 -3.1470  0.8366
   46MOL     H8 8198   5.288   1.087   6.156  2.1987  3.8290  0.5519
   46MOL     H9 8199   5.412   1.343   6.285 -0.4195 -0.6476  1.7807
   46MOL    H10 8200   5.551   0.978   6.184  1.1077 -1.7578  1.5601
   46MOL    C11 8201   5.226   0.973   6.317 -0.9981  0.0543 -0.1482
   46MOL    C12 8202   5.088   0.975   6.242  0.1487 -0.4181  0.1376
   46MOL    C13 8203   5.035   1.120   6.222 -0.3302 -0.6379 -0.2889
   46MOL    O14 8204   5.054   1.192   6.121 -0.2206 -0.1735 -0.2275
   46MOL    O15 8205   4.970   1.164   6.330  0.0722  0.3124  0.2122
   46MOL    H16 8206   5.213   1.025   6.412  3.4227  1.4897 -0.1951
   46MOL    H17 8207   5.253   0.877   6.360 -0.1882  1.3569  2.3947
   46MOL    H18 8208   5.120   0.940   6.144  1.6722 -0.7380  0.7245
   46MOL    H19 8209   4.939   1.251   6.311 -1.6290 -0.3937 -0.3282
   46MOL    C20 8210   4.989   0.868   6.301 -0.7800  0.9249 -0.2476
   46MOL    C21 8211   4.866   0.820   6.221  0.3489  0.0034 -0.1519
   46MOL    C22 8212   4.761   0.926   6.204 -0.2658 -0.1010  0.0352
   46MOL    O23 8213   4.738   0.981   6.096 -0.5495  0.0617  0.1673
   46MOL    O24 8214   4.689   0.948   6.316  0.1976  0.2861  0.4508
   46MOL    H25 8215   4.951   0.878   6.403  0.2546 -3.4984  0.6771
   46MOL    H26 8216   5.053   0.781   6.316 -0.5224  1.1358 -0.1197
   46MOL    H27 8217   4.911   0.805   6.123 -0.3643  2.3820 -0.8936
   46MOL    H28 8218   4.619   1.011   6.301 -0.3044 -0.5832 -0.9583
   46MOL    C29 8219   4.809   0.687   6.274  0.1776  0.6864  0.0963
   46MOL    C30 8220   4.698   0.615   6.198  0.5151 -0.2944 -0.2566
   46MOL    C31 8221   4.556   0.636   6.260 -0.3538 -0.1094 -0.0694
   46MOL    O32 8222   4.539   0.667   6.377  0.0657  0.2864 -0.5542
   46MOL    O33 8223   4.450   0.592   6.185  0.8972 -0.4128  0.3596
   46MOL    H34 8224   4.788   0.701   6.380 -0.5781  0.8564 -0.0729
   46MOL    H35 8225   4.894   0.621   6.291 -0.6183  0.0358  1.7086
   46MOL    H36 8226   4.685   0.654   6.097 -2.2272 -0.9665 -0.1936
   46MOL    H37 8227   4.368   0.583   6.230  1.8742 -0.1618  2.2405
   46MOL    C38 8228   4.730   0.462   6.189 -0.4391  0.1156 -0.4421
   46MOL    C39 8229   4.828   0.409   6.078 -0.2687  0.0409  0.1455
   46MOL    C40 8230   4.752   0.323   5.979  0.4119  0.2993  0.3778
   46MOL    O41 8231   4.670   0.237   6.012  0.2176 -0.2692 -0.2920
   46MOL    O42 8232   4.795   0.337   5.849  0.3462  0.0027 -0.0739
   46MOL    H43 8233   4.632   0.414   6.189 -0.9382  1.0634  2.1263
   46MOL    H44 8234   4.771   0.429   6.285 -0.9858 -1.7785 -0.8313
   46MOL    H45 8235   4.863   0.500   6.030  0.6141  0.0656  0.8294
   46MOL    H46 8236   4.721   0.306   5.799  0.4933  0.2166 -0.4213
   46MOL    C47 8237   4.961   0.335   6.132  0.5233 -0.8598  0.2541
   46MOL    C48 8238   5.078   0.345   6.042  0.0729 -0.1923 -0.2464
   46MOL    C49 8239   5.114   0.217   5.970 -0.6120  0.3091 -0.3789
   46MOL    O50 8240   5.082   0.108   6.021  0.0820 -0.8287  0.1820
   46MOL    O51 8241   5.173   0.234   5.851 -0.2143 -0.4535  0.4321
   46MOL    H52 8242   4.942   0.229   6.153  1.6556 -1.3390 -1.0562
   46MOL    H53 8243   4.983   0.375   6.231 -1.0192 -1.9747  1.0790
   46MOL    H54 8244   5.064   0.421   5.966 -0.0410  0.0385  0.0052
   46MOL    H55 8245   5.202   0.149   5.822 -0.5772 -0.3155 -0.3548
   46MOL    C56 8246   5.202   0.404   6.106  0.1048  0.4945  0.0084
   46MOL    C57 8247   5.191   0.553   6.149  0.4155  0.1252 -0.1541
   46MOL    C58 8248   5.227   0.647   6.033 -0.0531  0.8308 -0.4967
   46MOL    O59 8249   5.335   0.692   5.999  0.0114  0.2141 -0.4074
   46MOL    O60 8250   5.110   0.674   5.974  0.2073 -0.7759  0.4665
   46MOL    H61 8251   5.287   0.402   6.038  1.4603  0.6059  1.6774
   46MOL    H62 8252   5.218   0.339   6.193 -1.0273 -0.1422 -0.2402
   46MOL    H63 8253   5.084   0.560   6.169  0.6514  1.0418  0.7656
   46MOL    H64 8254   5.115   0.730   5.898  2.8620  0.3087  1.3883
   46MOL    C65 8255   5.264   0.595   6.274 -0.4716  0.5961 -0.1218
   46MOL    C66 8256   5.194   0.546   6.405  0.1820  0.1295 -0.1088
   46MOL    C67 8257   5.216   0.655   6.509  0.2347  0.4817 -0.9317
   46MOL    O68 8258   5.324   0.692   6.548  0.5729  0.1856  0.1538
   46MOL    O69 8259   5.099   0.700   6.560  0.2822  0.0030  0.3204
   46MOL    H70 8260   5.271   0.704   6.268  0.5170  0.5888  0.8225
   46MOL    H71 8261   5.361   0.546   6.263 -0.0429  1.9642 -2.9373
   46MOL    H72 8262   5.086   0.548   6.391  0.1282  0.2704  0.3240
   46MOL    H73 8263   5.108   0.754   6.636 -0.3120 -0.2822  0.5999
   46MOL    C74 8264   5.210   0.403   6.465 -0.6074  0.0265  0.4967
   46MOL    C75 8265   5.078   0.345   6.521 -0.1604  0.7469 -0.1501
   46MOL    C76 8266   5.039   0.391   6.662  0.2884 -0.6868  0.6005
   46MOL    O77 8267   5.116   0.372   6.761 -0.0631  0.0238  0.1718
   46MOL    O78 8268   4.926   0.464   6.664  0.2394 -0.0530  0.2652
   46MOL    H79 8269   5.286   0.410   6.544  1.0965 -1.3473 -0.9815
   46MOL    H80 8270   5.259   0.344   6.388  2.7424  2.7000  0.4528
   46MOL    H81 8271   5.000   0.358   6.446 -0.1150  1.5602 -0.0652
   46MOL    H82 8272   4.917   0.507   6.748  0.9488  1.4749 -0.4094
   46MOL    C83 8273   5.081   0.191   6.518 -0.2967  0.1649  0.8121
   46MOL    C84 8274   4.958   0.116   6.576  0.2219  0.4753  0.3655
   46MOL    C85 8275   5.000   0.013   6.685 -0.3997 -1.1488 -0.2958
   46MOL    O86 8276   5.061   7.760   6.658  0.3405 -0.0384  0.6615
   46MOL    O87 8277   4.966   0.052   6.807 -0.3550  0.5277  0.5878
   46MOL    H88 8278   5.170   0.160   6.573  1.3697  0.8315 -1.4243
   46MOL    H89 8279   5.101   0.158   6.416  0.3477  0.7406  0.7501
   46MOL    H90 8280   4.882   0.181   6.621 -1.9381 -1.7859  0.0523
   46MOL    H91 8281   5.001   7.843   6.869 -0.0436 -0.9842 -1.0942
   46MOL    C92 8282   4.861   0.054   6.475  0.3032  0.5180 -0.2258
   46MOL    C93 8283   4.731   7.845   6.528  0.4327  0.2904 -0.2887
   46MOL    C94 8284   4.752   7.702   6.585 -0.4357 -0.0897  0.4365
   46MOL    O95 8285   4.780   7.607   6.507 -0.6066  0.3362 -0.0464
   46MOL    O96 8286   4.728   7.691   6.718  0.0387 -0.0451 -0.7956
   46MOL    H97 8287   4.921   7.844   6.410 -1.1344 -1.1236  0.0074
   46MOL    H98 8288   4.832   0.135   6.408 -4.1052  0.3253  1.2811
   46MOL    H99 8289   4.700   0.049   6.616 -3.8634 -1.0921 -0.7900
   46MOL   H100 8290   4.757   7.605   6.741  2.9195  1.2906  0.8558
   46MOL   C101 8291   4.617   7.850   6.418  0.0058 -0.4187  0.3666
   46MOL   C102 8292   4.568   0.129   6.362  0.2444 -0.2253  0.3399
   46MOL   C103 8293   4.553   0.240   6.469 -0.7067 -0.0320  0.2691
   46MOL   O104 8294   4.450   0.252   6.537  0.2134 -0.4859  0.1847
   46MOL   O105 8295   4.665   0.319   6.477  0.2275 -0.4199  0.2349
   46MOL   H106 8296   4.537   7.781   6.445  1.8524 -2.7928  0.0072
   46MOL   H107 8297   4.660   7.797   6.332  1.9182  1.5127  0.0835
   46MOL   H108 8298   4.641   0.162   6.289 -0.9048  1.3891 -0.1078
   46MOL   H109 8299   4.659   0.372   6.554 -3.8221  0.1374 -0.3249
   46MOL   C110 8300   4.439   0.120   6.283  0.4734 -0.2502 -0.4406
   46MOL   C111 8301   4.413   7.852   6.194  0.0299 -0.4512  0.4949
   46MOL   C112 8302   4.501   7.849   6.065 -0.5889  0.1422 -0.5280
   46MOL   O113 8303   4.464   0.044   5.959  0.1544  0.0019 -0.4509
   46MOL   O114 8304   4.614   7.783   6.082  0.4579  0.1497  0.3936
   46MOL   H115 8305   4.434   0.208   6.219  3.1898  0.7515  0.6459
   46MOL   H116 8306   4.358   0.123   6.357  1.8446 -0.3585  1.0827
   46MOL   H117 8307   4.440   7.763   6.250 -1.2248 -0.7297  0.6651
   46MOL   H118 8308   4.668   7.778   6.005 -0.1996  0.6133 -0.0978
   46MOL   C119 8309   4.261   7.851   6.145 -0.6537  0.0085  0.0222
   46MOL   C120 8310   4.214   7.731   6.051  0.3978 -0.0940  0.4872
   46MOL   C121 8311   4.063   7.737   6.065  0.2428  1.0119  0.2680
   46MOL   O122 8312   4.005   7.646   6.128 -0.7118 -0.1284 -0.6414
   46MOL   O123 8313   4.006   7.841   5.988 -0.1886 -0.6923 -0.0355
   46MOL   H124 8314   4.253   0.093   6.092 -1.4677  0.5147  1.0316
   46MOL   H125 8315   4.198   0.004   6.234 -0.2127  3.0920  0.1964
   46MOL   H126 8316   4.238   7.749   5.946 -0.6384  1.3125  0.4718
   46MOL   H127 8317   3.915   7.832   5.968 -0.4362  1.7492 -0.2208
   46MOL   C128 8318   4.273   7.593   6.088 -0.5710 -0.5634 -0.1635
   46MOL   C129 8319   4.280   7.484   5.980  0.7989  0.2280  0.2129
   46MOL   C130 8320   4.366   7.524   5.856  0.8555 -0.1988  0.1508
   46MOL   O131 8321   4.317   7.529   5.741 -0.3249  0.4337 -0.1888
   46MOL   O132 8322   4.494   7.535   5.896 -0.1420  0.0841 -0.3796
   46MOL   H133 8323   4.221   7.557   6.177 -0.8830 -0.7019 -0.3975
   46MOL   H134 8324   4.374   7.603   6.126 -1.2127  1.2952  1.1291
   46MOL   H135 8325   4.328   7.405   6.039  0.5822  1.7757  2.5460
   46MOL   H136 8326   4.553   7.548   5.824 -1.3733  1.7095 -1.1357
   46MOL   C137 8327   4.133   7.444   5.934  0.0860 -0.1709 -0.1337
   46MOL   C138 8328   4.131   7.307   5.869  0.2212  0.8430 -0.5550
   46MOL   C139 8329   4.008   7.308   5.772  0.0722 -0.4846 -1.1795
   46MOL   O140 8330   3.907   7.376   5.788 -0.2265  0.1226  0.1587
   46MOL   O141 8331   4.034   7.228   5.666 -0.0972  0.7773 -0.1178
   46MOL   H142 8332   4.098   7.522   5.866 -0.2566 -0.0913  0.1368
   46MOL   H143 8333   4.066   7.431   6.019 -2.6003 -0.1036 -2.1704
   46MOL   H144 8334   4.217   7.306   5.802  1.9565 -1.9282  1.6177
   46MOL   H145 8335   3.961   7.209   5.610  1.4290  2.4232 -2.7906
   46MOL   C146 8336   4.131   7.189   5.962 -0.3240 -0.0698 -0.9877
   46MOL   C147 8337   4.219   7.069   5.944 -0.1680  0.0986 -1.3976
   46MOL   C148 8338   4.187   6.983   5.824  0.3343 -0.4378 -0.1127
   46MOL   O149 8339   4.271   6.936   5.746  0.1491 -0.4027  0.4740
   46MOL   O150 8340   4.052   6.962   5.816  0.7483 -0.0623 -0.1335
   46MOL   H151 8341   4.030   7.151   5.980 -0.0120 -0.2323  0.5154
   46MOL   H152 8342   4.169   7.228   6.056 -0.7242  0.5949 -1.0976
   46MOL   H153 8343   4.321   7.105   5.937 -0.4893  1.3614  0.1449
   46MOL   H154 8344   4.038   6.905   5.741  2.5685  1.3248 -1.5869
   46MOL   C155 8345   4.200   6.969   6.070 -0.3906  0.3389  0.0054
   46MOL   C156 8346   4.314   6.873   6.121 -0.6334 -0.1293  0.2052
   46MOL   C157 8347   4.431   6.955   6.165  0.2235 -0.6304  0.0710
   46MOL   O158 8348   4.528   6.973   6.092  0.1132 -0.5121  0.5526
   46MOL   O159 8349   4.416   7.002   6.288  0.2322  0.0279 -0.0406
   46MOL   H160 8350   4.109   6.912   6.054 -0.9748  1.1973  0.2270
   46MOL   H161 8351   4.162   7.029   6.153  0.4618 -0.6998  1.1728
   46MOL   H162 8352   4.275   6.832   6.214  1.1347  1.8516  1.8707
   46MOL   H163 8353   4.501   7.041   6.300 -0.4277  1.5197 -0.0622
   46MOL   C164 8354   4.353   6.766   6.022  0.3266 -0.2287  0.0951
   46MOL   C165 8355   4.445   6.654   6.079 -0.2850  0.4126  0.3234
   46MOL   C166 8356   4.470   6.554   5.964  0.1697  0.6453 -0.0042
   46MOL   O167 8357   4.383   6.522   5.886 -0.4832 -0.4549  0.0607
   46MOL   O168 8358   4.591   6.491   5.962  0.3690 -0.5409 -0.3157
   46MOL   H169 8359   4.402   6.814   5.938 -0.4713  0.8112  0.2058
   46MOL   H170 8360   4.268   6.712   5.981  0.8191 -1.0691  0.1629
   46MOL   H171 8361   4.539   6.700   6.110 -0.3057 -0.8435  2.3235
   46MOL   H172 8362   4.596   6.423   5.896  0.2606 -1.3335  0.4952
   46MOL   C173 8363   4.383   6.579   6.188 -0.0533 -0.0455  0.6129
   46MOL   C174 8364   4.457   6.457   6.243  0.0257  0.2148 -0.1477
   46MOL   C175 8365   4.392   6.371   6.357  0.0997 -0.0737  0.0283
   46MOL   O176 8366   4.283   6.395   6.412  0.4290 -0.0655 -0.8098
   46MOL   O177 8367   4.473   6.261   6.389 -0.4297  0.0300  0.4732
   46MOL   H178 8368   4.286   6.540   6.157  0.9576 -3.1969  1.2461
   46MOL   H179 8369   4.349   6.632   6.277 -2.6101  0.2157 -0.4817
   46MOL   H180 8370   4.473   6.387   6.161 -0.1294 -2.4476  2.0177
   46MOL   H181 8371   4.426   6.199   6.442 -1.6156 -1.0107 -1.7315
   46MOL   H182 8372   4.558   6.478   6.278 -0.5157  2.2002  0.2903
   47MOL     C1 8373   5.223   1.559   6.905  0.1188 -0.0187  0.4521
   47MOL     C2 8374   5.165   1.568   6.762  0.2697 -0.4117 -0.4267
   47MOL     C3 8375   5.044   1.664   6.769  0.1299 -0.0180  0.7994
   47MOL     O4 8376   4.929   1.624   6.754  0.1484  0.9357 -0.1000
   47MOL     O5 8377   5.076   1.794   6.775  0.0226  0.1328 -0.0214
   47MOL     H6 8378   5.155   1.492   6.958 -0.4752  1.2055  1.2484
   47MOL     H7 8379   5.318   1.505   6.901  0.3647  0.3684  0.9756
   47MOL     H8 8380   5.245   1.619   6.709 -0.4023  1.4375  0.2880
   47MOL     H9 8381   5.001   1.850   6.785 -0.6913 -0.7328 -0.4769
   47MOL    H10 8382   5.232   1.654   6.957 -1.5990  1.1807 -1.3668
   47MOL    C11 8383   5.135   1.442   6.685  0.0509  0.1847 -0.4144
   47MOL    C12 8384   5.253   1.337   6.674 -0.1513  0.6764  0.3353
   47MOL    C13 8385   5.370   1.387   6.580  0.2349  0.1154  0.4010
   47MOL    O14 8386   5.348   1.459   6.484 -0.0893  0.0300 -0.0031
   47MOL    O15 8387   5.491   1.344   6.622 -0.1828 -0.1867  0.3956
   47MOL    H16 8388   5.087   1.457   6.589 -1.0073 -0.2068  0.0410
   47MOL    H17 8389   5.060   1.393   6.748 -1.2094  2.4710 -0.0847
   47MOL    H18 8390   5.288   1.314   6.774 -0.4873 -0.5799  0.1623
   47MOL    H19 8391   5.550   1.370   6.552 -0.5566 -0.2406  0.0618
   47MOL    C20 8392   5.202   1.200   6.622  0.6157 -0.4338  0.2036
   47MOL    C21 8393   5.107   1.112   6.718  0.2799  0.3278  0.2518
   47MOL    C22 8394   5.181   1.019   6.818  0.1665  0.8223 -0.4913
   47MOL    O23 8395   5.193   1.045   6.939  0.0664  0.1737 -0.6660
   47MOL    O24 8396   5.227   0.907   6.759  0.1907 -0.5384 -0.3851
   47MOL    H25 8397   5.293   1.142   6.607  1.6086  1.0661  0.4032
   47MOL    H26 8398   5.159   1.217   6.523  0.2749 -1.9272  0.0859
   47MOL    H27 8399   5.058   1.189   6.779  0.3297 -0.6302  1.5208
   47MOL    H28 8400   5.286   0.865   6.821  0.4658  1.6681  0.8954
   47MOL    C29 8401   4.990   1.038   6.647  0.3030  0.0852  0.7779
   47MOL    C30 8402   4.871   0.995   6.743 -0.2267  0.4589 -0.3002
   47MOL    C31 8403   4.782   0.885   6.680 -0.5720 -0.3874 -0.6532
   47MOL    O32 8404   4.657   0.895   6.658  0.2032  0.0044 -0.6525
   47MOL    O33 8405   4.845   0.767   6.662  0.6190 -0.0729  0.3549
   47MOL    H34 8406   5.029   0.947   6.602 -0.3054  0.4008 -0.4107
   47MOL    H35 8407   4.956   1.102   6.566 -0.5697  0.6869  1.5933
   47MOL    H36 8408   4.907   0.956   6.838  0.9245  0.0076 -0.9068
   47MOL    H37 8409   4.783   0.704   6.628  1.2213 -1.0545  1.0308
   47MOL    C38 8410   4.780   1.121   6.778  0.3605  0.1962  0.5033
   47MOL    C39 8411   4.721   1.195   6.656  0.5318 -0.4523  0.2310
   47MOL    C40 8412   4.796   1.332   6.646 -0.5380  0.2580 -0.0288
   47MOL    O41 8413   4.861   1.356   6.552 -0.8170 -0.6309 -0.0747
   47MOL    O42 8414   4.786   1.413   6.759  0.2950  0.5661  0.3374
   47MOL    H43 8415   4.833   1.186   6.848  1.0810 -0.1705  0.3097
   47MOL    H44 8416   4.698   1.075   6.833  0.8984 -0.1405  1.0401
   47MOL    H45 8417   4.739   1.141   6.563 -0.5413  1.0136 -0.8668
   47MOL    H46 8418   4.834   1.494   6.749  1.3765  0.1004  1.6713
   47MOL    C47 8419   4.564   1.224   6.669 -0.0936  0.7626  0.1216
   47MOL    C48 8420   4.490   1.188   6.543 -1.6692  0.0461  0.0232
   47MOL    C49 8421   4.517   1.287   6.422  0.3076 -0.3732 -0.0472
   47MOL    O50 8422   4.530   1.408   6.427  0.2018  0.4150  0.7906
   47MOL    O51 8423   4.518   1.215   6.305  0.2088 -0.2436 -0.0423
   47MOL    H52 8424   4.545   1.320   6.716  0.3204 -0.0866  2.0880
   47MOL    H53 8425   4.530   1.163   6.753 -0.5975 -1.3362 -1.5722
   47MOL    H54 8426   4.525   1.092   6.506  1.7664  0.1983  2.7079
   47MOL    H55 8427   4.525   1.285   6.242 -0.3412  1.3783  1.6457
   47MOL    C56 8428   4.336   1.182   6.572  0.2553 -0.0175  0.3451
   47MOL    C57 8429   4.247   1.068   6.509 -1.1856 -0.2293  0.2212
   47MOL    C58 8430   4.202   1.123   6.372 -0.0149  0.0796 -0.0304
   47MOL    O59 8431   4.251   1.086   6.262  0.2551  0.4158  0.0802
   47MOL    O60 8432   4.098   1.211   6.382 -0.1789  0.4859 -0.0422
   47MOL    H61 8433   4.288   1.276   6.548  3.1086  1.6286  0.8568
   47MOL    H62 8434   4.329   1.177   6.681  0.0353  0.7909  0.3673
   47MOL    H63 8435   4.310   0.980   6.499  0.4537  1.1689 -2.1556
   47MOL    H64 8436   4.073   1.240   6.295 -1.0292 -1.8690 -0.6283
   47MOL    C65 8437   4.123   1.032   6.599  0.0678 -0.8857  0.2344
   47MOL    C66 8438   4.024   0.927   6.546  0.1867  0.9904  0.0650
   47MOL    C67 8439   3.893   0.913   6.623  0.4022  0.7995 -0.2779
   47MOL    O68 8440   3.801   0.837   6.588 -0.0293 -0.2227  0.3436
   47MOL    O69 8441   3.881   0.997   6.726  0.9444 -0.0927  0.1999
   47MOL    H70 8442   4.071   1.125   6.623  0.9477 -0.4205  0.3477
   47MOL    H71 8443   4.151   0.986   6.694  3.6927 -0.3115 -0.4859
   47MOL    H72 8444   3.988   0.965   6.450 -1.4791  2.2771  1.1937
   47MOL    H73 8445   3.805   0.988   6.782  0.7898 -1.4150 -0.2298
   47MOL    C74 8446   4.090   0.791   6.508 -0.6714  0.0198  0.7424
   47MOL    C75 8447   4.038   0.722   6.379  0.5913  0.1836 -0.5905
   47MOL    C76 8448   4.105   0.585   6.376 -0.6480 -0.0154 -0.1201
   47MOL    O77 8449   4.218   0.565   6.325 -0.3205  0.2210  0.2591
   47MOL    O78 8450   4.031   0.491   6.438 -0.0873 -0.4156 -0.1571
   47MOL    H79 8451   4.073   0.718   6.587 -0.4839 -1.9348 -0.9684
   47MOL    H80 8452   4.198   0.801   6.502 -0.8736  1.4306 -0.9935
   47MOL    H81 8453   3.932   0.704   6.394  0.4760 -0.3204 -1.9428
   47MOL    H82 8454   4.085   0.413   6.437 -0.8632 -0.9513 -0.8572
   47MOL    C83 8455   4.064   0.799   6.245  0.8740 -0.3010  0.4630
   47MOL    C84 8456   3.979   0.757   6.118 -0.3426  0.1267  0.0777
   47MOL    C85 8457   3.833   0.787   6.128 -1.3482  0.6481 -0.0110
   47MOL    O86 8458   3.764   0.779   6.232 -0.4929 -0.3744  0.4495
   47MOL    O87 8459   3.777   0.835   6.014 -0.7480  0.0959 -0.9614
   47MOL    H88 8460   4.171   0.813   6.225  0.8922 -3.1800 -1.7395
   47MOL    H89 8461   4.039   0.905   6.252  1.2361 -0.2434  0.9364
   47MOL    H90 8462   4.024   0.822   6.042  0.1843  1.1649  1.2658
   47MOL    H91 8463   3.686   0.854   6.030 -0.8043 -1.9888  1.5015
   47MOL    C92 8464   4.015   0.618   6.065  0.3665  0.0968 -0.1160
   47MOL    C93 8465   3.946   0.577   5.930  0.4027  0.1583 -0.5129
   47MOL    C94 8466   3.948   0.676   5.804 -0.2846  0.5041 -0.0956
   47MOL    O95 8467   3.864   0.683   5.719  0.0155  0.8755  0.3805
   47MOL    O96 8468   4.075   0.728   5.789  0.3262 -0.4239 -0.1619
   47MOL    H97 8469   3.993   0.543   6.140  0.1615 -1.4832 -1.7400
   47MOL    H98 8470   4.123   0.609   6.059  0.2284 -0.3109 -2.6737
   47MOL    H99 8471   3.999   0.483   5.913  1.2449  0.3126  1.1566
   47MOL   H100 8472   4.079   0.774   5.707 -2.0069 -0.8715 -0.5458
   47MOL   C101 8473   3.804   0.517   5.957  0.2669 -0.0405  0.3967
   47MOL   C102 8474   3.722   0.439   5.844  0.1383 -0.2579 -0.1295
   47MOL   C103 8475   3.585   0.387   5.895  0.1801 -0.5539 -0.3123
   47MOL   O104 8476   3.562   0.267   5.916  0.0237 -0.0085  0.0521
   47MOL   O105 8477   3.498   0.491   5.898  0.5635 -0.3146  0.2825
   47MOL   H106 8478   3.728   0.594   5.968 -0.2595 -0.2856 -1.3353
   47MOL   H107 8479   3.796   0.458   6.048  0.7656  1.6843  1.5789
   47MOL   H108 8480   3.697   0.504   5.760  1.0735 -0.5923 -0.6749
   47MOL   H109 8481   3.407   0.470   5.915  0.3437  0.8932  0.6651
   47MOL   C110 8482   3.811   0.326   5.789  0.4710  0.1076  0.4600
   47MOL   C111 8483   3.758   0.261   5.662  0.2313  0.7631 -0.3690
   47MOL   C112 8484   3.822   0.126   5.654 -0.2619  0.1545  0.7591
   47MOL   O113 8485   3.880   0.098   5.553 -0.1308  0.8222  0.3339
   47MOL   O114 8486   3.784   0.044   5.753 -0.0912 -0.3088  0.0807
   47MOL   H115 8487   3.834   0.257   5.870  0.0846 -1.6755 -0.9311
   47MOL   H116 8488   3.901   0.377   5.757 -0.7385  0.9210 -1.7336
   47MOL   H117 8489   3.654   0.237   5.680  0.3644  0.5908  0.1775
   47MOL   H118 8490   3.825   7.812   5.745  1.5615  0.2894  1.5939
   47MOL   C119 8491   3.774   0.354   5.538  0.7295 -0.5475 -0.6431
   47MOL   C120 8492   3.644   0.393   5.466 -0.1349  0.1837  0.2916
   47MOL   C121 8493   3.575   0.273   5.399  0.3554 -0.2419  0.0134
   47MOL   O122 8494   3.637   0.174   5.372 -0.4767  0.0663  0.2056
   47MOL   O123 8495   3.438   0.280   5.400 -0.2426 -0.1606 -0.5201
   47MOL   H124 8496   3.848   0.329   5.462  0.4096  0.5057 -1.3148
   47MOL   H125 8497   3.809   0.452   5.570 -0.8832 -0.2263  0.2313
   47MOL   H126 8498   3.573   0.429   5.540  1.1165  0.2480  1.4869
   47MOL   H127 8499   3.419   0.188   5.390  3.8011 -1.1849  0.0915
   47MOL   C128 8500   3.667   0.512   5.365  0.1686 -0.8965  0.0082
   47MOL   C129 8501   3.539   0.572   5.303 -0.0583 -0.0293 -0.2246
   47MOL   C130 8502   3.543   0.541   5.159 -0.2011  0.1883  1.1133
   47MOL   O131 8503   3.465   0.457   5.112  0.2977  0.5875  0.3983
   47MOL   O132 8504   3.635   0.612   5.094  0.4356  0.1594 -0.5181
   47MOL   H133 8505   3.737   0.466   5.294 -0.6001 -0.2794 -1.1702
   47MOL   H134 8506   3.717   0.599   5.408  0.4701  0.3841 -2.7806
   47MOL   H135 8507   3.454   0.520   5.346  0.1718 -1.3008 -1.2665
   47MOL   H136 8508   3.631   0.588   5.002 -0.9747 -0.8298 -0.2138
   47MOL   C137 8509   3.515   0.725   5.319 -0.5770 -0.3937  0.4346
   47MOL   C138 8510   3.457   0.785   5.448 -0.4249 -0.2414  0.3547
   47MOL   C139 8511   3.545   0.766   5.575  0.0343  0.9457 -0.1921
   47MOL   O140 8512   3.503   0.705   5.679  0.4017 -0.2975 -0.0428
   47MOL   O141 8513   3.669   0.808   5.562  0.0241 -0.3966 -0.2039
   47MOL   H142 8514   3.466   0.765   5.230  0.7211  0.4692  0.0894
   47MOL   H143 8515   3.615   0.769   5.312  0.2931 -1.8321  3.0171
   47MOL   H144 8516   3.454   0.893   5.437 -0.4621 -0.3171 -0.3579
   47MOL   H145 8517   3.717   0.793   5.641  0.1261  0.2199 -0.1468
   47MOL   C146 8518   3.309   0.744   5.472 -0.2140  0.4989  0.0956
   47MOL   C147 8519   3.205   0.826   5.389  0.4213  0.0629 -0.3184
   47MOL   C148 8520   3.145   0.941   5.478 -0.0324 -0.4433  0.1401
   47MOL   O149 8521   3.025   0.956   5.500 -0.3626 -0.0479 -0.3729
   47MOL   O150 8522   3.239   1.006   5.552  0.2264 -0.4549  0.2041
   47MOL   H151 8523   3.284   0.763   5.576 -0.1268  0.2601  0.1614
   47MOL   H152 8524   3.298   0.635   5.465  0.4204  0.3728  1.0114
   47MOL   H153 8525   3.253   0.883   5.310 -1.0342 -0.9395 -1.9439
   47MOL   H154 8526   3.192   1.057   5.615  1.2821 -0.4098  0.9647
   47MOL   C155 8527   3.097   0.742   5.323  0.0274 -0.1151  0.0062
   47MOL   C156 8528   3.031   0.795   5.189 -1.1662  0.5172  0.5323
   47MOL   C157 8529   3.128   0.813   5.072 -0.5161  0.3465 -0.0205
   47MOL   O158 8530   3.142   0.723   4.987 -0.5969  0.7723  0.3382
   47MOL   O159 8531   3.196   0.932   5.076  0.4717  0.0573  0.1358
   47MOL   H160 8532   3.020   0.708   5.391  0.3213  0.3061  0.5566
   47MOL   H161 8533   3.148   0.652   5.289  0.6608  0.5191 -0.7702
   47MOL   H162 8534   2.965   0.711   5.167 -0.7301  0.0074  1.1620
   47MOL   H163 8535   3.266   0.920   5.013  1.0495  2.7563  0.2153
   47MOL   C164 8536   2.942   0.922   5.203  0.6016  0.1182  0.0200
   47MOL   C165 8537   2.832   0.948   5.088  0.7877 -0.3709 -0.2551
   47MOL   C166 8538   2.896   1.048   4.988  0.1097 -0.2794  0.1541
   47MOL   O167 8539   2.889   1.175   5.007 -0.0798 -0.1357  0.2048
   47MOL   O168 8540   2.959   0.986   4.883  0.0084  0.2304 -0.1102
   47MOL   H169 8541   2.996   1.017   5.207  0.9193 -0.0835  0.5729
   47MOL   H170 8542   2.894   0.915   5.301 -1.5988 -1.8272 -1.1502
   47MOL   H171 8543   2.810   0.855   5.036 -1.3331 -0.8685  1.4532
   47MOL   H172 8544   3.002   1.047   4.826  0.5433  1.2143  1.3100
   47MOL   C173 8545   2.700   1.007   5.147 -0.4784  0.2003  0.5596
   47MOL   C174 8546   2.617   0.920   5.245 -0.4450  0.4676 -0.5299
   47MOL   C175 8547   2.545   0.792   5.198 -0.6716  0.4808 -0.0554
   47MOL   O176 8548   2.590   0.679   5.183 -0.2051 -0.1069 -0.1340
   47MOL   O177 8549   2.412   0.819   5.166 -0.1376 -0.2177  0.2691
   47MOL   H178 8550   2.633   1.030   5.064 -1.9420 -0.2908  1.5908
   47MOL   H179 8551   2.715   1.103   5.196  2.0434 -1.3657  3.0245
   47MOL   H180 8552   2.686   0.876   5.317  1.5751 -0.5713 -3.0382
   47MOL   H181 8553   2.367   0.736   5.166 -2.8314  1.1737  2.0879
   47MOL   H182 8554   2.549   0.992   5.290 -0.1897  1.2084 -1.3221
   48MOL     C1 8555   4.094   4.148   2.377 -0.2117  0.2649  0.3131
   48MOL     C2 8556   4.208   4.154   2.260  0.6162 -0.3986 -0.7502
   48MOL     C3 8557   4.256   4.296   2.255 -0.3089  0.5490 -0.0506
   48MOL     O4 8558   4.220   4.382   2.326  0.5817  0.4940  0.0796
   48MOL     O5 8559   4.350   4.321   2.161  0.6403  0.5775  0.8780
   48MOL     H6 8560   4.119   4.181   2.478 -0.6528  1.0735  0.1657
   48MOL     H7 8561   4.004   4.204   2.351 -1.5746 -2.7205 -1.7189
   48MOL     H8 8562   4.294   4.092   2.286 -0.2903 -0.8124  1.3474
   48MOL     H9 8563   4.375   4.410   2.179  2.5587  0.1230  0.6456
   48MOL    H10 8564   4.057   4.047   2.395 -1.5828  0.2171 -2.4874
   48MOL    C11 8565   4.145   4.111   2.121 -0.8507  0.6502  0.4903
   48MOL    C12 8566   4.161   3.958   2.085  0.4966 -0.6214 -1.0398
   48MOL    C13 8567   4.299   3.895   2.066  0.4534 -0.1751  0.0723
   48MOL    O14 8568   4.325   3.790   2.121 -0.1544  0.2713 -0.3857
   48MOL    O15 8569   4.369   3.940   1.954  0.3311 -1.1452 -0.1811
   48MOL    H16 8570   4.207   4.160   2.045 -0.0180  1.7226  1.8492
   48MOL    H17 8571   4.041   4.141   2.110 -0.2115  2.7147 -0.1001
   48MOL    H18 8572   4.123   3.900   2.169  3.1868 -1.1926 -0.1422
   48MOL    H19 8573   4.400   3.858   1.919 -2.2730 -1.6534 -1.3615
   48MOL    C20 8574   4.068   3.929   1.971  0.1380 -0.2178  0.0687
   48MOL    C21 8575   4.031   3.779   1.948  0.0960  0.7025 -0.8352
   48MOL    C22 8576   4.112   3.708   1.838  0.3124 -0.2066 -0.5871
   48MOL    O23 8577   4.072   3.608   1.782  0.0127 -0.3053 -0.5448
   48MOL    O24 8578   4.233   3.762   1.803 -0.2424 -0.3047 -0.4450
   48MOL    H25 8579   4.106   3.976   1.880 -1.1611 -0.6476 -0.6996
   48MOL    H26 8580   3.979   3.978   2.010 -0.1297 -1.0687  0.5213
   48MOL    H27 8581   4.062   3.719   2.033  1.9483  0.6977 -1.5048
   48MOL    H28 8582   4.272   3.718   1.729 -0.4077 -1.7256  0.3023
   48MOL    C29 8583   3.880   3.751   1.931 -0.1798 -0.8144 -0.2020
   48MOL    C30 8584   3.776   3.799   2.034 -0.6251 -0.9476  0.6124
   48MOL    C31 8585   3.816   3.739   2.172  0.0517 -0.2217  0.4310
   48MOL    O32 8586   3.876   3.633   2.187 -0.3482  0.3455  0.1538
   48MOL    O33 8587   3.771   3.827   2.271  0.8025 -0.0353 -0.4921
   48MOL    H34 8588   3.867   3.643   1.920 -1.8563 -0.6969  0.4762
   48MOL    H35 8589   3.861   3.800   1.835 -0.3561 -0.9757 -0.2502
   48MOL    H36 8590   3.772   3.907   2.053 -0.5138 -0.8517  0.1157
   48MOL    H37 8591   3.774   3.782   2.354 -1.2733  1.4791  0.4619
   48MOL    C38 8592   3.626   3.761   1.991 -0.1636  0.7423  0.1588
   48MOL    C39 8593   3.588   3.786   1.841 -0.3819  0.1839  0.1799
   48MOL    C40 8594   3.615   3.933   1.815 -0.7576  0.1868 -0.4273
   48MOL    O41 8595   3.533   4.013   1.844 -0.2121 -0.1689  0.0340
   48MOL    O42 8596   3.724   3.955   1.732 -0.6292 -0.1818  0.4725
   48MOL    H43 8597   3.560   3.823   2.051  0.4607  0.8853  0.7029
   48MOL    H44 8598   3.597   3.658   2.014  2.3717  0.1228  0.6926
   48MOL    H45 8599   3.656   3.729   1.778  2.0477  1.8040  1.2664
   48MOL    H46 8600   3.733   4.040   1.694 -1.5502 -0.3396 -0.1119
   48MOL    C47 8601   3.441   3.731   1.809  0.1573 -0.5567 -0.5562
   48MOL    C48 8602   3.408   3.679   1.666 -0.1570  0.0942 -0.0495
   48MOL    C49 8603   3.397   3.797   1.570  0.3439 -0.2987  0.5183
   48MOL    O50 8604   3.486   3.833   1.499 -0.3408  0.3527 -0.2939
   48MOL    O51 8605   3.284   3.866   1.589 -0.2880 -0.5506 -0.0499
   48MOL    H52 8606   3.369   3.808   1.836  0.8505 -0.3903  0.9006
   48MOL    H53 8607   3.420   3.640   1.866  1.1562 -1.5941 -1.8122
   48MOL    H54 8608   3.488   3.611   1.639  0.4271  0.3523  0.9897
   48MOL    H55 8609   3.281   3.953   1.551  0.5633  0.0630  1.2392
   48MOL    C56 8610   3.272   3.591   1.669 -0.2161  0.1115 -0.4265
   48MOL    C57 8611   3.217   3.538   1.529  0.5788  0.3967  0.4076
   48MOL    C58 8612   3.305   3.449   1.437  0.1324  0.6850 -0.6420
   48MOL    O59 8613   3.288   3.329   1.415 -0.6724  0.8420 -0.2953
   48MOL    O60 8614   3.403   3.519   1.387  0.4244  0.0080  0.2865
   48MOL    H61 8615   3.198   3.659   1.710  1.0857  0.1455  1.9125
   48MOL    H62 8616   3.273   3.506   1.738  0.4757  0.2031 -0.3112
   48MOL    H63 8617   3.135   3.470   1.551 -0.2114  1.3197  0.3466
   48MOL    H64 8618   3.462   3.469   1.333  0.8623  1.0319 -0.1946
   48MOL    C65 8619   3.142   3.654   1.450 -0.6204  0.2131  0.4518
   48MOL    C66 8620   3.029   3.605   1.355 -0.6656  0.6645 -0.2589
   48MOL    C67 8621   3.085   3.574   1.215  0.0455 -0.3342  0.1737
   48MOL    O68 8622   3.090   3.457   1.175 -0.1562  0.4804 -0.2573
   48MOL    O69 8623   3.133   3.678   1.149  0.1502  0.1056  0.7189
   48MOL    H70 8624   3.215   3.713   1.394  1.3474 -0.2905  2.4578
   48MOL    H71 8625   3.093   3.719   1.522 -1.5878  1.0956 -0.9776
   48MOL    H72 8626   3.001   3.508   1.396 -0.6835  1.0127  0.5630
   48MOL    H73 8627   3.175   3.653   1.068 -1.4037 -1.0896  0.2697
   48MOL    C74 8628   2.898   3.695   1.355 -0.3231  0.1304 -0.1637
   48MOL    C75 8629   2.773   3.615   1.387  0.5016  0.0106 -0.1983
   48MOL    C76 8630   2.738   3.529   1.268 -0.3601 -0.5594  0.1229
   48MOL    O77 8631   2.663   3.571   1.178  0.2829 -1.1525 -0.2392
   48MOL    O78 8632   2.782   3.407   1.289 -0.4539 -0.4293  0.3691
   48MOL    H79 8633   2.897   3.751   1.262 -0.1311 -0.3281 -0.4418
   48MOL    H80 8634   2.905   3.771   1.433  1.2084 -2.5152  2.4446
   48MOL    H81 8635   2.802   3.544   1.465 -2.7998 -0.6502  0.5259
   48MOL    H82 8636   2.742   3.360   1.218 -0.5968  1.1733 -0.6134
   48MOL    C83 8637   2.652   3.701   1.443 -0.5093 -0.3382 -0.1842
   48MOL    C84 8638   2.532   3.620   1.510 -0.7653 -0.9300  0.2172
   48MOL    C85 8639   2.593   3.531   1.616  1.1005 -0.5288  0.0380
   48MOL    O86 8640   2.556   3.415   1.624 -0.0105 -0.0701 -0.2950
   48MOL    O87 8641   2.690   3.588   1.690 -0.2258 -0.3072 -0.0617
   48MOL    H88 8642   2.611   3.752   1.355 -1.8728 -1.1395 -0.0188
   48MOL    H89 8643   2.687   3.783   1.507 -0.7336 -1.1160  0.9447
   48MOL    H90 8644   2.476   3.695   1.566 -0.2943 -2.2673  2.5162
   48MOL    H91 8645   2.735   3.526   1.745  1.0706  1.1987  0.5785
   48MOL    C92 8646   2.432   3.554   1.421 -0.6297 -0.1608  0.4623
   48MOL    C93 8647   2.284   3.538   1.476  0.7302 -0.0568  0.4418
   48MOL    C94 8648   2.207   3.428   1.400 -0.1315  0.3512  0.6423
   48MOL    O95 8649   2.199   3.424   1.278  0.4568  0.3304  0.4726
   48MOL    O96 8650   2.152   3.341   1.484 -0.2676 -0.1919 -0.1856
   48MOL    H97 8651   2.458   3.449   1.405 -0.3022 -0.3124  1.9301
   48MOL    H98 8652   2.433   3.603   1.324  0.1301  1.4019  1.2536
   48MOL    H99 8653   2.303   3.515   1.581  2.0741 -0.7825  0.0556
   48MOL   H100 8654   2.168   3.355   1.576 -0.9311  0.4603 -0.1689
   48MOL   C101 8655   2.201   3.670   1.474  0.4013  0.0493 -0.8221
   48MOL   C102 8656   2.086   3.683   1.580  0.0784 -0.0351 -0.4032
   48MOL   C103 8657   2.137   3.672   1.719 -0.1662  0.4651  0.8175
   48MOL   O104 8658   2.121   3.577   1.791  0.2586 -0.3108 -0.2854
   48MOL   O105 8659   2.205   3.785   1.756 -0.3534  0.1575 -0.8002
   48MOL   H106 8660   2.161   3.701   1.377  0.0088 -0.4814 -0.8362
   48MOL   H107 8661   2.259   3.758   1.502 -0.0099 -0.3223  1.2921
   48MOL   H108 8662   2.064   3.789   1.567 -1.9477 -0.4065 -0.1601
   48MOL   H109 8663   2.239   3.774   1.844 -1.2268 -0.2984 -0.5036
   48MOL   C110 8664   1.958   3.603   1.557  0.4101  0.1206  0.4074
   48MOL   C111 8665   1.898   3.597   1.409 -0.1447  0.2682 -0.6704
   48MOL   C112 8666   1.876   3.738   1.357  0.5440 -0.1169 -0.2506
   48MOL   O113 8667   1.920   3.774   1.250  0.4029 -0.3497 -0.1161
   48MOL   O114 8668   1.793   3.810   1.438 -0.5123 -0.7680 -0.1055
   48MOL   H115 8669   1.875   3.645   1.614 -0.6091  1.3626 -1.8711
   48MOL   H116 8670   1.969   3.505   1.602  1.2989  0.3814  0.7659
   48MOL   H117 8671   1.973   3.558   1.340 -1.1969 -2.1467 -0.4915
   48MOL   H118 8672   1.788   3.888   1.385 -0.7597 -1.7001 -1.4514
   48MOL   C119 8673   1.770   3.516   1.403 -0.3875 -0.4221 -0.0730
   48MOL   C120 8674   1.762   3.412   1.288 -0.7248  0.5566 -0.5916
   48MOL   C121 8675   1.860   3.296   1.306  0.0444 -0.2198 -0.3823
   48MOL   O122 8676   1.943   3.264   1.229 -0.1939 -0.0431  0.1066
   48MOL   O123 8677   1.829   3.229   1.424  0.0839  0.8613 -0.2403
   48MOL   H124 8678   1.688   3.587   1.395  0.7267  0.9094  0.1871
   48MOL   H125 8679   1.749   3.455   1.491  0.8113 -3.2352 -1.6619
   48MOL   H126 8680   1.667   3.360   1.298 -1.1374  1.5613  0.7589
   48MOL   H127 8681   1.891   3.159   1.436 -1.0925 -0.3366 -1.0960
   48MOL   C128 8682   1.773   3.469   1.141 -0.3972 -0.4235  0.5373
   48MOL   C129 8683   1.660   3.566   1.090 -0.1173 -0.3082 -0.7642
   48MOL   C130 8684   1.520   3.502   1.101  0.3323 -0.0849 -0.0258
   48MOL   O131 8685   1.428   3.568   1.153 -0.0823  0.7054 -1.1522
   48MOL   O132 8686   1.505   3.379   1.035  0.5363  0.9791  0.2954
   48MOL   H133 8687   1.794   3.387   1.071 -2.0403 -1.5930  1.3936
   48MOL   H134 8688   1.866   3.526   1.141  0.0717 -1.1726  0.2450
   48MOL   H135 8689   1.674   3.647   1.162  2.2284 -0.6232 -0.8485
   48MOL   H136 8690   1.424   3.330   1.038 -0.8207  3.2049  1.7849
   48MOL   C137 8691   1.680   3.639   0.948  0.6703  0.0278  0.2004
   48MOL   C138 8692   1.681   3.795   0.961 -0.6245  0.3504 -0.3725
   48MOL   C139 8693   1.555   3.866   0.995  0.4089 -0.3148  0.1273
   48MOL   O140 8694   1.541   3.925   1.105  0.2829  0.4145 -0.0303
   48MOL   O141 8695   1.453   3.846   0.906  0.0488  0.6751  0.9466
   48MOL   H142 8696   1.606   3.609   0.874  1.2888  0.9397 -0.7929
   48MOL   H143 8697   1.776   3.616   0.902  1.1698  0.8319  0.8195
   48MOL   H144 8698   1.743   3.823   1.046 -2.3984  1.2567  0.6642
   48MOL   H145 8699   1.370   3.887   0.924  0.8799  2.5561  0.5970
   48MOL   C146 8700   1.745   3.850   0.836  0.3877  0.1789  0.1812
   48MOL   C147 8701   1.779   4.002   0.819 -0.0463  0.0995 -0.7536
   48MOL   C148 8702   1.724   4.053   0.680 -0.2863 -0.5338 -0.3891
   48MOL   O149 8703   1.797   4.092   0.586 -0.0395 -0.1433 -0.3537
   48MOL   O150 8704   1.593   4.029   0.666  0.0209  0.0825 -0.4769
   48MOL   H151 8705   1.685   3.809   0.756  1.3797 -1.5754  0.3032
   48MOL   H152 8706   1.842   3.802   0.818 -0.2774 -1.3015  0.4744
   48MOL   H153 8707   1.731   4.070   0.889 -1.3870  1.6921 -3.1226
   48MOL   H154 8708   1.564   4.041   0.577  0.3384  0.8681 -0.4809
   48MOL   C155 8709   1.934   4.020   0.824 -0.3166  0.0477 -0.3805
   48MOL   C156 8710   2.003   4.009   0.967  0.5210 -0.8291  0.2000
   48MOL   C157 8711   1.962   4.117   1.072 -0.2298 -0.0617  0.6061
   48MOL   O158 8712   1.886   4.204   1.054 -0.1254 -0.6309  0.2506
   48MOL   O159 8713   2.035   4.096   1.189 -0.0376  0.2681  0.4931
   48MOL   H160 8714   1.951   4.124   0.798 -0.4340  0.3649  0.8093
   48MOL   H161 8715   1.982   3.960   0.746 -0.6632  0.5712 -1.0020
   48MOL   H162 8716   1.974   3.914   1.011  1.1573 -0.7341  0.8243
   48MOL   H163 8717   2.012   4.167   1.247  0.8456  0.1662  0.9816
   48MOL   C164 8718   2.156   3.990   0.944 -0.0648 -0.4151  0.9709
   48MOL   C165 8719   2.194   3.840   0.919 -1.0765  0.5689  0.3732
   48MOL   C166 8720   2.211   3.751   1.046  0.2724  0.0321 -0.1312
   48MOL   O167 8721   2.268   3.784   1.153 -0.2167  0.7301 -0.0063
   48MOL   O168 8722   2.160   3.619   1.035 -0.0719  0.0549  0.0655
   48MOL   H169 8723   2.216   4.037   1.021 -0.4094  1.5439  0.0698
   48MOL   H170 8724   2.188   4.048   0.857 -4.6851  1.4244  0.3395
   48MOL   H171 8725   2.127   3.796   0.846 -0.4965 -0.5789  0.5158
   48MOL   H172 8726   2.184   3.571   1.113 -2.2585 -3.0059 -1.0471
   48MOL   C173 8727   2.331   3.845   0.855 -0.5204  0.2866  0.1781
   48MOL   C174 8728   2.382   3.720   0.782  0.5655 -0.2096 -0.9859
   48MOL   C175 8729   2.298   3.686   0.656 -0.4464 -0.1137 -0.4578
   48MOL   O176 8730   2.237   3.774   0.594  0.0570  0.4141 -0.2437
   48MOL   O177 8731   2.303   3.557   0.619 -0.6925 -0.7574  0.2491
   48MOL   H178 8732   2.405   3.863   0.934  0.4871 -1.4609 -0.3345
   48MOL   H179 8733   2.347   3.921   0.778 -1.1595 -0.3499 -0.5855
   48MOL   H180 8734   2.487   3.726   0.752  0.3922  1.6073 -1.3270
   48MOL   H181 8735   2.247   3.553   0.543  1.6979  1.3128 -1.7277
   48MOL   H182 8736   2.369   3.632   0.844  0.8848  0.4096 -0.0372
   49MOL     C1 8737   1.433   0.668   1.070 -0.8241 -0.5468 -0.4592
   49MOL     C2 8738   1.409   0.727   1.208 -0.2362  0.4398  0.0240
   49MOL     C3 8739   1.549   0.742   1.281 -0.5868  0.5732 -0.2039
   49MOL     O4 8740   1.623   0.652   1.294  0.3961  0.2057 -0.0386
   49MOL     O5 8741   1.588   0.866   1.305 -0.1122 -0.1822  0.3126
   49MOL     H6 8742   1.346   0.689   1.007 -0.8151 -0.5664 -0.4784
   49MOL     H7 8743   1.523   0.698   1.016  0.1699  0.2634  1.5924
   49MOL     H8 8744   1.368   0.826   1.188 -1.0767 -0.2967 -2.0461
   49MOL     H9 8745   1.672   0.871   1.349 -0.0297  1.7515 -0.0240
   49MOL    H10 8746   1.425   0.559   1.079  1.3228 -0.5170  2.4016
   49MOL    C11 8747   1.311   0.654   1.306  0.6737 -0.1738  0.3695
   49MOL    C12 8748   1.161   0.644   1.252 -0.7938  0.4261 -0.1631
   49MOL    C13 8749   1.108   0.780   1.213  0.6758  0.1381 -0.6488
   49MOL    O14 8750   1.113   0.879   1.283 -0.3024  0.5622 -0.5837
   49MOL    O15 8751   1.048   0.765   1.091  0.6878  0.1246 -0.0073
   49MOL    H16 8752   1.316   0.719   1.393 -0.0078  1.0126 -0.4669
   49MOL    H17 8753   1.354   0.555   1.326 -0.2622 -0.4176  1.2214
   49MOL    H18 8754   1.159   0.581   1.163  1.8170  0.2273 -0.1095
   49MOL    H19 8755   0.988   0.834   1.068  1.0583  0.1097 -1.0334
   49MOL    C20 8756   1.082   0.565   1.362  0.0732  0.1514  0.2270
   49MOL    C21 8757   0.962   0.627   1.440 -0.1021 -0.1247  0.4082
   49MOL    C22 8758   1.013   0.695   1.574  0.0684 -0.3521 -0.3306
   49MOL    O23 8759   1.114   0.657   1.622 -0.4602 -0.4845 -0.0987
   49MOL    O24 8760   0.939   0.793   1.626  0.2123  0.3881 -0.0916
   49MOL    H25 8761   1.151   0.509   1.425 -0.8984 -1.6864 -0.3145
   49MOL    H26 8762   1.044   0.484   1.301 -0.4483 -0.0307  0.7856
   49MOL    H27 8763   0.916   0.706   1.380 -1.6863 -0.4255  1.1763
   49MOL    H28 8764   0.962   0.837   1.706  2.0125 -0.1940 -0.2630
   49MOL    C29 8765   0.846   0.524   1.465 -0.0588 -0.5406 -0.0526
   49MOL    C30 8766   0.728   0.522   1.365  0.3521  0.0590  0.2603
   49MOL    C31 8767   0.784   0.499   1.226  0.0065 -0.9068  0.4104
   49MOL    O32 8768   0.809   0.594   1.149 -0.5177  0.2400  0.5379
   49MOL    O33 8769   0.793   0.368   1.191 -0.4930 -0.0066  0.0784
   49MOL    H34 8770   0.794   0.535   1.560  0.6634 -1.5274  0.4766
   49MOL    H35 8771   0.885   0.423   1.483  1.6961 -0.3345 -2.4303
   49MOL    H36 8772   0.652   0.450   1.395  1.7822 -0.8981  1.6235
   49MOL    H37 8773   0.829   0.362   1.103  0.7499  1.2853  0.4887
   49MOL    C38 8774   0.647   0.652   1.381 -0.0094  0.8021 -0.0336
   49MOL    C39 8775   0.497   0.647   1.358 -0.0434  0.2808  0.5202
   49MOL    C40 8776   0.480   0.596   1.214  0.4495  0.3894  0.4988
   49MOL    O41 8777   0.501   0.672   1.117 -0.5803 -0.3399  0.0394
   49MOL    O42 8778   0.425   0.473   1.197  0.0470 -0.2140  0.3282
   49MOL    H43 8779   0.684   0.729   1.314 -0.4315  0.3179 -0.8269
   49MOL    H44 8780   0.654   0.686   1.485  0.9096  0.2134  0.1031
   49MOL    H45 8781   0.450   0.572   1.423 -1.2356  0.1456 -0.4741
   49MOL    H46 8782   0.439   0.463   1.104 -1.8090  1.4330 -0.1331
   49MOL    C47 8783   0.433   0.786   1.390 -0.2995 -0.0919 -0.4441
   49MOL    C48 8784   0.281   0.785   1.393  0.6802 -0.4053 -0.5774
   49MOL    C49 8785   0.221   0.925   1.360  0.2917 -0.3506 -0.3991
   49MOL    O50 8786   0.277   1.027   1.373 -0.2137  0.2681 -0.2748
   49MOL    O51 8787   0.104   0.910   1.294  0.3253 -0.5675  1.2487
   49MOL    H52 8788   0.470   0.862   1.322  0.7664 -0.1355  0.0873
   49MOL    H53 8789   0.471   0.831   1.482 -1.5576  0.9668 -0.4318
   49MOL    H54 8790   0.239   0.728   1.310  1.9370  0.3019 -1.7181
   49MOL    H55 8791   0.077   0.992   1.256  0.5618 -0.2246  1.8083
   49MOL    C56 8792   0.219   0.737   1.529 -0.1295  0.1546  0.4517
   49MOL    C57 8793   0.075   0.682   1.515 -0.8713 -0.5449 -0.0687
   49MOL    C58 8794   0.024   0.660   1.662  0.0950  0.3375 -0.2231
   49MOL    O59 8795   0.035   0.549   1.715  0.3169  0.4080 -0.1692
   49MOL    O60 8796   7.840   0.775   1.726  0.1272 -0.0435  0.1026
   49MOL    H61 8797   0.214   0.815   1.605 -1.3463  2.8047 -2.2520
   49MOL    H62 8798   0.289   0.666   1.573 -0.7193  0.0365  1.2080
   49MOL    H63 8799   0.015   0.759   1.466 -0.2494  1.1469  1.7531
   49MOL    H64 8800   7.841   0.852   1.671  0.2414  0.1708  0.3973
   49MOL    C65 8801   0.073   0.543   1.436 -0.1417 -0.0294  0.5860
   49MOL    C66 8802   7.800   0.512   1.356 -0.2557 -0.1044  0.1407
   49MOL    C67 8803   7.692   0.501   1.453  0.2666  0.2780 -0.2381
   49MOL    O68 8804   7.615   0.598   1.473 -0.2912  0.1251  0.8197
   49MOL    O69 8805   7.691   0.387   1.525 -0.2929  0.1502  0.0354
   49MOL    H70 8806   0.103   0.461   1.502 -1.4096  0.3041  1.6206
   49MOL    H71 8807   0.151   0.543   1.360 -1.8357 -0.6011 -1.1861
   49MOL    H72 8808   7.772   0.599   1.297 -3.3078 -2.3055 -1.7141
   49MOL    H73 8809   7.619   0.391   1.586 -0.0358 -0.3672  0.3785
   49MOL    C74 8810   7.811   0.382   1.272 -0.2426 -0.2346 -0.4834
   49MOL    C75 8811   0.065   0.380   1.159  0.3785  0.1874  0.1052
   49MOL    C76 8812   0.046   0.493   1.056 -0.1497 -0.0045 -0.0815
   49MOL    O77 8813   0.143   0.558   1.010  0.2970  0.4838 -0.2099
   49MOL    O78 8814   7.774   0.522   1.021 -0.4885  0.1619 -0.2635
   49MOL    H79 8815   7.716   0.363   1.223  0.2370 -1.0772 -1.1058
   49MOL    H80 8816   7.811   0.291   1.331 -4.1132 -0.9330 -1.4271
   49MOL    H81 8817   0.166   0.390   1.198 -0.1668 -0.0027  1.5975
   49MOL    H82 8818   7.791   0.602   0.972 -0.2423  0.4206  0.2339
   49MOL    C83 8819   0.065   0.246   1.087 -0.2008 -0.0239 -0.3542
   49MOL    C84 8820   0.124   0.124   1.163  0.0429 -0.2968 -0.4118
   49MOL    C85 8821   0.275   0.150   1.196  0.6973  0.7203 -0.2150
   49MOL    O86 8822   0.368   0.137   1.115  0.8198  0.4123  0.5525
   49MOL    O87 8823   0.286   0.196   1.320 -0.1374  0.0475  0.6111
   49MOL    H88 8824   0.108   0.253   0.987  2.3200  2.0377  0.8132
   49MOL    H89 8825   7.813   0.218   1.079 -1.0435  2.5585  0.8573
   49MOL    H90 8826   0.071   0.107   1.257  1.3787 -0.0815  0.3927
   49MOL    H91 8827   0.376   0.207   1.348  0.6337 -0.4350 -1.6309
   49MOL    C92 8828   0.115   7.851   1.068 -0.2493  0.0982 -0.0894
   49MOL    C93 8829   0.084   7.716   1.142 -0.1092 -0.4577 -0.0376
   49MOL    C94 8830   7.783   7.708   1.169 -0.0777  0.0352  0.1808
   49MOL    O95 8831   7.738   7.720   1.284  0.0571 -0.0268 -0.1990
   49MOL    O96 8832   7.718   7.687   1.051 -0.2481 -0.8504  0.0926
   49MOL    H97 8833   0.208   7.832   1.015 -0.6630  1.0762 -1.1894
   49MOL    H98 8834   0.045   0.009   0.985 -1.0411 -2.2476  0.2346
   49MOL    H99 8835   0.119   7.633   1.080  1.4856 -0.8153  1.3025
   49MOL   H100 8836   7.627   7.662   1.057 -0.5484  0.5565  1.8302
   49MOL   C101 8837   0.166   7.696   1.273 -0.0710  0.0379  0.0393
   49MOL   C102 8838   0.167   7.547   1.325 -0.2512 -0.3026  0.1167
   49MOL   C103 8839   0.116   7.522   1.471  0.5732 -0.3808 -0.4246
   49MOL   O104 8840   0.041   7.426   1.503  0.2117  0.3090  0.2322
   49MOL   O105 8841   0.165   7.620   1.553  0.2459 -0.0145 -0.1202
   49MOL   H106 8842   0.125   7.752   1.357  0.5703 -1.5617  1.4536
   49MOL   H107 8843   0.268   7.730   1.255  0.2123 -1.0217 -0.3800
   49MOL   H108 8844   0.091   7.503   1.260 -1.4589  0.5756  0.9092
   49MOL   H109 8845   0.126   7.605   1.638  0.3257 -0.6947 -0.1967
   49MOL   C110 8846   0.292   7.470   1.295 -0.3501  0.2736 -0.1382
   49MOL   C111 8847   0.293   7.315   1.326  0.1586  0.2420 -0.0005
   49MOL   C112 8848   0.398   7.289   1.437 -0.2911 -0.0266  0.2271
   49MOL   O113 8849   0.494   7.212   1.420  0.0568 -0.2060 -0.0583
   49MOL   O114 8850   0.376   7.358   1.549 -0.0115  0.7365  0.1509
   49MOL   H115 8851   0.364   7.523   1.358 -2.1185  0.4852  1.7157
   49MOL   H116 8852   0.322   7.479   1.190 -2.7084  0.9196 -0.7869
   49MOL   H117 8853   0.196   7.299   1.373  1.3987 -0.6757  2.3715
   49MOL   H118 8854   0.446   7.339   1.610 -0.0130  1.0089  0.2359
   49MOL   C119 8855   0.313   7.218   1.195 -0.2827 -0.1055  0.6903
   49MOL   C120 8856   0.220   7.251   1.074 -0.6172  0.2660  0.4355
   49MOL   C121 8857   0.070   7.262   1.126 -0.0936  0.2012 -0.1118
   49MOL   O122 8858   0.022   7.180   1.205  0.7584 -0.2061  0.4564
   49MOL   O123 8859   0.008   7.370   1.076  0.2343  0.2858  0.0303
   49MOL   H124 8860   0.302   7.115   1.228  0.0397 -0.3304  0.1021
   49MOL   H125 8861   0.418   7.215   1.166  0.6661 -0.0554  3.9044
   49MOL   H126 8862   0.258   7.349   1.044 -0.1873  0.4977  1.6922
   49MOL   H127 8863   7.778   7.387   1.118 -1.2312 -0.8297 -2.3090
   49MOL   C128 8864   0.231   7.166   0.951 -0.7118 -0.1450  0.3957
   49MOL   C129 8865   0.224   7.009   0.980  0.0791 -0.0136 -0.4316
   49MOL   C130 8866   0.360   6.954   1.024 -0.1890  0.2329  0.6519
   49MOL   O131 8867   0.465   6.992   0.981  0.2199  0.0095  0.2909
   49MOL   O132 8868   0.344   6.860   1.122 -0.2193  0.0382 -0.5215
   49MOL   H133 8869   0.314   7.184   0.882 -0.6876  0.7704  0.6597
   49MOL   H134 8870   0.148   7.198   0.888 -1.7132 -1.8540  0.8197
   49MOL   H135 8871   0.155   6.990   1.062  1.5070 -2.7938  0.1821
   49MOL   H136 8872   0.430   6.826   1.145 -0.1434  0.1417 -0.6570
   49MOL   C137 8873   0.162   6.938   0.855  0.3934 -0.2623 -0.4030
   49MOL   C138 8874   0.007   6.955   0.823  0.1625  0.4111 -0.3976
   49MOL   C139 8875   7.786   6.933   0.952 -0.4707  0.5798  0.3255
   49MOL   O140 8876   7.795   6.820   1.014  0.1287 -0.0798  0.1089
   49MOL   O141 8877   7.715   7.043   0.997 -0.1210 -0.4757  0.2950
   49MOL   H142 8878   0.175   6.830   0.863  0.2283 -0.3661 -1.4617
   49MOL   H143 8879   0.217   6.964   0.765  3.1464  0.7268  1.4914
   49MOL   H144 8880   7.844   7.057   0.788 -0.4411 -0.7517 -3.6751
   49MOL   H145 8881   7.663   7.009   1.068 -0.4859 -0.8587 -0.1455
   49MOL   C146 8882   7.801   6.863   0.717 -0.6444  0.2516  0.1634
   49MOL   C147 8883   0.001   6.883   0.573 -0.6511 -0.1842 -0.5178
   49MOL   C148 8884   7.830   7.026   0.533  0.2149 -0.7569  0.8100
   49MOL   O149 8885   7.722   7.082   0.524  0.4079 -0.0994 -0.6063
   49MOL   O150 8886   0.097   7.085   0.509  0.4431 -0.1220  0.3721
   49MOL   H151 8887   7.693   6.879   0.711 -1.0507 -2.0433  1.0003
   49MOL   H152 8888   7.811   6.758   0.744 -0.5304  0.1483 -0.2849
   49MOL   H153 8889   0.108   6.863   0.567 -0.7869 -1.3966  0.9304
   49MOL   H154 8890   0.087   7.179   0.513 -2.0667 -0.4017  1.2877
   49MOL   C155 8891   7.787   6.788   0.479 -0.1245 -1.0421 -0.6997
   49MOL   C156 8892   7.826   6.780   0.326  0.8526  0.0056 -0.1530
   49MOL   C157 8893   7.703   6.737   0.242 -0.1515  0.0029 -0.3367
   49MOL   O158 8894   7.636   6.807   0.168 -0.1544 -0.2870 -0.2950
   49MOL   O159 8895   7.684   6.607   0.250  0.1233  0.0207 -0.0087
   49MOL   H160 8896   7.680   6.796   0.498 -0.6270 -1.4170 -3.2978
   49MOL   H161 8897   7.809   6.693   0.529 -1.0896 -1.3138 -0.7855
   49MOL   H162 8898   7.844   6.883   0.296  1.3450  0.2011  0.7957
   49MOL   H163 8899   7.610   6.575   0.200  2.3839 -2.6028 -1.7994
   49MOL   C164 8900   0.103   6.699   0.299 -0.1185 -0.2832 -0.6622
   49MOL   C165 8901   0.173   6.723   0.165 -0.4509 -0.6233  1.0959
   49MOL   C166 8902   0.233   6.596   0.093  0.3958 -0.4238 -0.3010
   49MOL   O167 8903   0.212   6.484   0.132  0.5706  0.2209 -0.0487
   49MOL   O168 8904   0.314   6.627   7.837 -0.5157  0.1943 -0.1407
   49MOL   H169 8905   0.090   6.592   0.313 -0.1899 -0.2311 -0.3447
   49MOL   H170 8906   0.173   6.729   0.377 -0.2691 -1.2317 -0.1619
   49MOL   H171 8907   0.095   6.746   0.093  0.0595  1.8159  1.2889
   49MOL   H172 8908   0.333   6.545   7.795 -0.8861 -1.3595  2.5714
   49MOL   C173 8909   0.282   6.839   0.168  0.0816  0.0617  0.6721
   49MOL   C174 8910   0.242   6.966   0.255 -0.0388  0.4939  0.1203
   49MOL   C175 8911   0.336   7.088   0.247 -0.1804 -0.4280 -0.1460
   49MOL   O176 8912   0.449   7.089   0.195  0.5776  0.3184 -0.3729
   49MOL   O177 8913   0.282   7.200   0.303  0.0919 -0.2368 -0.1328
   49MOL   H178 8914   0.312   6.870   0.068 -0.5419  0.0757  0.4891
   49MOL   H179 8915   0.372   6.790   0.206  0.5820 -0.6180 -1.3555
   49MOL   H180 8916   0.147   7.005   0.219 -0.3967  0.0485  0.5726
   49MOL   H181 8917   0.340   7.274   0.292  0.9287 -0.7555  0.7193
   49MOL   H182 8918   0.222   6.927   0.355 -0.3098 -0.2545 -0.2225
   50MOL     C1 8919   4.780   7.760   1.359  0.4011 -0.0115 -0.0509
   50MOL     C2 8920   4.799   0.059   1.383  0.0593 -0.0468 -0.1439
   50MOL     C3 8921   4.939   0.104   1.346  0.0207  0.2450 -0.3705
   50MOL     O4 8922   4.965   0.208   1.293  0.7488 -0.1202  0.0429
   50MOL     O5 8923   5.030   0.013   1.390  0.2874  0.1566  0.1402
   50MOL     H6 8924   4.676   7.732   1.372 -0.3780 -0.0335 -5.3532
   50MOL     H7 8925   4.810   7.724   1.260  1.3388 -1.4857  0.7608
   50MOL     H8 8926   4.736   0.118   1.316 -0.2554 -0.1183  0.0859
   50MOL     H9 8927   5.119   0.046   1.390  0.7463 -0.9776 -2.0764
   50MOL    H10 8928   4.828   7.696   1.433 -0.3745 -1.0630 -0.4506
   50MOL    C11 8929   4.764   0.094   1.524 -0.4111  0.0554 -0.1823
   50MOL    C12 8930   4.737   0.242   1.564  0.1746 -0.1144  0.2107
   50MOL    C13 8931   4.608   0.309   1.501  0.4704 -0.0135  0.3078
   50MOL    O14 8932   4.556   0.267   1.398  0.2058  0.0668 -1.0854
   50MOL    O15 8933   4.569   0.432   1.565 -0.4096  0.5684  0.4352
   50MOL    H16 8934   4.835   0.046   1.592  0.9062  1.2616 -0.6866
   50MOL    H17 8935   4.668   0.042   1.534 -2.1173  2.8809 -1.4247
   50MOL    H18 8936   4.690   0.228   1.662 -2.1700 -0.7603 -0.9931
   50MOL    H19 8937   4.491   0.478   1.537 -0.1057  1.0240  0.3318
   50MOL    C20 8938   4.859   0.333   1.584  0.6115 -0.2083 -0.1624
   50MOL    C21 8939   4.974   0.284   1.682  1.1170 -0.1717 -0.4986
   50MOL    C22 8940   4.911   0.240   1.813  0.7883 -0.5254  0.0748
   50MOL    O23 8941   4.815   0.291   1.867 -0.2667 -0.0130 -0.4013
   50MOL    O24 8942   4.981   0.138   1.866  0.1656  0.0195 -0.8089
   50MOL    H25 8943   4.822   0.428   1.622 -2.8353 -1.5663  0.0498
   50MOL    H26 8944   4.900   0.339   1.483 -0.8026  0.3937 -0.7170
   50MOL    H27 8945   5.020   0.200   1.630 -1.2418 -0.5686 -2.0298
   50MOL    H28 8946   4.943   0.116   1.949  0.6968 -0.3251 -0.6589
   50MOL    C29 8947   5.092   0.394   1.701  0.0955 -0.4369 -0.1534
   50MOL    C30 8948   5.230   0.365   1.765 -0.2041  0.5027 -0.4008
   50MOL    C31 8949   5.288   0.492   1.827 -0.4543 -0.4071  0.0476
   50MOL    O32 8950   5.308   0.593   1.759 -0.2629  0.6113  0.2749
   50MOL    O33 8951   5.293   0.489   1.958  0.0011 -0.2908  0.2071
   50MOL    H34 8952   5.042   0.476   1.752  1.0278 -0.5472  0.9650
   50MOL    H35 8953   5.106   0.456   1.612 -5.4145  1.9050  0.4380
   50MOL    H36 8954   5.202   0.302   1.849  0.8144 -0.4781 -0.7838
   50MOL    H37 8955   5.294   0.578   1.990 -0.2815 -0.2497  0.0933
   50MOL    C38 8956   5.322   0.287   1.668  0.5910  0.0873  0.3937
   50MOL    C39 8957   5.365   0.358   1.533 -0.1799  0.0948  0.4311
   50MOL    C40 8958   5.309   0.290   1.408  0.2295  0.5717  0.5488
   50MOL    O41 8959   5.261   0.176   1.404  0.4782  0.2919 -0.0044
   50MOL    O42 8960   5.326   0.370   1.300 -0.2254 -0.2075  0.0209
   50MOL    H43 8961   5.275   0.193   1.639 -1.2667  1.0910  0.0163
   50MOL    H44 8962   5.409   0.274   1.732  0.8463 -0.4725 -0.0666
   50MOL    H45 8963   5.335   0.463   1.533  0.3869  0.2583  0.1542
   50MOL    H46 8964   5.272   0.336   1.231  0.2137  1.7668 -1.3211
   50MOL    C47 8965   5.524   0.370   1.527 -0.2794 -0.1348  0.2496
   50MOL    C48 8966   5.582   0.478   1.432 -0.7148 -0.0209  0.1947
   50MOL    C49 8967   5.655   0.420   1.307  0.0095 -0.5968 -0.3376
   50MOL    O50 8968   5.741   0.330   1.307  0.3410  0.6539  0.3428
   50MOL    O51 8969   5.596   0.468   1.198  0.1719 -0.7903  0.1857
   50MOL    H52 8970   5.568   0.273   1.502  0.7047  0.2493  0.4829
   50MOL    H53 8971   5.561   0.396   1.626  0.5246  0.6975 -0.2700
   50MOL    H54 8972   5.510   0.549   1.392 -1.4636 -0.8173  0.1059
   50MOL    H55 8973   5.639   0.427   1.124  1.0371  1.1491 -0.4064
   50MOL    C56 8974   5.687   0.561   1.517  0.1661 -0.7343  0.1167
   50MOL    C57 8975   5.627   0.670   1.609 -0.3272  0.2648 -0.0822
   50MOL    C58 8976   5.576   0.793   1.539 -0.1800  0.2228  0.3419
   50MOL    O59 8977   5.471   0.841   1.580  0.4218 -0.1970  0.1449
   50MOL    O60 8978   5.656   0.843   1.439 -0.2563  0.4257 -0.4990
   50MOL    H61 8979   5.754   0.614   1.448 -0.0256  0.0422  0.5246
   50MOL    H62 8980   5.741   0.490   1.579 -0.6969  0.2287  2.0023
   50MOL    H63 8981   5.542   0.627   1.662  0.4077 -1.8092 -0.5620
   50MOL    H64 8982   5.626   0.921   1.394  1.7496  0.6941 -1.4163
   50MOL    C65 8983   5.721   0.711   1.722 -0.3738 -0.2743  0.1346
   50MOL    C66 8984   5.665   0.677   1.865  0.0280 -0.1581 -0.2212
   50MOL    C67 8985   5.720   0.775   1.975 -0.1330 -0.2613  0.0488
   50MOL    O68 8986   5.822   0.833   1.958 -0.2543 -0.5332  0.0100
   50MOL    O69 8987   5.636   0.782   2.082 -0.1424 -0.1687  0.2714
   50MOL    H70 8988   5.759   0.813   1.712 -0.0293 -0.5223 -1.1122
   50MOL    H71 8989   5.820   0.667   1.707 -0.5957 -0.3044 -1.2660
   50MOL    H72 8990   5.556   0.678   1.867 -0.0126 -0.0106 -2.2120
   50MOL    H73 8991   5.664   0.842   2.150  1.7431 -1.0128  0.2820
   50MOL    C74 8992   5.704   0.531   1.905  1.0174 -0.2338 -0.5332
   50MOL    C75 8993   5.649   0.473   2.031 -0.1593 -0.0343 -0.2664
   50MOL    C76 8994   5.733   0.513   2.148  0.0738  0.2969 -0.5251
   50MOL    O77 8995   5.676   0.520   2.257 -0.0081 -0.0267  0.2338
   50MOL    O78 8996   5.865   0.527   2.120  0.2640 -0.2181  0.5703
   50MOL    H79 8997   5.811   0.528   1.885  1.3898  0.1190  1.2708
   50MOL    H80 8998   5.659   0.474   1.824 -1.2678 -0.3050  0.7325
   50MOL    H81 8999   5.544   0.501   2.039 -0.3877 -0.6236 -1.1557
   50MOL    H82 9000   5.910   0.555   2.198 -0.9236 -0.9396  1.5358
   50MOL    C83 9001   5.652   0.314   2.017  0.9299 -0.7640 -0.9373
   50MOL    C84 9002   5.612   0.224   2.132  0.3806  0.5907  0.9256
   50MOL    C85 9003   5.651   0.075   2.099 -0.7544  0.4254 -0.0833
   50MOL    O86 9004   5.689   7.844   2.186  0.0840  0.1102  0.8606
   50MOL    O87 9005   5.647   0.047   1.976  0.0968  0.1274  0.1515
   50MOL    H88 9006   5.755   0.291   1.991  1.3492  0.7983 -0.7026
   50MOL    H89 9007   5.595   0.283   1.929 -1.6936  0.6421  0.2053
   50MOL    H90 9008   5.669   0.261   2.218  1.1652  2.3507 -0.3287
   50MOL    H91 9009   5.672   7.811   1.955  0.1380 -0.3597  2.1933
   50MOL    C92 9010   5.465   0.244   2.175  0.8514 -0.5920 -0.1046
   50MOL    C93 9011   5.448   0.265   2.327 -0.2711  0.2417  0.1261
   50MOL    C94 9012   5.472   0.144   2.416 -0.4571  0.1303  0.6391
   50MOL    O95 9013   5.562   0.143   2.502 -0.0280 -0.1567  0.1144
   50MOL    O96 9014   5.394   0.032   2.382 -0.5592  0.0480 -0.1755
   50MOL    H97 9015   5.411   0.158   2.134 -0.6088  0.5672 -0.6668
   50MOL    H98 9016   5.425   0.333   2.126 -1.9888 -2.6719 -1.7299
   50MOL    H99 9017   5.522   0.333   2.369  1.3190 -0.7744 -1.0040
   50MOL   H100 9018   5.435   7.809   2.420 -1.3120  0.7792  2.1492
   50MOL   C101 9019   5.312   0.328   2.363  0.0117 -0.6232  0.0775
   50MOL   C102 9020   5.191   0.260   2.293  0.5652  0.0737  0.0223
   50MOL   C103 9021   5.115   0.369   2.212 -0.3594 -0.7790 -0.6819
   50MOL   O104 9022   5.106   0.487   2.248  0.3065  0.9707  0.3806
   50MOL   O105 9023   5.075   0.322   2.095  0.3289  0.1158 -0.1734
   50MOL   H106 9024   5.311   0.437   2.350  0.2678 -0.4598  1.3274
   50MOL   H107 9025   5.294   0.325   2.471 -3.4260  0.4732 -0.4060
   50MOL   H108 9026   5.223   0.180   2.227 -0.6470 -0.1572 -0.2957
   50MOL   H109 9027   5.032   0.399   2.062  0.6212  1.2677  2.0600
   50MOL   C110 9028   5.086   0.202   2.396  0.4822 -0.3615  0.3948
   50MOL   C111 9029   4.983   0.110   2.336  0.9753 -0.2670 -0.3793
   50MOL   C112 9030   4.868   0.079   2.440  0.6558 -0.6654  0.4933
   50MOL   O113 9031   4.879   0.088   2.564  0.1032 -0.2191 -0.1059
   50MOL   O114 9032   4.757   0.015   2.383  0.6011 -0.0984 -0.1802
   50MOL   H115 9033   5.041   0.269   2.469 -1.6411  0.1478 -1.3294
   50MOL   H116 9034   5.151   0.139   2.457  1.4110 -0.9205 -1.1304
   50MOL   H117 9035   4.931   0.160   2.254 -1.0555 -2.3224 -0.3789
   50MOL   H118 9036   4.707   7.841   2.458  0.9450  0.0938  0.1164
   50MOL   C119 9037   5.044   7.827   2.288 -0.0171 -0.2562 -0.3482
   50MOL   C120 9038   5.050   7.792   2.136 -0.4385  0.2377  0.3414
   50MOL   C121 9039   4.920   7.752   2.085 -0.2588 -0.5009 -0.0024
   50MOL   O122 9040   4.888   7.634   2.069  0.1540 -0.4855 -0.0620
   50MOL   O123 9041   4.837   0.000   2.076  0.3875 -0.0008  0.0549
   50MOL   H124 9042   4.991   7.745   2.337 -2.5129  0.4417 -1.7431
   50MOL   H125 9043   5.139   7.810   2.339 -0.1454 -2.5305 -0.7791
   50MOL   H126 9044   5.083   0.020   2.070  1.9266 -0.1417  1.0060
   50MOL   H127 9045   4.748   7.822   2.070  0.2454  0.4696 -0.2762
   50MOL   C128 9046   5.165   7.687   2.127  0.6912  0.4234 -0.6973
   50MOL   C129 9047   5.208   7.651   1.980 -0.7622 -0.2214  0.1547
   50MOL   C130 9048   5.146   7.528   1.915 -0.2985 -0.2617 -0.6862
   50MOL   O131 9049   5.086   7.531   1.804 -0.3051 -0.4179  0.2977
   50MOL   O132 9050   5.147   7.419   2.000  0.0391 -0.1150  0.1708
   50MOL   H133 9051   5.146   7.595   2.183  0.4333 -0.4248 -2.1481
   50MOL   H134 9052   5.251   7.722   2.184  0.6881 -2.2632  1.0712
   50MOL   H135 9053   5.186   7.739   1.920 -0.2883  0.2405  0.6556
   50MOL   H136 9054   5.115   7.341   1.959 -0.5152  0.0844  0.2242
   50MOL   C137 9055   5.366   7.635   1.981  0.2379  0.0127  0.4665
   50MOL   C138 9056   5.445   7.607   1.847  0.0174  0.8978  0.8366
   50MOL   C139 9057   5.585   7.571   1.886 -0.1987 -0.0078 -0.5229
   50MOL   O140 9058   5.673   7.657   1.892  0.2712  0.1577 -0.2377
   50MOL   O141 9059   5.603   7.444   1.947 -0.1448 -0.1628  0.1202
   50MOL   H142 9060   5.391   7.558   2.053 -0.8221 -0.9662 -0.2009
   50MOL   H143 9061   5.415   7.718   2.031  0.5533  2.0289 -2.9991
   50MOL   H144 9062   5.403   7.525   1.789  0.0753  0.2143  1.7517
   50MOL   H145 9063   5.691   7.441   1.981 -0.1884 -0.5551  0.2061
   50MOL   C146 9064   5.441   7.732   1.753 -0.4716  0.1294  0.8328
   50MOL   C147 9065   5.428   7.700   1.596  0.3577  0.2234 -0.3132
   50MOL   C148 9066   5.294   7.647   1.540 -0.4608 -0.8048  0.5694
   50MOL   O149 9067   5.280   7.547   1.472 -0.7544  0.1907  0.1915
   50MOL   O150 9068   5.187   7.724   1.588 -0.0358  0.4981  0.1244
   50MOL   H151 9069   5.525   7.800   1.769 -0.3687  0.0941  0.4478
   50MOL   H152 9070   5.363   7.802   1.783  0.2523  1.6905 -0.8098
   50MOL   H153 9071   5.428   7.798   1.549  2.5049 -0.4356 -1.7662
   50MOL   H154 9072   5.109   7.671   1.576  1.2247 -1.4471  0.2158
   50MOL   C155 9073   5.555   7.635   1.527 -0.6314  0.0298 -0.4175
   50MOL   C156 9074   5.612   7.710   1.415 -0.1889  0.0804 -0.3990
   50MOL   C157 9075   5.523   7.709   1.292 -0.4038 -0.3529  0.2198
   50MOL   O158 9076   5.494   7.613   1.221 -1.0408  0.3386  0.6343
   50MOL   O159 9077   5.450   7.826   1.282 -0.1611  0.2815  0.1333
   50MOL   H160 9078   5.526   7.535   1.494 -0.2008 -0.7390  1.4363
   50MOL   H161 9079   5.636   7.613   1.597  0.0388 -1.6098 -1.6843
   50MOL   H162 9080   5.614   7.815   1.442  0.9490 -0.4207  1.5910
   50MOL   H163 9081   5.380   7.821   1.218  0.1458  1.3805 -0.2837
   50MOL   C164 9082   5.764   7.682   1.377  0.8414 -0.5323  0.3235
   50MOL   C165 9083   5.872   7.744   1.468 -0.0320 -0.8518 -0.1757
   50MOL   C166 9084   5.867   0.047   1.460 -0.0603 -0.4365  1.3307
   50MOL   O167 9085   5.854   0.124   1.552  0.3672 -0.0487  0.2581
   50MOL   O168 9086   5.865   0.087   1.329  0.2770 -0.3322 -0.0848
   50MOL   H169 9087   5.773   7.715   1.274 -1.7733 -0.8385 -0.0407
   50MOL   H170 9088   5.777   7.574   1.375 -2.3532 -0.9574 -1.7684
   50MOL   H171 9089   5.858   7.717   1.573  2.7397  1.2930  0.8169
   50MOL   H172 9090   5.825   0.172   1.317  2.1655  0.6140  0.1389
   50MOL   C173 9091   6.010   7.692   1.421  0.7875  0.1989 -0.0282
   50MOL   C174 9092   6.124   7.731   1.514 -0.4991  0.2696  0.1990
   50MOL   C175 9093   6.113   7.657   1.643  0.5791 -0.4346  0.5095
   50MOL   O176 9094   6.030   7.567   1.669 -0.4751 -0.2033  0.2626
   50MOL   O177 9095   6.197   7.707   1.740 -0.1505  0.5517 -0.2058
   50MOL   H178 9096   6.025   7.731   1.321  1.0610 -3.2059 -1.3863
   50MOL   H179 9097   6.000   7.586   1.395 -0.4729  0.4569 -0.6518
   50MOL   H180 9098   6.222   7.704   1.474 -0.6380  1.0988 -0.7271
   50MOL   H181 9099   6.269   7.761   1.710  0.1808  0.3559  0.2459
   50MOL   H182 9100   6.130   7.838   1.534  0.0809  0.5645 -1.4400
   51MOL     C1 9101   4.457   5.165   1.087 -0.1663  0.6522 -0.2137
   51MOL     C2 9102   4.498   5.152   0.937  0.1935 -0.3629  0.1990
   51MOL     C3 9103   4.560   5.018   0.898 -0.0423 -0.4999  0.0487
   51MOL     O4 9104   4.682   4.999   0.879  0.3550  0.2203  0.7248
   51MOL     O5 9105   4.466   4.925   0.874  0.2518  0.3137  0.6841
   51MOL     H6 9106   4.409   5.254   1.127  2.4689  1.9355  0.2232
   51MOL     H7 9107   4.408   5.074   1.122  1.1267 -0.5903 -1.5351
   51MOL     H8 9108   4.417   5.150   0.864 -0.0338 -1.6562  0.4759
   51MOL     H9 9109   4.504   4.842   0.850  0.1532 -0.1128  1.9487
   51MOL    H10 9110   4.541   5.166   1.157 -1.5985  3.3690  1.5551
   51MOL    C11 9111   4.593   5.268   0.906 -0.4526  0.2201 -0.0592
   51MOL    C12 9112   4.521   5.400   0.905 -0.5921 -0.1179 -0.7336
   51MOL    C13 9113   4.433   5.433   0.784  0.6891  0.1491 -0.4920
   51MOL    O14 9114   4.422   5.359   0.691 -0.0808 -0.1142  0.0684
   51MOL    O15 9115   4.373   5.553   0.804 -0.2478  0.5676 -1.0196
   51MOL    H16 9116   4.648   5.254   0.813  0.6075  2.6421  0.1540
   51MOL    H17 9117   4.661   5.263   0.991 -1.6024  2.8171  1.0841
   51MOL    H18 9118   4.462   5.416   0.996  1.9304  0.8644  0.7713
   51MOL    H19 9119   4.309   5.583   0.741 -2.6731 -2.0228  0.0920
   51MOL    C20 9120   4.638   5.502   0.912  0.3390  0.4329 -0.5716
   51MOL    C21 9121   4.680   5.536   1.060 -0.5860  0.3915  0.6349
   51MOL    C22 9122   4.600   5.666   1.115  0.7030  0.5525  0.2130
   51MOL    O23 9123   4.652   5.759   1.178 -0.0982 -0.2687  0.0700
   51MOL    O24 9124   4.471   5.662   1.084  0.1213 -0.0577  0.5809
   51MOL    H25 9125   4.610   5.591   0.857 -2.2164  1.3053  1.9929
   51MOL    H26 9126   4.722   5.458   0.858  1.6069  0.5038  1.2578
   51MOL    H27 9127   4.667   5.458   1.134 -0.2471 -0.1284  0.1532
   51MOL    H28 9128   4.426   5.734   1.126  1.6029  0.2297  1.7539
   51MOL    C29 9129   4.834   5.549   1.065  0.1774 -0.4934  0.6686
   51MOL    C30 9130   4.902   5.406   1.073  0.0227  0.0485  0.3454
   51MOL    C31 9131   4.905   5.354   1.217 -0.4245 -0.1831 -0.0487
   51MOL    O32 9132   4.939   5.423   1.314 -0.2435  0.6046 -0.0663
   51MOL    O33 9133   4.858   5.229   1.222  0.3060 -0.1097 -0.5238
   51MOL    H34 9134   4.861   5.606   1.154  3.9039 -1.2636  0.0943
   51MOL    H35 9135   4.862   5.604   0.975 -0.8428  0.3960  0.8855
   51MOL    H36 9136   4.838   5.342   1.013 -1.4060  2.5750 -0.9064
   51MOL    H37 9137   4.846   5.207   1.313 -0.7137  3.6927  0.3593
   51MOL    C38 9138   5.049   5.413   1.011  0.3063 -0.0687  0.3045
   51MOL    C39 9139   5.102   5.274   0.969 -0.2535 -0.6844  0.0365
   51MOL    C40 9140   5.196   5.222   1.078  0.0860 -0.1853 -0.5599
   51MOL    O41 9141   5.263   5.292   1.153 -0.4447  0.5137 -0.1319
   51MOL    O42 9142   5.196   5.084   1.076 -0.6077  0.2276  0.2957
   51MOL    H43 9143   5.117   5.470   1.073  0.7934  1.8018 -1.8733
   51MOL    H44 9144   5.042   5.466   0.916  3.8950  1.0004  0.5720
   51MOL    H45 9145   5.022   5.201   0.953  0.0371 -1.1058  0.4690
   51MOL    H46 9146   5.270   5.053   1.125  0.2017 -1.2369 -1.8058
   51MOL    C47 9147   5.190   5.274   0.841 -0.1444  0.4840  0.0149
   51MOL    C48 9148   5.121   5.303   0.709  0.5479  0.6639  0.0211
   51MOL    C49 9149   5.026   5.189   0.672 -0.0912  0.6421 -0.5749
   51MOL    O50 9150   4.904   5.200   0.665  0.0917  0.1807 -0.2857
   51MOL    O51 9151   5.090   5.081   0.629 -0.4408  0.5803  0.0712
   51MOL    H52 9152   5.252   5.185   0.837 -0.2956  0.2821  1.6650
   51MOL    H53 9153   5.264   5.353   0.857  0.1645 -0.3494  2.9599
   51MOL    H54 9154   5.063   5.395   0.716 -0.2992  0.1427 -0.1711
   51MOL    H55 9155   5.017   5.024   0.609  1.9501 -1.8945 -2.0056
   51MOL    C56 9156   5.221   5.327   0.598 -0.0315  0.0794  0.8649
   51MOL    C57 9157   5.256   5.467   0.573  0.2679 -0.2036 -0.2683
   51MOL    C58 9158   5.136   5.543   0.504  0.5416 -0.0124 -0.1427
   51MOL    O59 9159   5.081   5.637   0.563 -0.3959 -0.0141  0.4569
   51MOL    O60 9160   5.101   5.495   0.382  0.1565  0.0302  0.2096
   51MOL    H61 9161   5.210   5.270   0.506  2.9181  1.5748 -0.4815
   51MOL    H62 9162   5.314   5.281   0.633 -1.9610 -4.1911  0.7393
   51MOL    H63 9163   5.266   5.531   0.661 -0.9306  0.7201 -0.7947
   51MOL    H64 9164   5.051   5.552   0.326 -0.4616 -0.6708  0.0288
   51MOL    C65 9165   5.379   5.481   0.477 -0.0181 -0.2569  0.3601
   51MOL    C66 9166   5.521   5.450   0.536  0.1210 -0.1959  0.4559
   51MOL    C67 9167   5.546   5.531   0.659 -0.2597 -0.1616  0.2156
   51MOL    O68 9168   5.615   5.637   0.666 -0.2354 -0.5651 -0.5086
   51MOL    O69 9169   5.475   5.477   0.762 -0.1561  0.0667  0.5470
   51MOL    H70 9170   5.381   5.583   0.438 -0.3022 -1.0753 -1.8512
   51MOL    H71 9171   5.363   5.420   0.388 -0.6293 -0.8725  0.8963
   51MOL    H72 9172   5.522   5.344   0.562  2.2510 -0.6238 -1.2345
   51MOL    H73 9173   5.462   5.525   0.842 -1.1180  0.2764  0.2773
   51MOL    C74 9174   5.622   5.454   0.423 -0.6115  0.1637 -0.2970
   51MOL    C75 9175   5.744   5.363   0.451  0.3215 -0.6820 -0.5056
   51MOL    C76 9176   5.874   5.434   0.400 -0.6710 -0.4631 -0.1559
   51MOL    O77 9177   5.916   5.435   0.284  0.1263  0.1799  0.2663
   51MOL    O78 9178   5.939   5.503   0.501 -0.5977  0.0790  0.4485
   51MOL    H79 9179   5.651   5.558   0.407  4.2317 -0.9117  0.5585
   51MOL    H80 9180   5.571   5.420   0.333 -0.1111  0.0714 -0.5481
   51MOL    H81 9181   5.761   5.344   0.557 -0.4657 -1.0535 -0.4456
   51MOL    H82 9182   6.018   5.547   0.476  0.0069 -0.9929  0.4498
   51MOL    C83 9183   5.730   5.222   0.399  0.5360 -0.5745  0.7067
   51MOL    C84 9184   5.847   5.121   0.407  0.6160 -0.4731  0.1332
   51MOL    C85 9185   5.813   5.007   0.311  0.6819  0.3644  0.1992
   51MOL    O86 9186   5.811   5.018   0.186 -0.0598 -0.4817 -0.4176
   51MOL    O87 9187   5.786   4.890   0.377  0.3478 -0.1300 -0.7775
   51MOL    H88 9188   5.703   5.236   0.294 -1.4359 -1.1328  1.1270
   51MOL    H89 9189   5.653   5.168   0.454 -0.2686  2.9382  3.1565
   51MOL    H90 9190   5.938   5.167   0.370  0.3677  0.8418  1.1444
   51MOL    H91 9191   5.758   4.833   0.307 -2.1978 -0.6647  0.6444
   51MOL    C92 9192   5.870   5.082   0.558  0.0751  0.5155  0.2016
   51MOL    C93 9193   6.004   5.024   0.602 -0.0274  0.4525  0.0597
   51MOL    C94 9194   6.009   4.986   0.750 -0.0439  0.0227  0.1916
   51MOL    O95 9195   6.004   4.870   0.790  0.2380 -0.4536  0.0979
   51MOL    O96 9196   6.026   5.096   0.829  0.3462  0.1759 -0.3944
   51MOL    H97 9197   5.797   5.005   0.583  1.2936 -0.6374  0.2228
   51MOL    H98 9198   5.848   5.167   0.623  0.7542  1.0445 -0.2533
   51MOL    H99 9199   6.022   4.935   0.542  1.8994  0.1947  0.9824
   51MOL   H100 9200   6.037   5.067   0.918  2.1478  0.6764 -0.4359
   51MOL   C101 9201   6.122   5.120   0.573 -0.2358  0.1110 -0.1432
   51MOL   C102 9202   6.266   5.072   0.623  0.6009  0.0352  0.0280
   51MOL   C103 9203   6.366   5.196   0.623  0.6627  0.0866 -0.3216
   51MOL   O104 9204   6.429   5.234   0.526  0.1432  1.0135 -0.1229
   51MOL   O105 9205   6.369   5.262   0.743  0.4902 -0.1395 -0.5260
   51MOL   H106 9206   6.095   5.214   0.620  0.1248  0.4048 -0.5248
   51MOL   H107 9207   6.137   5.129   0.465  2.5594  0.0301  0.2216
   51MOL   H108 9208   6.258   5.051   0.730 -2.5412  0.0189 -0.1711
   51MOL   H109 9209   6.410   5.346   0.725  1.8023 -0.4885  0.6606
   51MOL   C110 9210   6.320   4.948   0.549 -1.3682  0.1520 -0.1543
   51MOL   C111 9211   6.443   4.885   0.612  0.1276  0.0265 -0.0727
   51MOL   C112 9212   6.575   4.949   0.572 -0.1253 -0.7798  0.4372
   51MOL   O113 9213   6.627   4.949   0.454 -0.4648  0.4234 -0.1542
   51MOL   O114 9214   6.633   5.014   0.675  0.1769  0.2737  0.2596
   51MOL   H115 9215   6.337   4.978   0.446 -0.2241 -1.3882 -0.4321
   51MOL   H116 9216   6.239   4.876   0.536  0.1193 -1.9387  1.8238
   51MOL   H117 9217   6.438   4.899   0.720  0.9846 -3.5514  0.5299
   51MOL   H118 9218   6.716   5.051   0.648 -0.3847  0.7507 -0.8296
   51MOL   C119 9219   6.444   4.732   0.593 -0.3787  0.5407 -0.2177
   51MOL   C120 9220   6.571   4.642   0.619 -0.4788  0.5324 -0.3851
   51MOL   C121 9221   6.534   4.503   0.564  0.2915  0.0329 -0.0373
   51MOL   O122 9222   6.581   4.450   0.465  0.1091  0.3833 -0.6702
   51MOL   O123 9223   6.440   4.443   0.641  0.8450 -0.6158  0.0939
   51MOL   H124 9224   6.434   4.725   0.485 -1.0663 -0.2986 -0.1042
   51MOL   H125 9225   6.356   4.681   0.633 -0.4293  0.7625 -0.0417
   51MOL   H126 9226   6.655   4.683   0.562  0.0011 -0.8969 -0.7143
   51MOL   H127 9227   6.418   4.354   0.618 -0.3851  0.3350 -2.6300
   51MOL   C128 9228   6.624   4.623   0.767 -0.1140 -0.1447  0.1871
   51MOL   C129 9229   6.780   4.594   0.795 -0.6556  0.3781 -0.5815
   51MOL   C130 9230   6.823   4.449   0.749 -0.8987  0.1528 -0.3469
   51MOL   O131 9231   6.832   4.353   0.828 -0.5831  0.3421  0.2869
   51MOL   O132 9232   6.851   4.443   0.617 -0.2943 -0.0201  0.5915
   51MOL   H133 9233   6.567   4.557   0.831  2.0116 -0.9626  1.3048
   51MOL   H134 9234   6.614   4.720   0.816  2.9182  0.8611 -1.0273
   51MOL   H135 9235   6.845   4.653   0.730  1.3679  0.6267  1.5999
   51MOL   H136 9236   6.874   4.355   0.590  1.3713 -0.1815  2.4193
   51MOL   C137 9237   6.829   4.624   0.941 -0.4328 -0.0054  0.3098
   51MOL   C138 9238   6.976   4.597   0.962  0.4796 -0.2576 -0.3551
   51MOL   C139 9239   6.990   4.532   1.102  0.1512 -0.3857  0.4245
   51MOL   O140 9240   7.019   4.591   1.204 -0.3401  0.0344 -0.2042
   51MOL   O141 9241   6.972   4.398   1.089 -0.0996 -0.2854 -0.4206
   51MOL   H142 9242   6.767   4.555   0.998 -1.4855  2.2659  1.9735
   51MOL   H143 9243   6.809   4.722   0.983 -0.9206 -0.9619  2.3649
   51MOL   H144 9244   7.017   4.527   0.889  0.4247 -0.4783 -0.1756
   51MOL   H145 9245   6.995   4.336   1.156  0.0877 -1.0709 -1.1988
   51MOL   C146 9246   7.063   4.724   0.959  0.7226  0.4927 -0.1265
   51MOL   C147 9247   7.215   4.705   0.929 -0.7781  0.2550  0.6094
   51MOL   C148 9248   7.307   4.787   1.021  1.0146  0.1298  0.5170
   51MOL   O149 9249   7.366   4.896   0.992  1.0419  0.2237  0.0710
   51MOL   O150 9250   7.320   4.724   1.141  0.8705  0.1526  0.6436
   51MOL   H151 9251   7.039   4.776   1.051  1.6157  0.9774 -0.1645
   51MOL   H152 9252   7.024   4.795   0.885  0.1943  0.9181  0.5525
   51MOL   H153 9253   7.240   4.602   0.955  1.0244  0.0592 -1.7050
   51MOL   H154 9254   7.390   4.758   1.195 -0.6918  2.7303  1.1201
   51MOL   C155 9255   7.265   4.714   0.777  0.5435 -0.2054  0.6092
   51MOL   C156 9256   7.190   4.619   0.679  0.3149  0.1424 -0.2772
   51MOL   C157 9257   7.250   4.480   0.687 -0.0589  0.4969 -0.8132
   51MOL   O158 9258   7.200   4.392   0.755  0.0730 -0.3880  0.0574
   51MOL   O159 9259   7.354   4.458   0.607  0.1939  0.1283  0.3119
   51MOL   H160 9260   7.372   4.698   0.773  1.0189  2.8792 -0.2208
   51MOL   H161 9261   7.245   4.815   0.742  0.6092 -0.2983  0.2955
   51MOL   H162 9262   7.083   4.617   0.702  0.8390 -0.6602  2.2335
   51MOL   H163 9263   7.389   4.535   0.566  1.8751 -0.2088  1.0506
   51MOL   C164 9264   7.185   4.678   0.530  0.1139 -0.1419 -0.3865
   51MOL   C165 9265   7.100   4.591   0.428  0.3306 -1.2877 -0.1965
   51MOL   C166 9266   7.175   4.476   0.353 -0.0256  0.4347 -0.3168
   51MOL   O167 9267   7.288   4.498   0.308 -0.9029 -0.6178  0.0560
   51MOL   O168 9268   7.101   4.367   0.330  0.1709  0.3146  0.0729
   51MOL   H169 9269   7.287   4.695   0.499  0.3046 -3.2216 -1.6171
   51MOL   H170 9270   7.158   4.783   0.519 -0.3006 -0.1336  0.5809
   51MOL   H171 9271   7.008   4.559   0.477 -0.1651 -0.9001 -0.8647
   51MOL   H172 9272   7.145   4.329   0.255  2.9372  2.0209  0.7845
   51MOL   C173 9273   7.049   4.693   0.323  0.4539 -0.7709 -0.2417
   51MOL   C174 9274   6.938   4.653   0.220 -0.1071  0.4504  0.5004
   51MOL   C175 9275   6.803   4.635   0.291 -0.0018  0.2057 -0.3117
   51MOL   O176 9276   6.714   4.712   0.301  0.1277  0.2383 -0.1827
   51MOL   O177 9277   6.793   4.503   0.330 -0.7795  0.1802 -0.4095
   51MOL   H178 9278   7.134   4.732   0.268  1.4288 -0.7282  1.2742
   51MOL   H179 9279   7.002   4.776   0.377 -2.6118 -3.7982  2.0230
   51MOL   H180 9280   6.934   4.730   0.143  0.9825  0.5049  0.4985
   51MOL   H181 9281   6.710   4.491   0.373 -0.5861 -1.0958 -0.3766
   51MOL   H182 9282   6.963   4.558   0.174 -0.8395  0.0907  0.8341
   52MOL     C1 9283   0.700   3.588   6.023 -0.2415 -0.4901  0.2111
   52MOL     C2 9284   0.655   3.555   5.878  0.7606  0.8000  1.0913
   52MOL     C3 9285   0.525   3.627   5.836  0.1157  0.0169  0.5155
   52MOL     O4 9286   0.424   3.568   5.823  0.2748 -0.1851  0.2973
   52MOL     O5 9287   0.547   3.759   5.812 -0.2268  0.1660  0.0113
   52MOL     H6 9288   0.728   3.690   6.048 -0.7012 -0.4464  0.5517
   52MOL     H7 9289   0.622   3.576   6.098  0.7602  2.7949  1.8534
   52MOL     H8 9290   0.728   3.614   5.823 -0.1114  0.8699 -0.0192
   52MOL     H9 9291   0.639   3.779   5.811 -0.1217 -0.2376  1.2570
   52MOL    H10 9292   0.776   3.516   6.051 -0.2293 -0.1437  1.0961
   52MOL    C11 9293   0.659   3.400   5.862  0.0903 -0.3158  0.3511
   52MOL    C12 9294   0.640   3.342   5.717  0.8632  0.0949 -0.1515
   52MOL    C13 9295   0.620   3.194   5.720 -0.9836 -0.2063  0.3742
   52MOL    O14 9296   0.715   3.120   5.699  0.0321 -0.2539 -0.1104
   52MOL    O15 9297   0.498   3.151   5.755  0.1354 -0.5482 -0.0368
   52MOL    H16 9298   0.581   3.359   5.925  1.9337 -2.1612  1.5011
   52MOL    H17 9299   0.749   3.364   5.912 -0.3573  0.3330  1.6293
   52MOL    H18 9300   0.548   3.380   5.673  0.6206 -0.6976 -0.3374
   52MOL    H19 9301   0.429   3.214   5.770 -0.9684 -1.7489  0.0930
   52MOL    C20 9302   0.759   3.394   5.626 -0.4633 -0.6174  0.1269
   52MOL    C21 9303   0.736   3.408   5.474  0.7044 -0.1370  0.1989
   52MOL    C22 9304   0.633   3.513   5.440 -0.0889  0.2901 -0.4670
   52MOL    O23 9305   0.512   3.492   5.437 -0.1328  0.4099 -0.1954
   52MOL    O24 9306   0.685   3.635   5.447  0.4204 -0.1639  0.2500
   52MOL    H25 9307   0.857   3.361   5.658 -0.3576  0.7168  1.2223
   52MOL    H26 9308   0.786   3.490   5.668 -1.0776 -0.8851  1.1643
   52MOL    H27 9309   0.830   3.451   5.440 -0.5932  2.8620  0.1860
   52MOL    H28 9310   0.615   3.698   5.451  2.1644  1.9681 -1.0804
   52MOL    C29 9311   0.712   3.263   5.410  0.6720  0.2711  0.3575
   52MOL    C30 9312   0.713   3.237   5.247 -0.8700  0.0927  0.1673
   52MOL    C31 9313   0.850   3.276   5.179  0.2448 -0.3915 -0.0557
   52MOL    O32 9314   0.944   3.331   5.237 -0.3921  0.3815  0.3514
   52MOL    O33 9315   0.875   3.239   5.045  0.2765  0.3802  0.1995
   52MOL    H34 9316   0.618   3.224   5.449  0.3774  1.1852  0.5724
   52MOL    H35 9317   0.782   3.187   5.445 -0.8024 -1.0412  0.5339
   52MOL    H36 9318   0.719   3.129   5.233 -0.4336  0.0474  0.6509
   52MOL    H37 9319   0.959   3.276   5.025  0.7449  0.6844  2.5351
   52MOL    C38 9320   0.587   3.297   5.178  1.2399  0.2188  0.8291
   52MOL    C39 9321   0.515   3.218   5.072  0.0377  0.5108  0.3144
   52MOL    C40 9322   0.463   3.087   5.136 -0.3739  0.3799  0.2055
   52MOL    O41 9323   0.511   2.980   5.101  0.3166  0.1847  0.3526
   52MOL    O42 9324   0.357   3.102   5.224 -0.1897  0.1067 -0.6716
   52MOL    H43 9325   0.608   3.398   5.143  4.8567 -1.4730 -2.2689
   52MOL    H44 9326   0.512   3.314   5.256 -1.7421 -3.4831 -1.0124
   52MOL    H45 9327   0.431   3.280   5.041  1.4318  2.3484  0.1218
   52MOL    H46 9328   0.320   3.020   5.253  0.6405  0.3063  0.9686
   52MOL    C47 9329   0.605   3.205   4.935  0.6968 -0.1513  1.2615
   52MOL    C48 9330   0.517   3.180   4.808  0.3766  0.5479 -0.2667
   52MOL    C49 9331   0.491   3.030   4.794  0.0935  1.0551 -0.5234
   52MOL    O50 9332   0.587   2.958   4.764 -0.1962 -0.3639  0.2485
   52MOL    O51 9333   0.360   2.988   4.806 -0.1842 -0.2014 -0.2392
   52MOL    H52 9334   0.684   3.131   4.937  0.4589 -0.4211  0.7292
   52MOL    H53 9335   0.648   3.305   4.922 -1.6252  0.6092 -1.1157
   52MOL    H54 9336   0.421   3.225   4.830  0.0370 -0.1420 -0.3304
   52MOL    H55 9337   0.304   3.060   4.827  1.9255  1.2518  0.6021
   52MOL    C56 9338   0.573   3.232   4.678  0.2473  0.1134  0.6539
   52MOL    C57 9339   0.464   3.262   4.568  0.3036  0.3848  0.4971
   52MOL    C58 9340   0.488   3.177   4.440  0.4264 -0.5918  0.4495
   52MOL    O59 9341   0.547   3.216   4.338  0.1328 -0.2335  0.4102
   52MOL    O60 9342   0.427   3.057   4.441 -0.5312  0.2981 -0.2005
   52MOL    H61 9343   0.654   3.168   4.646 -1.4457 -1.6970 -0.1279
   52MOL    H62 9344   0.615   3.330   4.699  1.8325 -0.4752  0.2455
   52MOL    H63 9345   0.364   3.235   4.604 -0.9535  2.8344 -1.0460
   52MOL    H64 9346   0.456   3.015   4.361 -1.8858 -2.4529  0.6942
   52MOL    C65 9347   0.449   3.413   4.524 -0.2154  0.4594  0.3872
   52MOL    C66 9348   0.334   3.497   4.595  0.6296  0.3794 -0.1342
   52MOL    C67 9349   0.354   3.479   4.749  0.0192 -0.2679  0.1446
   52MOL    O68 9350   0.271   3.424   4.821  0.6958  0.1397  0.3164
   52MOL    O69 9351   0.464   3.537   4.792 -0.4250  0.2506  0.6173
   52MOL    H70 9352   0.420   3.415   4.419 -1.3915  0.8109  0.7023
   52MOL    H71 9353   0.546   3.463   4.529 -1.0126  2.4963 -2.7430
   52MOL    H72 9354   0.338   3.605   4.581  0.7469  0.6242  1.6441
   52MOL    H73 9355   0.483   3.513   4.882  0.5089  0.2511  0.4296
   52MOL    C74 9356   0.196   3.462   4.538 -0.7856  0.5337 -0.1660
   52MOL    C75 9357   0.174   3.532   4.400 -0.6217  0.1912  0.1559
   52MOL    C76 9358   0.078   3.659   4.402  0.2034  0.1245  0.2341
   52MOL    O77 9359   0.010   3.687   4.306 -0.5254 -0.6157  0.8631
   52MOL    O78 9360   0.099   3.729   4.515 -0.0345 -0.1388  0.1471
   52MOL    H79 9361   0.116   3.487   4.608  0.8611  0.6916  1.6983
   52MOL    H80 9362   0.200   3.353   4.537  1.2664  0.5975  0.1058
   52MOL    H81 9363   0.260   3.584   4.358 -1.5724  0.5862 -1.3495
   52MOL    H82 9364   0.035   3.797   4.501  0.3034 -0.1117 -1.3141
   52MOL    C83 9365   0.131   3.431   4.293  0.3433  0.3662  0.9011
   52MOL    C84 9366   0.166   3.461   4.145  0.2179 -0.2569 -0.8399
   52MOL    C85 9367   0.057   3.409   4.052 -0.4926  0.3491 -0.4952
   52MOL    O86 9368   7.828   3.326   4.088  0.0191 -0.1360 -0.0223
   52MOL    O87 9369   0.076   3.452   3.928  0.5698 -0.7454  0.1397
   52MOL    H88 9370   0.027   3.401   4.306  0.6345 -0.9329  0.3917
   52MOL    H89 9371   0.168   3.334   4.328  0.1850  1.0456  3.0032
   52MOL    H90 9372   0.176   3.568   4.123  1.4285  0.0877  1.1608
   52MOL    H91 9373   0.027   3.409   3.860 -1.2115 -2.1770  2.2224
   52MOL    C92 9374   0.299   3.391   4.119 -0.2947  0.3131 -0.1948
   52MOL    C93 9375   0.399   3.456   4.019  0.1229 -0.0080 -0.3591
   52MOL    C94 9376   0.420   3.372   3.895 -0.3199 -0.4106  0.0645
   52MOL    O95 9377   0.441   3.247   3.900 -0.6852  0.2517  0.6245
   52MOL    O96 9378   0.403   3.445   3.781 -0.7072  0.5672  0.2206
   52MOL    H97 9379   0.289   3.288   4.087  1.0980 -0.1687  0.8450
   52MOL    H98 9380   0.352   3.398   4.215  2.5281 -0.7736 -1.6292
   52MOL    H99 9381   0.358   3.547   3.978 -1.7447 -1.3494 -1.5215
   52MOL   H100 9382   0.394   3.394   3.702  3.4608 -2.4156  1.5121
   52MOL   C101 9383   0.537   3.490   4.081 -0.2233 -0.7007 -0.2629
   52MOL   C102 9384   0.532   3.618   4.179 -0.6690  0.0661  0.3756
   52MOL   C103 9385   0.503   3.754   4.104 -0.5043 -0.1498 -0.7158
   52MOL   O104 9386   0.589   3.812   4.034  0.0593  0.2677 -0.4651
   52MOL   O105 9387   0.382   3.799   4.113 -0.7198 -0.0456  0.1922
   52MOL   H106 9388   0.603   3.519   4.000  0.7581 -1.7935  0.1116
   52MOL   H107 9389   0.560   3.393   4.127 -0.1047 -0.8685 -0.6722
   52MOL   H108 9390   0.451   3.603   4.251  0.4537 -2.5954  1.1289
   52MOL   H109 9391   0.381   3.884   4.071  0.0409  0.3640  0.9748
   52MOL   C110 9392   0.675   3.631   4.255 -0.5543 -0.1672 -0.5420
   52MOL   C111 9393   0.704   3.751   4.361 -0.0875  0.0202  0.4287
   52MOL   C112 9394   0.599   3.778   4.466 -0.2130 -0.2918  0.4209
   52MOL   O113 9395   0.481   3.796   4.437  0.1461  0.2867  0.2485
   52MOL   O114 9396   0.649   3.792   4.593 -0.4962 -0.4359 -0.5932
   52MOL   H115 9397   0.757   3.627   4.184  0.6878  0.6028  0.8182
   52MOL   H116 9398   0.679   3.536   4.308  0.9542  0.1829 -0.0009
   52MOL   H117 9399   0.798   3.721   4.409 -0.4999  0.9913  1.8914
   52MOL   H118 9400   0.584   3.815   4.657  0.0481  0.7773 -0.4558
   52MOL   C119 9401   0.740   3.883   4.294  0.6377 -0.6042  0.2034
   52MOL   C120 9402   0.840   3.982   4.360 -0.3689  0.0175 -0.0103
   52MOL   C121 9403   0.765   4.118   4.395 -0.2295  0.5990  0.0680
   52MOL   O122 9404   0.790   4.222   4.332 -0.2299 -0.2599  0.4172
   52MOL   O123 9405   0.682   4.100   4.500 -0.1593 -0.6669 -1.0613
   52MOL   H124 9406   0.646   3.935   4.275  0.4873 -0.4893  1.2366
   52MOL   H125 9407   0.779   3.858   4.195 -0.9122  1.4573 -0.9712
   52MOL   H126 9408   0.868   3.934   4.453  0.5433  2.5306  1.0511
   52MOL   H127 9409   0.646   4.184   4.522 -0.2425 -1.2862  1.3179
   52MOL   C128 9410   0.970   4.012   4.269  1.3741 -0.4537  0.0120
   52MOL   C129 9411   1.069   3.898   4.243  0.6843 -0.6703  1.1469
   52MOL   C130 9412   1.104   3.836   4.376 -0.1066 -0.5468  0.0161
   52MOL   O131 9413   1.057   3.733   4.415 -0.2610 -0.0624  0.2697
   52MOL   O132 9414   1.192   3.926   4.441 -0.4976  0.9080 -0.0437
   52MOL   H133 9415   1.018   4.103   4.307 -1.5110  0.2484  2.1332
   52MOL   H134 9416   0.924   4.041   4.174  3.5142  0.0213 -0.9091
   52MOL   H135 9417   1.017   3.819   4.189 -2.4104  1.7061  0.4710
   52MOL   H136 9418   1.196   3.891   4.529 -0.4927  1.3774  0.1427
   52MOL   C137 9419   1.192   3.950   4.164 -0.2042 -0.4605  0.0377
   52MOL   C138 9420   1.170   4.019   4.028  0.1807 -0.6743 -0.4444
   52MOL   C139 9421   1.075   3.949   3.920  0.1750 -0.2952 -0.1770
   52MOL   O140 9422   1.045   3.832   3.931 -0.2686 -0.6172  0.1378
   52MOL   O141 9423   1.025   4.028   3.823  0.9083  0.0023  0.6205
   52MOL   H142 9424   1.260   3.866   4.147 -0.0103  0.0436 -1.7484
   52MOL   H143 9425   1.242   4.022   4.229  2.2542 -1.8248 -0.2624
   52MOL   H144 9426   1.123   4.113   4.057 -0.7337 -1.0995 -0.5099
   52MOL   H145 9427   1.053   4.118   3.835 -2.0508  0.8125  1.8159
   52MOL   C146 9428   1.311   4.053   3.958  0.2794  0.0925  0.2876
   52MOL   C147 9429   1.392   4.168   4.030  0.6278  0.2917 -1.1798
   52MOL   C148 9430   1.434   4.265   3.917  0.0602 -0.0373 -0.2532
   52MOL   O149 9431   1.392   4.384   3.907  0.1571  0.1622 -0.4073
   52MOL   O150 9432   1.527   4.204   3.837  0.4929  0.3160  0.5187
   52MOL   H151 9433   1.285   4.072   3.854  0.8391  1.7109  0.4264
   52MOL   H152 9434   1.373   3.965   3.941 -1.8525 -0.9573 -2.3737
   52MOL   H153 9435   1.335   4.215   4.110  0.8440 -1.5354  0.0894
   52MOL   H154 9436   1.564   4.272   3.782 -1.2159 -0.2458 -1.3907
   52MOL   C155 9437   1.514   4.101   4.100 -0.0909  0.4831 -0.1123
   52MOL   C156 9438   1.600   4.194   4.204 -0.6588  0.2258  1.2593
   52MOL   C157 9439   1.669   4.317   4.140  0.2789 -0.1783 -0.9834
   52MOL   O158 9440   1.619   4.429   4.157  0.3687  0.1091  0.5593
   52MOL   O159 9441   1.776   4.274   4.066 -0.2501  0.1356  0.0961
   52MOL   H160 9442   1.580   4.059   4.024  1.5686 -0.9151  2.0337
   52MOL   H161 9443   1.470   4.021   4.158 -0.8236  1.3642  0.5658
   52MOL   H162 9444   1.527   4.232   4.275 -1.5140  0.3527  0.3214
   52MOL   H163 9445   1.819   4.346   4.021 -0.9733  1.3605  1.3270
   52MOL   C164 9446   1.693   4.096   4.282 -0.1613  0.7607 -0.1939
   52MOL   C165 9447   1.726   4.144   4.423 -0.6218  1.0091  0.0876
   52MOL   C166 9448   1.859   4.075   4.470  0.2980 -0.2351 -0.1093
   52MOL   O167 9449   1.960   4.135   4.492 -0.0243  0.2784 -0.5801
   52MOL   O168 9450   1.847   3.935   4.473 -0.2197 -0.5459  0.4790
   52MOL   H169 9451   1.775   4.075   4.213 -0.4323  1.3463 -0.7029
   52MOL   H170 9452   1.636   4.004   4.292 -2.4995  2.0885 -0.9452
   52MOL   H171 9453   1.770   4.244   4.423 -2.7489  1.9613  0.8290
   52MOL   H172 9454   1.932   3.903   4.500  0.7161  2.4437  1.3103
   52MOL   C173 9455   1.603   4.126   4.526 -0.0501 -0.5667  0.6105
   52MOL   C174 9456   1.631   4.136   4.672  0.1510  0.0798 -0.2584
   52MOL   C175 9457   1.695   4.269   4.709 -1.0268  0.0028  0.3148
   52MOL   O176 9458   1.703   4.372   4.644  0.1727  0.2809  0.0692
   52MOL   O177 9459   1.738   4.258   4.839  0.2361  0.4326  0.3128
   52MOL   H178 9460   1.540   4.043   4.495 -0.3344 -0.1851  0.1594
   52MOL   H179 9461   1.539   4.213   4.516 -0.0205 -0.6766 -0.5753
   52MOL   H180 9462   1.541   4.121   4.733 -0.8002  1.5844 -1.2573
   52MOL   H181 9463   1.769   4.339   4.877  0.9877 -0.1951  1.0422
   52MOL   H182 9464   1.689   4.050   4.703  1.4989  1.2379  0.4554
   53MOL     C1 9465   6.069   4.719   1.076  0.3313  0.8285  0.8187
   53MOL     C2 9466   6.181   4.816   1.120  0.2519 -0.1617 -0.0359
   53MOL     C3 9467   6.118   4.942   1.178  0.0518 -0.4317  0.0714
   53MOL     O4 9468   6.050   5.017   1.104  0.0400  0.3273  0.2372
   53MOL     O5 9469   6.156   4.969   1.305  0.3212  0.1740 -0.1844
   53MOL     H6 9470   6.110   4.634   1.022  0.8040 -0.1485  2.7017
   53MOL     H7 9471   6.007   4.683   1.158  0.0728  2.8199  1.5236
   53MOL     H8 9472   6.230   4.762   1.201 -0.3672  0.2069  0.5891
   53MOL     H9 9473   6.110   5.042   1.344  0.4021  0.3306 -0.3795
   53MOL    H10 9474   6.004   4.778   1.010  2.1328  2.3234  0.3539
   53MOL    C11 9475   6.283   4.860   1.015 -0.0412  0.2246 -0.0266
   53MOL    C12 9476   6.431   4.886   1.060 -0.4151 -0.7114 -0.4841
   53MOL    C13 9477   6.493   4.759   1.130  0.8081 -0.2217  0.5193
   53MOL    O14 9478   6.569   4.768   1.224  0.3437 -0.3483  0.3481
   53MOL    O15 9479   6.454   4.640   1.075  0.2005  0.2032 -0.0768
   53MOL    H16 9480   6.251   4.955   0.973 -1.3695 -0.3752 -0.3656
   53MOL    H17 9481   6.293   4.793   0.930  0.8514  0.2116  0.0792
   53MOL    H18 9482   6.479   4.888   0.962 -0.3056  0.5827 -0.4133
   53MOL    H19 9483   6.495   4.561   1.107 -3.6243 -1.9410 -0.2062
   53MOL    C20 9484   6.448   5.010   1.156  0.2605 -0.5569 -0.4762
   53MOL    C21 9485   6.437   5.151   1.094  0.2525 -0.2497 -0.1467
   53MOL    C22 9486   6.562   5.199   1.014  0.2970 -0.2008  0.3518
   53MOL    O23 9487   6.591   5.322   1.003 -0.5208 -0.1560 -0.8553
   53MOL    O24 9488   6.632   5.098   0.969 -0.3926 -0.1974 -0.0183
   53MOL    H25 9489   6.546   5.001   1.202 -0.1700 -0.2279  0.5334
   53MOL    H26 9490   6.376   5.004   1.238  0.3729  1.8802 -0.1548
   53MOL    H27 9491   6.356   5.166   1.022  1.5893  1.7031 -1.2893
   53MOL    H28 9492   6.711   5.115   0.920 -0.9531  0.3631 -0.7254
   53MOL    C29 9493   6.408   5.254   1.207  0.0302  0.2123 -0.5455
   53MOL    C30 9494   6.270   5.322   1.186  0.7533  0.5132 -1.0827
   53MOL    C31 9495   6.250   5.395   1.052  0.2686  0.4135 -0.6338
   53MOL    O32 9496   6.297   5.509   1.030 -0.0443 -0.0681  0.2775
   53MOL    O33 9497   6.177   5.322   0.964 -0.1483  0.1445  0.2942
   53MOL    H34 9498   6.479   5.335   1.222  0.9493 -0.5602 -0.6472
   53MOL    H35 9499   6.412   5.222   1.311 -2.0366 -0.9069 -0.7809
   53MOL    H36 9500   6.191   5.249   1.200  1.2927  0.0378 -0.4683
   53MOL    H37 9501   6.157   5.367   0.884 -2.3678 -1.5219 -0.1201
   53MOL    C38 9502   6.251   5.424   1.306  0.6947  0.3907 -0.4725
   53MOL    C39 9503   6.215   5.363   1.441  0.3344 -0.5445  0.1716
   53MOL    C40 9504   6.072   5.301   1.451  0.3862  0.3941  0.2638
   53MOL    O41 9505   6.058   5.182   1.435 -0.1656  0.0123  0.2911
   53MOL    O42 9506   5.981   5.394   1.486 -0.0637  0.5123  0.0172
   53MOL    H43 9507   6.171   5.494   1.284 -1.7903 -2.0400  0.5446
   53MOL    H44 9508   6.341   5.486   1.315  0.7790  0.2549 -0.3688
   53MOL    H45 9509   6.278   5.277   1.461  0.5220 -0.3326  0.4872
   53MOL    H46 9510   6.015   5.482   1.483  2.8827 -0.6180 -2.4708
   53MOL    C47 9511   6.243   5.472   1.552 -0.4478 -0.3379 -0.4310
   53MOL    C48 9512   6.384   5.465   1.623 -0.4095 -0.1745  0.0209
   53MOL    C49 9513   6.407   5.338   1.705 -0.5267  0.2952 -0.0099
   53MOL    O50 9514   6.325   5.246   1.719  0.4669  0.1638 -0.4497
   53MOL    O51 9515   6.528   5.340   1.766 -0.7782  0.4785 -0.1609
   53MOL    H52 9516   6.163   5.460   1.625 -1.2360  0.3019 -1.1838
   53MOL    H53 9517   6.243   5.570   1.505  2.0214  1.0520  2.3151
   53MOL    H54 9518   6.463   5.478   1.549 -0.7930  3.6535  0.1847
   53MOL    H55 9519   6.574   5.423   1.762 -0.1134  0.0921 -0.4739
   53MOL    C56 9520   6.413   5.596   1.715  0.2566 -0.4578 -0.3250
   53MOL    C57 9521   6.339   5.606   1.846 -0.5576 -0.4325  0.6371
   53MOL    C58 9522   6.196   5.668   1.832 -0.2537 -0.5628  0.5321
   53MOL    O59 9523   6.139   5.692   1.728 -0.4131 -0.0291  0.2177
   53MOL    O60 9524   6.126   5.670   1.948 -0.8329 -0.6654  0.4980
   53MOL    H61 9525   6.382   5.676   1.647  0.6432 -0.3567 -0.3824
   53MOL    H62 9526   6.519   5.619   1.722 -0.1771  1.3244  0.7725
   53MOL    H63 9527   6.341   5.507   1.891 -0.4296  0.1596  1.9841
   53MOL    H64 9528   6.042   5.702   1.920 -1.2241 -1.6933  0.4853
   53MOL    C65 9529   6.414   5.686   1.953 -0.0378  0.7476  0.7697
   53MOL    C66 9530   6.547   5.614   2.008 -0.2972  0.7159  0.1563
   53MOL    C67 9531   6.514   5.491   2.099  0.2222 -0.3507  0.3505
   53MOL    O68 9532   6.467   5.510   2.206 -0.3464  0.6430  0.0347
   53MOL    O69 9533   6.543   5.372   2.037  0.0292  0.1097 -0.7522
   53MOL    H70 9534   6.347   5.712   2.034  0.6048  1.5976  1.0450
   53MOL    H71 9535   6.450   5.784   1.921 -0.2532  0.6208  0.1271
   53MOL    H72 9536   6.595   5.561   1.926  0.2341 -1.4643  1.8536
   53MOL    H73 9537   6.523   5.293   2.084 -0.6097 -0.3239 -1.7486
   53MOL    C74 9538   6.637   5.721   2.075 -0.2807 -0.1192 -0.7528
   53MOL    C75 9539   6.733   5.796   1.985 -0.5739  0.9217  0.2459
   53MOL    C76 9540   6.874   5.729   1.972 -0.9778 -0.2916  0.4319
   53MOL    O77 9541   6.902   5.618   2.019 -0.3652 -0.1915 -0.0199
   53MOL    O78 9542   6.946   5.785   1.873 -0.5378 -0.1764 -0.2716
   53MOL    H79 9543   6.705   5.684   2.152  0.3311  0.0542 -1.2030
   53MOL    H80 9544   6.577   5.798   2.124 -0.1369  0.2595 -1.1693
   53MOL    H81 9545   6.686   5.796   1.887 -2.1188  1.0759  0.9805
   53MOL    H82 9546   7.034   5.749   1.867 -1.4115 -2.5409  0.4327
   53MOL    C83 9547   6.748   5.950   2.027  0.4906  0.4279  1.1628
   53MOL    C84 9548   6.646   6.040   1.948 -0.2495  0.7225  0.4525
   53MOL    C85 9549   6.648   6.029   1.790  0.3552  0.3291 -0.3219
   53MOL    O86 9550   6.743   5.987   1.732 -0.9852 -0.2768  0.2166
   53MOL    O87 9551   6.541   6.078   1.728  0.0329 -0.5319  0.1218
   53MOL    H88 9552   6.851   5.980   2.008  0.2647 -1.3841 -3.7002
   53MOL    H89 9553   6.740   5.953   2.135  0.2412  0.0533  1.1559
   53MOL    H90 9554   6.547   5.997   1.960 -0.2418  0.8332  0.9409
   53MOL    H91 9555   6.554   6.081   1.634 -0.5317 -2.1524 -0.0335
   53MOL    C92 9556   6.649   6.192   1.986  0.3994  0.8734 -0.4044
   53MOL    C93 9557   6.770   6.282   1.947 -0.2897  0.4646  0.3247
   53MOL    C94 9558   6.857   6.315   2.065 -0.2641  0.6334 -1.0675
   53MOL    O95 9559   6.850   6.257   2.173  0.4326 -0.1380 -0.7802
   53MOL    O96 9560   6.929   6.425   2.054  0.3637  0.1837 -0.5381
   53MOL    H97 9561   6.626   6.200   2.092 -0.9857  1.2729 -0.7194
   53MOL    H98 9562   6.558   6.236   1.944 -0.8163 -0.4573  0.7858
   53MOL    H99 9563   6.833   6.219   1.883  0.2493  1.9208 -0.6101
   53MOL   H100 9564   6.977   6.443   2.134 -2.0031 -0.3123  1.0613
   53MOL   C101 9565   6.727   6.406   1.860  0.4192 -0.0950  0.3942
   53MOL   C102 9566   6.840   6.446   1.758  0.0474  0.4521  0.5095
   53MOL   C103 9567   6.848   6.597   1.726 -0.5380  0.0117 -0.2670
   53MOL   O104 9568   6.955   6.658   1.714 -0.0499  0.0136  0.4247
   53MOL   O105 9569   6.723   6.648   1.708  0.1163  0.1021  0.6333
   53MOL   H106 9570   6.711   6.486   1.932 -0.3076  0.5409 -0.4572
   53MOL   H107 9571   6.632   6.389   1.809  0.4544  1.2767 -0.1504
   53MOL   H108 9572   6.934   6.429   1.810  0.8208  0.7583 -0.7666
   53MOL   H109 9573   6.709   6.737   1.681  1.0478 -0.5753 -2.2693
   53MOL   C110 9574   6.847   6.351   1.634 -0.1863 -0.8420  0.2104
   53MOL   C111 9575   6.790   6.400   1.495  0.0490  0.5817  0.5132
   53MOL   C112 9576   6.639   6.429   1.494  0.0006  0.0731 -0.1303
   53MOL   O113 9577   6.588   6.518   1.432 -0.3365  0.1379 -0.1086
   53MOL   O114 9578   6.569   6.342   1.574  0.0778 -0.3480 -0.6864
   53MOL   H115 9579   6.801   6.256   1.661  1.4566 -2.6213 -3.0239
   53MOL   H116 9580   6.952   6.330   1.619 -0.2371 -1.2578  0.4533
   53MOL   H117 9581   6.839   6.495   1.473  0.5577  0.4354  0.9977
   53MOL   H118 9582   6.480   6.367   1.592 -0.2332 -3.2914  2.3723
   53MOL   C119 9583   6.824   6.289   1.390 -0.3965  0.4631 -0.0635
   53MOL   C120 9584   6.819   6.332   1.236  0.2781  0.9689  0.3865
   53MOL   C121 9585   6.680   6.329   1.165 -0.0164 -0.2193  0.9515
   53MOL   O122 9586   6.571   6.278   1.205  0.0542 -0.0491  0.6686
   53MOL   O123 9587   6.688   6.398   1.051 -0.1026 -0.0815  0.3242
   53MOL   H124 9588   6.765   6.198   1.394 -1.3847  1.1117  0.3479
   53MOL   H125 9589   6.923   6.248   1.414 -0.9453 -1.3263 -0.7866
   53MOL   H126 9590   6.841   6.439   1.235 -2.1653  1.5041  0.7438
   53MOL   H127 9591   6.601   6.415   1.018  0.4908  1.3896 -0.5546
   53MOL   C128 9592   6.927   6.238   1.153  0.3082  0.3048 -0.3759
   53MOL   C129 9593   7.059   6.317   1.151  0.4783  0.0126  0.3672
   53MOL   C130 9594   7.063   6.449   1.068  0.7729 -0.3635 -0.4666
   53MOL   O131 9595   6.999   6.461   0.967  0.3687 -0.4285  0.5219
   53MOL   O132 9596   7.160   6.540   1.102  0.4881 -0.0653 -0.4044
   53MOL   H133 9597   6.893   6.217   1.052 -1.0656  1.5491 -0.1910
   53MOL   H134 9598   6.939   6.142   1.203 -0.8887 -0.3874 -1.3922
   53MOL   H135 9599   7.072   6.355   1.252  0.5248  0.2199  0.2839
   53MOL   H136 9600   7.158   6.606   1.034 -1.1744  0.2060 -0.1144
   53MOL   C137 9601   7.180   6.227   1.115  1.0157  1.0293 -0.0612
   53MOL   C138 9602   7.198   6.098   1.207 -0.6516  0.4016  0.7260
   53MOL   C139 9603   7.233   6.135   1.349 -0.1997  0.3761 -0.0192
   53MOL   O140 9604   7.340   6.184   1.380  0.2285 -0.1906 -0.1902
   53MOL   O141 9605   7.127   6.107   1.433 -0.5314  0.3790 -0.3563
   53MOL   H142 9606   7.276   6.279   1.119  1.5456  0.2782 -2.3185
   53MOL   H143 9607   7.166   6.188   1.014 -3.7006 -0.0918  0.8753
   53MOL   H144 9608   7.108   6.037   1.204 -1.4515  1.5887 -0.4792
   53MOL   H145 9609   7.138   6.141   1.520  0.5337 -0.8786  0.0195
   53MOL   C146 9610   7.325   6.014   1.155  0.4746 -0.1095 -0.1546
   53MOL   C147 9611   7.293   5.866   1.131  0.2864 -0.2514 -0.3664
   53MOL   C148 9612   7.208   5.838   1.012 -0.2928 -0.1710  0.1515
   53MOL   O149 9613   7.087   5.827   1.014 -0.0076 -0.1115 -0.1203
   53MOL   O150 9614   7.277   5.830   0.896  0.0722 -0.5531  0.1333
   53MOL   H151 9615   7.419   6.018   1.211  0.3624  1.8682 -0.1033
   53MOL   H152 9616   7.359   6.052   1.058 -0.2490  2.4412  0.5814
   53MOL   H153 9617   7.383   5.808   1.110 -0.2545 -1.3608  0.3365
   53MOL   H154 9618   7.222   5.827   0.819 -1.0814  1.7400  0.8241
   53MOL   C155 9619   7.235   5.794   1.254 -0.0934 -0.6064 -0.1435
   53MOL   C156 9620   7.317   5.764   1.374 -0.1424 -0.1023 -0.3595
   53MOL   C157 9621   7.420   5.651   1.351  0.1808 -0.4421 -0.4281
   53MOL   O158 9622   7.404   5.534   1.372 -0.7054 -0.3203 -0.6558
   53MOL   O159 9623   7.537   5.696   1.301 -0.0263  0.1500 -0.1341
   53MOL   H160 9624   7.197   5.698   1.221  0.1727 -0.2502 -1.5479
   53MOL   H161 9625   7.155   5.861   1.285  0.9747  0.0503  1.2708
   53MOL   H162 9626   7.375   5.850   1.408 -0.0065 -1.1109  2.0059
   53MOL   H163 9627   7.531   5.790   1.292  3.8782  0.1716 -4.5636
   53MOL   C164 9628   7.223   5.748   1.498  0.2322  0.0486  0.2074
   53MOL   C165 9629   7.290   5.750   1.640 -0.0862 -0.7535 -0.1937
   53MOL   C166 9630   7.243   5.633   1.732  0.3489 -0.3763  0.6623
   53MOL   O167 9631   7.159   5.652   1.823 -0.1521  0.9403  0.3838
   53MOL   O168 9632   7.289   5.516   1.685 -0.3600  0.3396  0.4823
   53MOL   H169 9633   7.178   5.649   1.491  0.6535 -0.1857  0.8256
   53MOL   H170 9634   7.144   5.822   1.510 -2.0685 -2.4264  0.7648
   53MOL   H171 9635   7.388   5.708   1.617  1.3996  1.0392  2.5963
   53MOL   H172 9636   7.243   5.452   1.737  1.8782 -0.1736  1.8688
   53MOL   C173 9637   7.319   5.892   1.695  1.0302  0.2983 -0.0894
   53MOL   C174 9638   7.203   5.969   1.762  0.2370 -0.0321 -0.4699
   53MOL   C175 9639   7.257   6.112   1.792  0.4590  0.8012  0.6483
   53MOL   O176 9640   7.351   6.132   1.867  0.4041  0.0714 -0.0656
   53MOL   O177 9641   7.187   6.208   1.725  0.0717  0.1681  0.7308
   53MOL   H178 9642   7.361   5.954   1.616  0.8582 -0.5653 -0.8513
   53MOL   H179 9643   7.397   5.881   1.771 -2.1852 -0.7955  3.2254
   53MOL   H180 9644   7.116   5.963   1.697 -1.0481 -1.0317  1.3025
   53MOL   H181 9645   7.225   6.294   1.731  0.2350  0.0703  1.0649
   53MOL   H182 9646   7.181   5.919   1.856  2.2538  0.6461  0.3786
   54MOL     C1 9647   3.891   0.092   7.746 -0.6699 -0.1306  0.3744
   54MOL     C2 9648   3.996   0.157   7.832  0.1931 -0.2334 -0.0626
   54MOL     C3 9649   4.024   0.066   0.103  0.3937 -0.6160 -0.3209
   54MOL     O4 9650   3.993   0.096   0.217  1.0013  0.3578  0.9011
   54MOL     O5 9651   4.073   7.802   0.065 -0.1989 -0.7218 -0.1810
   54MOL     H6 9652   3.915   7.842   7.720 -0.2593 -0.0866  0.5781
   54MOL     H7 9653   3.793   0.095   7.794 -0.1682  2.5802  1.3216
   54MOL     H8 9654   4.084   0.172   7.769 -0.4802  0.3275 -0.8857
   54MOL     H9 9655   4.109   7.752   0.137 -1.4296  1.6004  2.1637
   54MOL    H10 9656   3.892   0.150   7.654 -0.7738 -1.6707 -0.5979
   54MOL    C11 9657   3.949   0.301   0.022  0.7302  0.4323  0.3141
   54MOL    C12 9658   4.053   0.402   0.061  0.0154  0.2412  0.1317
   54MOL    C13 9659   4.118   0.467   7.798  0.1554 -0.6957  0.0331
   54MOL    O14 9660   4.064   0.563   7.739 -0.6611 -0.0742  0.1685
   54MOL    O15 9661   4.231   0.402   7.758 -0.3340  0.3103 -0.0788
   54MOL    H16 9662   3.878   0.293   0.104  1.8453 -0.9497  1.1657
   54MOL    H17 9663   3.883   0.345   7.800 -1.9665 -2.4997  0.8474
   54MOL    H18 9664   4.006   0.490   0.103 -0.0912  0.3039 -0.1144
   54MOL    H19 9665   4.266   0.442   7.680 -0.1444  1.1421  0.4281
   54MOL    C20 9666   4.153   0.358   0.173 -0.0370 -0.0929 -0.5746
   54MOL    C21 9667   4.243   0.457   0.243  0.3928 -0.1795 -0.1362
   54MOL    C22 9668   4.358   0.390   0.321  0.4970 -0.0547  0.7001
   54MOL    O23 9669   4.356   0.273   0.346 -0.3505  0.1147  0.5538
   54MOL    O24 9670   4.450   0.471   0.371  0.3682 -0.7480 -0.2647
   54MOL    H25 9671   4.206   0.269   0.140  1.6376  1.0220 -0.9125
   54MOL    H26 9672   4.083   0.320   0.248  1.7156 -1.6193  0.3344
   54MOL    H27 9673   4.305   0.503   0.166 -0.8977  1.9550  0.0641
   54MOL    H28 9674   4.497   0.415   0.432  3.0391 -0.7585 -2.2279
   54MOL    C29 9675   4.175   0.572   0.316  0.5286  0.0715 -0.6117
   54MOL    C30 9676   4.102   0.535   0.450  0.1417 -0.4697  0.3891
   54MOL    C31 9677   3.962   0.493   0.419  0.5267  1.0160 -0.9283
   54MOL    O32 9678   3.876   0.567   0.368 -0.7129 -0.0080 -0.4848
   54MOL    O33 9679   3.942   0.374   0.474 -0.3418 -0.3130  0.0067
   54MOL    H34 9680   4.114   0.631   0.247 -0.8809 -0.8943 -0.2209
   54MOL    H35 9681   4.246   0.651   0.339  1.3958 -0.5568 -1.1359
   54MOL    H36 9682   4.154   0.463   0.514 -2.3867 -2.2611  0.5142
   54MOL    H37 9683   3.850   0.361   0.458 -0.3242 -0.6101  0.1376
   54MOL    C38 9684   4.098   0.662   0.546  0.1876  0.2627 -0.1333
   54MOL    C39 9685   4.069   0.804   0.490 -0.8441 -0.3321  0.2871
   54MOL    C40 9686   4.198   0.882   0.471  0.1970  0.4040  0.1620
   54MOL    O41 9687   4.283   0.886   0.553 -0.2594 -0.2739  0.7214
   54MOL    O42 9688   4.191   0.962   0.364 -0.8318 -0.4727  0.6465
   54MOL    H43 9689   4.192   0.653   0.601  0.4172  0.0705 -0.5606
   54MOL    H44 9690   4.022   0.639   0.620  0.2630 -2.5471 -0.9056
   54MOL    H45 9691   4.021   0.786   0.394  0.3661 -0.5405 -0.2830
   54MOL    H46 9692   4.252   1.033   0.370 -0.1565 -0.9373 -0.5284
   54MOL    C47 9693   3.967   0.883   0.582  0.3107 -0.3029  0.5402
   54MOL    C48 9694   3.925   1.024   0.533 -0.5358 -0.0289 -0.1774
   54MOL    C49 9695   4.000   1.134   0.609 -0.3677 -0.1123  0.3255
   54MOL    O50 9696   4.115   1.126   0.644 -0.7027  0.2015 -0.0899
   54MOL    O51 9697   3.926   1.250   0.630 -0.0469  0.4572 -0.2082
   54MOL    H52 9698   4.000   0.886   0.685  0.3794 -0.5125  0.5225
   54MOL    H53 9699   3.886   0.811   0.575 -1.5689  1.6634  1.3369
   54MOL    H54 9700   3.958   1.035   0.430 -0.1411  2.3113  0.1735
   54MOL    H55 9701   3.961   1.326   0.674  0.5064 -0.4555  0.9660
   54MOL    C56 9702   3.773   1.034   0.533  0.0456  0.4510  0.1132
   54MOL    C57 9703   3.705   1.023   0.678 -0.4576 -0.2283 -0.1654
   54MOL    C58 9704   3.661   0.881   0.715  0.4860 -0.1990 -0.1132
   54MOL    O59 9705   3.705   0.827   0.819 -0.3077 -0.0290  0.6192
   54MOL    O60 9706   3.593   0.816   0.625  0.3994 -0.2494  0.3441
   54MOL    H61 9707   3.727   0.960   0.468  1.4945 -0.0236 -0.3983
   54MOL    H62 9708   3.755   1.137   0.501 -2.7961  0.3620  1.2805
   54MOL    H63 9709   3.776   1.053   0.756  1.3003 -1.1478 -1.3607
   54MOL    H64 9710   3.592   0.724   0.647  0.3024  0.0705  1.7072
   54MOL    C65 9711   3.584   1.121   0.689  0.7353  0.2369  0.3780
   54MOL    C66 9712   3.612   1.275   0.698  0.6999 -0.4459 -0.0447
   54MOL    C67 9713   3.664   1.313   0.842  0.1238 -1.2419 -0.3814
   54MOL    O68 9714   3.774   1.364   0.863  0.2915  0.6889  0.2951
   54MOL    O69 9715   3.570   1.288   0.937  0.0777  0.0607  0.0988
   54MOL    H70 9716   3.514   1.095   0.769 -0.8089  0.7671 -0.7566
   54MOL    H71 9717   3.515   1.101   0.606  0.6333 -2.0464  0.9962
   54MOL    H72 9718   3.685   1.301   0.622  1.6088  1.8491  1.5657
   54MOL    H73 9719   3.593   1.310   1.026  1.7336 -0.2924 -0.2291
   54MOL    C74 9720   3.481   1.357   0.671 -0.6189 -0.8263  0.8960
   54MOL    C75 9721   3.507   1.499   0.616  0.0046  0.7731  0.0931
   54MOL    C76 9722   3.385   1.584   0.632  0.3153  0.2108  0.0190
   54MOL    O77 9723   3.274   1.539   0.648 -0.1257  0.1605 -0.4678
   54MOL    O78 9724   3.407   1.721   0.632 -0.3404  0.2068  0.4806
   54MOL    H79 9725   3.423   1.366   0.762  0.2918  1.2538  1.3095
   54MOL    H80 9726   3.415   1.302   0.604 -2.4935  1.0892  1.1207
   54MOL    H81 9727   3.585   1.539   0.680  0.3508  0.3647 -0.0693
   54MOL    H82 9728   3.499   1.736   0.618 -0.1547 -0.8199  0.6198
   54MOL    C83 9729   3.571   1.492   0.478 -0.8803 -1.2966 -0.6265
   54MOL    C84 9730   3.701   1.578   0.458 -0.0029  0.4377  0.2762
   54MOL    C85 9731   3.661   1.717   0.401 -0.0436  0.6514  0.0658
   54MOL    O86 9732   3.678   1.755   0.289  0.3541 -0.0277  0.2487
   54MOL    O87 9733   3.615   1.801   0.499  0.0724  0.4291  0.3786
   54MOL    H88 9734   3.489   1.526   0.414 -0.0799  1.6552 -0.1266
   54MOL    H89 9735   3.594   1.392   0.441 -2.0142 -1.0072 -2.1540
   54MOL    H90 9736   3.753   1.601   0.551  1.1948  1.0057 -0.5320
   54MOL    H91 9737   3.583   1.873   0.447  1.0431  0.3424 -0.3648
   54MOL    C92 9738   3.807   1.513   0.363  0.4946 -0.3124 -0.4087
   54MOL    C93 9739   3.961   1.553   0.384 -0.4907  0.2540 -0.0858
   54MOL    C94 9740   3.977   1.701   0.422  0.6257 -0.1847 -0.2675
   54MOL    O95 9741   3.997   1.788   0.335 -0.2599 -0.4509  0.2413
   54MOL    O96 9742   3.973   1.728   0.553 -0.5749  0.1123 -0.2293
   54MOL    H97 9743   3.772   1.540   0.263 -0.2601  4.3518  1.0067
   54MOL    H98 9744   3.793   1.405   0.367 -1.1916 -0.0411  2.0300
   54MOL    H99 9745   3.989   1.495   0.472 -0.8579 -2.0360 -1.4151
   54MOL   H100 9746   4.000   1.817   0.571  1.2756 -0.8756  2.1224
   54MOL   C101 9747   4.053   1.501   0.260 -0.1086  0.2774 -0.1882
   54MOL   C102 9748   4.082   1.352   0.243 -0.0971  0.0166 -0.7633
   54MOL   C103 9749   4.194   1.300   0.333 -0.5628  0.1396  0.8997
   54MOL   O104 9750   4.286   1.232   0.294  0.1547 -0.2361  0.0523
   54MOL   O105 9751   4.177   1.337   0.464 -0.1668 -0.1089  0.2619
   54MOL   H106 9752   4.147   1.556   0.263  1.0975 -1.7234 -0.5345
   54MOL   H107 9753   3.994   1.540   0.177  1.4252  0.2678 -1.3057
   54MOL   H108 9754   3.998   1.286   0.264  0.4857  0.2050  2.3248
   54MOL   H109 9755   4.255   1.318   0.515  0.1965 -0.5840 -0.4593
   54MOL   C110 9756   4.105   1.326   0.091 -0.4774 -0.2189 -0.6340
   54MOL   C111 9757   4.096   1.184   0.038  0.2358  0.1484  0.4431
   54MOL   C112 9758   4.185   1.164   7.765  0.1913  0.4834 -0.1022
   54MOL   O113 9759   4.276   1.080   7.758 -0.0493  0.2951  0.0979
   54MOL   O114 9760   4.140   1.237   7.658  0.1024  0.6589 -0.2138
   54MOL   H115 9761   4.204   1.361   0.063  0.5175 -0.0361  2.9243
   54MOL   H116 9762   4.033   1.384   0.032 -0.1789  0.0916 -0.6895
   54MOL   H117 9763   4.149   1.126   0.113  2.3086  1.6266  0.1996
   54MOL   H118 9764   4.202   1.222   7.589  0.7856  0.2810  0.4836
   54MOL   C119 9765   3.948   1.136   0.022 -0.3946 -0.3770 -0.3661
   54MOL   C120 9766   3.915   0.990   0.060 -0.1608  0.1625  0.6909
   54MOL   C121 9767   4.018   0.894   0.001 -0.1409  0.1474  0.7012
   54MOL   O122 9768   4.030   0.859   7.738 -0.1313 -0.3380 -0.1304
   54MOL   O123 9769   4.108   0.868   0.092  0.7818  0.3143  0.1335
   54MOL   H124 9770   3.926   1.173   7.775  2.0839  2.6303  0.1464
   54MOL   H125 9771   3.884   1.197   0.085  0.1313 -0.1591 -0.0480
   54MOL   H126 9772   3.923   0.971   0.167  2.8846 -0.3772  0.4303
   54MOL   H127 9773   4.166   0.806   0.050  0.5882  0.0227  0.2965
   54MOL   C128 9774   3.767   0.949   0.006 -0.2023  0.0364 -0.2312
   54MOL   C129 9775   3.684   0.902   0.124  0.7278  0.0186  0.6347
   54MOL   C130 9776   3.736   0.768   0.181 -0.0206 -0.5483  0.3527
   54MOL   O131 9777   3.806   0.692   0.116  0.3852 -0.2020 -0.7045
   54MOL   O132 9778   3.714   0.752   0.312  0.2311  0.5380 -0.4521
   54MOL   H133 9779   3.761   0.866   7.789  0.6574 -0.6751  0.5273
   54MOL   H134 9780   3.719   1.031   7.805  0.3284  1.2968  1.1882
   54MOL   H135 9781   3.701   0.972   0.206 -1.0548  0.6486  0.4917
   54MOL   H136 9782   3.749   0.668   0.335 -1.2345  0.2361  0.7231
   54MOL   C137 9783   3.532   0.880   0.093 -0.2596  0.2298  0.3375
   54MOL   C138 9784   3.427   0.977   0.166 -0.0345  0.6598  0.0343
   54MOL   C139 9785   3.454   0.982   0.318 -0.5520  0.2301 -1.1180
   54MOL   O140 9786   3.458   1.085   0.381  0.1891 -0.2180 -0.2190
   54MOL   O141 9787   3.451   0.861   0.376  0.3258  0.3147 -0.2859
   54MOL   H142 9788   3.501   0.778   0.111  0.7502 -0.1096  0.2094
   54MOL   H143 9789   3.525   0.889   7.837  0.7374  0.0376  0.2522
   54MOL   H144 9790   3.448   1.078   0.131  1.5389  0.4336  0.2929
   54MOL   H145 9791   3.481   0.864   0.466  2.4658 -1.0407 -0.9237
   54MOL   C146 9792   3.279   0.951   0.137 -0.3993  0.1460  0.1626
   54MOL   C147 9793   3.207   0.813   0.164  0.2904 -0.2733 -0.4850
   54MOL   C148 9794   3.110   0.777   0.056  0.1887 -0.3202 -0.1215
   54MOL   O149 9795   3.052   0.869   7.847 -0.2971 -0.5960 -0.1625
   54MOL   O150 9796   3.106   0.646   0.023 -0.2055  0.1410 -0.1573
   54MOL   H151 9797   3.264   0.991   0.037  2.5916 -1.6656 -1.0809
   54MOL   H152 9798   3.220   1.027   0.187 -1.9318 -0.4115 -0.7477
   54MOL   H153 9799   3.285   0.737   0.160  0.5987 -0.0167  0.6554
   54MOL   H154 9800   3.054   0.633   7.797 -1.4261  2.1655  0.2792
   54MOL   C155 9801   3.132   0.791   0.300  0.4247 -0.0682  0.2539
   54MOL   C156 9802   3.096   0.645   0.340 -0.1651 -0.3293 -0.5120
   54MOL   C157 9803   2.988   0.643   0.453  0.0968  0.0201  0.5347
   54MOL   O158 9804   2.906   0.736   0.473  0.0066 -0.4660 -0.2436
   54MOL   O159 9805   2.979   0.525   0.513 -0.0920 -0.1991 -0.0641
   54MOL   H160 9806   3.044   0.856   0.293  1.5708  1.3453 -1.7291
   54MOL   H161 9807   3.189   0.843   0.377  0.6463  0.7064 -0.4205
   54MOL   H162 9808   3.029   0.612   0.261 -0.1486  1.3997 -1.2728
   54MOL   H163 9809   2.898   0.532   0.561 -0.7756 -0.5342 -1.1555
   54MOL   C164 9810   3.229   0.563   0.369 -0.2752  0.1141  0.2222
   54MOL   C165 9811   3.240   0.441   0.268  0.6066  0.6665 -0.5257
   54MOL   C166 9812   3.141   0.325   0.291  0.2531  0.0833  0.1031
   54MOL   O167 9813   3.101   0.285   0.400 -0.1109 -0.0877 -0.2564
   54MOL   O168 9814   3.090   0.274   0.174  0.4289 -0.7642 -0.9344
   54MOL   H169 9815   3.225   0.513   0.466  1.0891 -0.9774 -0.2675
   54MOL   H170 9816   3.319   0.625   0.360 -0.9394  1.4156  2.1712
   54MOL   H171 9817   3.220   0.470   0.165  1.2138  1.9048 -0.2966
   54MOL   H172 9818   3.027   0.204   0.170  0.8424 -1.0880 -1.9417
   54MOL   C173 9819   3.381   0.387   0.253  0.5978  0.2845  0.1079
   54MOL   C174 9820   3.443   0.342   0.390  0.4060  0.7578  0.5012
   54MOL   C175 9821   3.582   0.277   0.381 -0.0242 -0.2826 -0.4545
   54MOL   O176 9822   3.687   0.329   0.429  0.0794 -0.8983  0.0910
   54MOL   O177 9823   3.570   0.157   0.323  0.1275  0.0435 -0.0283
   54MOL   H178 9824   3.436   0.469   0.208 -3.1087  2.2292 -1.0171
   54MOL   H179 9825   3.386   0.307   0.179  0.0651  0.3337  0.0164
   54MOL   H180 9826   3.454   0.423   0.462 -0.2322  1.1694  0.1482
   54MOL   H181 9827   3.656   0.120   0.337  0.2175  0.2156 -0.1189
   54MOL   H182 9828   3.381   0.265   0.435 -0.2916  1.6779  1.1460
   55MOL     C1 9829   5.115   4.082   2.488  0.6070  0.2222 -0.0117
   55MOL     C2 9830   5.149   3.942   2.541 -0.3816  0.6629  0.3521
   55MOL     C3 9831   5.043   3.837   2.498 -0.5342 -0.2890  0.1233
   55MOL     O4 9832   5.071   3.749   2.420 -0.0346 -0.2598 -0.4380
   55MOL     O5 9833   4.923   3.863   2.553 -0.0854 -0.0590 -0.0565
   55MOL     H6 9834   5.026   4.128   2.529  0.2187 -0.7282  0.2252
   55MOL     H7 9835   5.200   4.143   2.520 -0.1032  0.9336  0.5405
   55MOL     H8 9836   5.245   3.916   2.495  0.0238  0.6816  1.1794
   55MOL     H9 9837   4.855   3.816   2.508 -1.3199  2.4659 -0.9356
   55MOL    H10 9838   5.109   4.081   2.379  0.6297 -2.5439 -0.0200
   55MOL    C11 9839   5.168   3.958   2.695 -0.2330 -0.4023  0.2963
   55MOL    C12 9840   5.167   3.822   2.776  0.7714  0.1869  0.3287
   55MOL    C13 9841   5.035   3.807   2.858  1.0774  0.2720 -0.2052
   55MOL    O14 9842   4.961   3.903   2.894  0.0662  0.3153  0.2280
   55MOL    O15 9843   5.033   3.677   2.898  0.0350  0.2036 -0.2144
   55MOL    H16 9844   5.099   4.029   2.742 -1.1165 -1.3002  0.3542
   55MOL    H17 9845   5.271   3.992   2.709  0.1991 -2.4215  2.2926
   55MOL    H18 9846   5.182   3.733   2.715  1.1250 -0.7749  1.8031
   55MOL    H19 9847   4.955   3.661   2.948 -0.0752  1.8444  0.1472
   55MOL    C20 9848   5.289   3.804   2.868  0.7315  0.3890  0.3828
   55MOL    C21 9849   5.294   3.883   2.996  0.7666 -0.2162 -0.5656
   55MOL    C22 9850   5.314   4.038   2.978 -0.8820  0.4776  0.4226
   55MOL    O23 9851   5.233   4.119   3.015 -0.8100 -0.1423  0.6623
   55MOL    O24 9852   5.433   4.070   2.923  0.4105 -0.0422 -0.2644
   55MOL    H25 9853   5.373   3.808   2.799 -0.0776 -2.1599 -0.8178
   55MOL    H26 9854   5.298   3.702   2.906  1.3858  0.8828  1.5795
   55MOL    H27 9855   5.196   3.887   3.044  1.7520 -0.4093  1.5420
   55MOL    H28 9856   5.443   4.164   2.927 -2.9015  0.3217  1.2177
   55MOL    C29 9857   5.395   3.814   3.094  0.3032 -0.3379  0.1799
   55MOL    C30 9858   5.411   3.882   3.230  0.2705 -0.8861  0.3131
   55MOL    C31 9859   5.503   3.806   3.321 -0.6841  0.2195 -0.0035
   55MOL    O32 9860   5.518   3.688   3.314 -0.2751  0.0042 -0.1101
   55MOL    O33 9861   5.559   3.889   3.413  0.0627  0.4318  0.3592
   55MOL    H34 9862   5.489   3.784   3.047  0.9194  0.8422  0.6416
   55MOL    H35 9863   5.366   3.712   3.119 -1.2755  0.4193  1.5421
   55MOL    H36 9864   5.458   3.977   3.205  0.6575 -0.5510  2.2759
   55MOL    H37 9865   5.600   3.833   3.477  0.3685 -2.1405 -2.0055
   55MOL    C38 9866   5.275   3.905   3.310  0.1599  0.6610 -0.0781
   55MOL    C39 9867   5.200   3.791   3.387  0.3065 -0.4310  1.2973
   55MOL    C40 9868   5.130   3.700   3.286 -0.2515  1.1498  0.4104
   55MOL    O41 9869   5.051   3.732   3.199  0.4624 -0.0040  0.6950
   55MOL    O42 9870   5.165   3.573   3.294  0.3585  0.3474 -0.1399
   55MOL    H43 9871   5.203   3.951   3.242  1.8079  1.5342 -1.2666
   55MOL    H44 9872   5.294   3.989   3.377 -1.6637 -0.5925  2.0655
   55MOL    H45 9873   5.275   3.738   3.446  0.4296  0.1353  1.6517
   55MOL    H46 9874   5.235   3.559   3.355 -1.4105  1.1998  2.1505
   55MOL    C47 9875   5.098   3.842   3.486  0.4231  0.3224 -0.5076
   55MOL    C48 9876   5.084   3.751   3.613  0.6908 -0.3920  0.1016
   55MOL    C49 9877   4.956   3.672   3.602 -0.4024  0.0406  0.8646
   55MOL    O50 9878   4.853   3.701   3.651  0.8679  0.1913  0.4040
   55MOL    O51 9879   4.973   3.568   3.512 -0.1402  0.5574  0.2766
   55MOL    H52 9880   5.000   3.853   3.439 -0.8329 -1.6842  1.5586
   55MOL    H53 9881   5.128   3.939   3.525 -2.4392  0.4941  1.3823
   55MOL    H54 9882   5.164   3.677   3.609  0.4966 -0.5485 -1.1913
   55MOL    H55 9883   4.888   3.529   3.500 -0.5868  0.8954  2.1483
   55MOL    C56 9884   5.089   3.830   3.751  0.7468  0.7354  0.1952
   55MOL    C57 9885   5.228   3.887   3.783 -1.5592  0.0693 -0.1900
   55MOL    C58 9886   5.342   3.785   3.804 -0.6088 -0.1689 -0.0038
   55MOL    O59 9887   5.318   3.673   3.854 -0.7816  0.6557  0.1494
   55MOL    O60 9888   5.459   3.832   3.755  0.3612  0.0108  0.2644
   55MOL    H61 9889   5.050   3.767   3.831  0.5455 -1.1464 -1.3386
   55MOL    H62 9890   5.012   3.907   3.738  0.4918  0.3487 -0.6529
   55MOL    H63 9891   5.261   3.957   3.707  0.3451  0.5664  1.0679
   55MOL    H64 9892   5.520   3.761   3.768 -1.3156 -1.4185  0.5081
   55MOL    C65 9893   5.211   3.973   3.914 -0.0623 -0.7920  0.0122
   55MOL    C66 9894   5.110   4.097   3.905  0.2038 -0.2785 -0.5704
   55MOL    C67 9895   5.156   4.189   3.797 -0.2886 -0.1839  0.8069
   55MOL    O68 9896   5.247   4.270   3.811 -0.7676  0.2286  0.1282
   55MOL    O69 9897   5.091   4.165   3.679 -0.0462 -0.9127  0.2495
   55MOL    H70 9898   5.309   4.012   3.941 -1.1463  1.9553  0.1908
   55MOL    H71 9899   5.175   3.913   3.997 -2.0870 -0.7697 -0.8203
   55MOL    H72 9900   5.013   4.054   3.879  0.6430 -0.7712 -1.4026
   55MOL    H73 9901   5.133   4.221   3.616 -2.1904  0.1157 -0.3077
   55MOL    C74 9902   5.104   4.164   4.044 -0.9039 -0.2991 -1.1119
   55MOL    C75 9903   4.972   4.235   4.075  0.5553  0.3844  0.3881
   55MOL    C76 9904   4.941   4.357   3.979  0.3827  1.2040 -0.5947
   55MOL    O77 9905   4.864   4.343   3.886 -0.8159 -0.2267  0.6023
   55MOL    O78 9906   5.013   4.472   4.009  0.4449  0.7062  0.2944
   55MOL    H79 9907   5.182   4.240   4.053 -0.0171 -1.4583  1.5584
   55MOL    H80 9908   5.126   4.089   4.120 -2.3646 -0.7555 -1.1114
   55MOL    H81 9909   4.895   4.162   4.052  3.2069 -2.5093  0.3763
   55MOL    H82 9910   4.979   4.548   3.964  0.0057  1.8512  2.4962
   55MOL    C83 9911   4.965   4.290   4.226  0.1198  0.2661 -0.6370
   55MOL    C84 9912   4.980   4.170   4.330 -0.4517  0.0913  0.1204
   55MOL    C85 9913   4.884   4.056   4.304 -0.0157 -0.5240  0.2565
   55MOL    O86 9914   4.928   3.944   4.283 -0.1885  0.2677 -0.3899
   55MOL    O87 9915   4.753   4.085   4.308 -0.2519 -0.2030 -0.0211
   55MOL    H88 9916   4.868   4.339   4.239  0.0773 -0.1273  0.6169
   55MOL    H89 9917   5.045   4.360   4.250  0.7731 -1.2155  1.6594
   55MOL    H90 9918   5.080   4.128   4.322 -0.0836  0.9905 -0.0134
   55MOL    H91 9919   4.702   4.009   4.285 -1.0351 -0.6778  3.1098
   55MOL    C92 9920   4.962   4.233   4.477  0.4988 -0.5487  0.1493
   55MOL    C93 9921   5.026   4.168   4.599 -0.4391  0.3574  0.1732
   55MOL    C94 9922   5.175   4.192   4.613 -0.1877 -0.4614 -0.1091
   55MOL    O95 9923   5.253   4.157   4.707  0.1500 -0.3967 -0.1774
   55MOL    O96 9924   5.228   4.271   4.517  0.2615  0.1161 -0.3079
   55MOL    H97 9925   4.858   4.253   4.506  0.5206 -0.8100  0.4139
   55MOL    H98 9926   4.999   4.335   4.467 -1.1067 -0.0085 -0.4352
   55MOL    H99 9927   4.996   4.219   4.691  0.3139  0.3769  0.4055
   55MOL   H100 9928   5.317   4.275   4.550  0.2457  1.0320 -0.3529
   55MOL   C101 9929   5.000   4.019   4.633 -0.8737 -0.0653  0.3108
   55MOL   C102 9930   4.867   3.985   4.710 -1.3040 -0.1437 -0.4518
   55MOL   C103 9931   4.870   4.024   4.858 -0.3938  0.0360 -0.6852
   55MOL   O104 9932   4.974   4.054   4.920  0.5781  0.6344  0.4181
   55MOL   O105 9933   4.748   4.013   4.904 -0.0432 -0.2937  0.0924
   55MOL   H106 9934   5.086   3.968   4.676 -1.6776  0.9517  3.2692
   55MOL   H107 9935   4.983   3.977   4.534 -0.7929  1.5796 -0.4227
   55MOL   H108 9936   4.784   4.031   4.657 -1.3812  0.2659  0.0183
   55MOL   H109 9937   4.755   4.028   4.997  3.7771  0.2759 -0.1974
   55MOL   C110 9938   4.833   3.841   4.697 -0.7200 -0.0030  0.6318
   55MOL   C111 9939   4.734   3.798   4.587 -0.0075 -0.2478 -0.6682
   55MOL   C112 9940   4.593   3.829   4.628  0.2722 -0.2454  0.0484
   55MOL   O113 9941   4.529   3.747   4.691  0.2614  0.3532 -0.0414
   55MOL   O114 9942   4.540   3.955   4.602  0.2971 -0.2522 -0.6040
   55MOL   H115 9943   4.809   3.779   4.785 -1.9191 -2.8551 -1.6038
   55MOL   H116 9944   4.934   3.802   4.687  0.4207  2.7884  0.8599
   55MOL   H117 9945   4.748   3.855   4.495  0.7993 -0.0327 -0.4132
   55MOL   H118 9946   4.457   3.965   4.644  1.7127  0.7891  2.0531
   55MOL   C119 9947   4.755   3.652   4.539  0.1604 -0.3052  0.2153
   55MOL   C120 9948   4.695   3.620   4.399  0.5500 -0.5318  0.0240
   55MOL   C121 9949   4.551   3.581   4.397 -0.1019 -0.1142 -0.1307
   55MOL   O122 9950   4.462   3.642   4.335  0.1666  0.2055 -0.3272
   55MOL   O123 9951   4.536   3.477   4.481  0.0905 -0.1561  0.2680
   55MOL   H124 9952   4.721   3.580   4.613  0.8259 -1.7722 -0.8856
   55MOL   H125 9953   4.860   3.625   4.530 -0.3966 -1.9689 -1.7255
   55MOL   H126 9954   4.714   3.693   4.320 -1.8079  0.6284  0.4925
   55MOL   H127 9955   4.446   3.451   4.469  0.0325  0.1944 -0.0939
   55MOL   C128 9956   4.782   3.502   4.350  0.1126  0.1978 -0.4654
   55MOL   C129 9957   4.750   3.454   4.203 -0.5076  0.0713 -0.0259
   55MOL   C130 9958   4.711   3.304   4.195 -0.1283 -0.7940  0.4386
   55MOL   O131 9959   4.615   3.256   4.136  0.2490  0.1938 -0.3988
   55MOL   O132 9960   4.801   3.232   4.258  0.9415  0.1598 -0.4669
   55MOL   H133 9961   4.758   3.418   4.416  0.1502 -0.0586 -0.7768
   55MOL   H134 9962   4.890   3.512   4.360  0.2855 -0.1642 -1.9074
   55MOL   H135 9963   4.661   3.505   4.166 -1.3862 -0.5300  1.2334
   55MOL   H136 9964   4.776   3.141   4.249  0.6617  0.1250  0.5203
   55MOL   C137 9965   4.873   3.498   4.124  0.2188  0.2145  0.4348
   55MOL   C138 9966   4.879   3.445   3.980 -0.9651  0.4313  0.5251
   55MOL   C139 9967   5.009   3.485   3.907  0.4521  0.0137 -0.0306
   55MOL   O140 9968   5.041   3.433   3.795  0.6457  0.0443 -0.0495
   55MOL   O141 9969   5.081   3.577   3.983 -0.2889  0.0313 -0.6707
   55MOL   H142 9970   4.967   3.470   4.171 -0.8282 -1.0433  1.8445
   55MOL   H143 9971   4.869   3.607   4.120  1.8400  0.2813  0.3309
   55MOL   H144 9972   4.873   3.336   3.987  1.6282  0.2744  0.7982
   55MOL   H145 9973   5.160   3.597   3.936  0.7501  0.0308  1.0393
   55MOL   C146 9974   4.749   3.485   3.898 -0.3052 -0.1088 -0.4588
   55MOL   C147 9975   4.710   3.413   3.765 -0.4171 -0.2811  0.4279
   55MOL   C148 9976   4.576   3.460   3.706 -0.6179  0.3179 -0.3693
   55MOL   O149 9977   4.558   3.496   3.591  0.3639  0.6224  0.3968
   55MOL   O150 9978   4.478   3.447   3.799  0.5297 -0.0993 -0.2587
   55MOL   H151 9979   4.767   3.591   3.878 -0.7002  0.2522  0.9984
   55MOL   H152 9980   4.655   3.471   3.953 -1.2848  0.2248 -2.0100
   55MOL   H153 9981   4.783   3.439   3.689 -0.7629 -1.7945 -0.4332
   55MOL   H154 9982   4.397   3.473   3.759 -0.1485 -2.1463 -0.2881
   55MOL   C155 9983   4.701   3.259   3.776 -1.0002  0.2150  0.7592
   55MOL   C156 9984   4.825   3.170   3.730 -0.0814  0.1687  0.4734
   55MOL   C157 9985   4.840   3.163   3.576 -0.0526 -0.2757  0.2085
   55MOL   O158 9986   4.817   3.067   3.506 -0.2503  0.1730  0.6384
   55MOL   O159 9987   4.893   3.275   3.519 -0.2134 -0.0458  0.3155
   55MOL   H160 9988   4.620   3.215   3.719  0.8876  0.1011 -1.9217
   55MOL   H161 9989   4.687   3.234   3.882  1.5455  0.6464  1.2276
   55MOL   H162 9990   4.919   3.203   3.774  2.4205 -1.7369 -3.1064
   55MOL   H163 9991   4.906   3.264   3.427  1.4200 -1.2440  0.6731
   55MOL   C164 9992   4.812   3.024   3.781 -0.2306 -0.0109 -1.3960
   55MOL   C165 9993   4.834   3.003   3.933  0.5955  0.8358 -0.1284
   55MOL   C166 9994   4.980   3.029   3.967 -0.3002 -0.4552  0.2431
   55MOL   O167 9995   5.018   3.126   4.029  0.3011 -0.2347  0.0069
   55MOL   O168 9996   5.065   2.942   3.908 -0.0081  0.2239 -0.5082
   55MOL   H169 9997   4.874   2.955   3.724 -0.5720 -0.2506 -1.4736
   55MOL   H170 9998   4.713   2.995   3.749 -0.7357  1.0304 -0.8155
   55MOL   H171 9999   4.780   3.075   3.995  1.3749 -0.0118  1.5842
   55MOL   H17210000   5.154   2.973   3.907  0.0973 -0.0308  0.3332
   55MOL   C17310001   4.802   2.857   3.977 -0.1862 -0.6917 -0.3147
   55MOL   C17410002   4.668   2.848   4.048  0.7482 -0.1423  0.0349
   55MOL   C17510003   4.673   2.903   4.192 -0.8070 -0.0066  0.2795
   55MOL   O17610004   4.771   2.966   4.234  0.0236  0.1595  0.7486
   55MOL   O17710005   4.557   2.889   4.266 -0.2535  0.2940  0.5797
   55MOL   H17810006   4.887   2.824   4.037  0.1244  1.0101  0.1981
   55MOL   H17910007   4.817   2.792   3.891  1.4428  1.2816 -1.5616
   55MOL   H18010008   4.588   2.896   3.992  0.5935  2.7663  2.6195
   55MOL   H18110009   4.571   2.939   4.345 -1.7040  1.9258 -0.1620
   55MOL   H18210010   4.635   2.744   4.046  1.1408 -0.2991  1.3043
   56MOL     C110011   1.136   4.126   1.703 -0.1722 -0.5535  0.1688
   56MOL     C210012   1.192   4.232   1.614 -0.1903  0.2506  0.2621
   56MOL     C310013   1.259   4.165   1.494  0.7427 -0.2024  0.7069
   56MOL     O410014   1.277   4.041   1.486  0.2509  0.0043  0.0578
   56MOL     O510015   1.277   4.254   1.391 -0.2720  0.5410 -0.1223
   56MOL     H610016   1.063   4.070   1.645 -1.5920  1.0667  0.3762
   56MOL     H710017   1.218   4.060   1.732  1.1568  0.7545 -0.5169
   56MOL     H810018   1.110   4.292   1.576  0.3436  0.7548 -0.1191
   56MOL     H910019   1.327   4.218   1.320 -1.3071  2.1655 -1.7210
   56MOL    H1010020   1.087   4.168   1.791  0.4534  0.0462  0.2386
   56MOL    C1110021   1.295   4.324   1.681 -0.0344 -0.1617  0.4884
   56MOL    C1210022   1.234   4.434   1.774 -0.6888  0.2004  0.5769
   56MOL    C1310023   1.138   4.529   1.698 -0.3114  0.2102 -0.1735
   56MOL    O1410024   1.021   4.507   1.697  0.0265 -0.2243  0.2192
   56MOL    O1510025   1.201   4.629   1.636  0.5438  0.4562 -0.4299
   56MOL    H1610026   1.358   4.371   1.605 -1.5134  0.4935 -0.3352
   56MOL    H1710027   1.366   4.267   1.742 -0.3045  1.1435  2.0433
   56MOL    H1810028   1.178   4.374   1.846  1.1128 -0.1062  1.7480
   56MOL    H1910029   1.136   4.678   1.588  0.0944 -0.4108 -0.7307
   56MOL    C2010030   1.322   4.528   1.860 -1.0503  0.4091 -0.0692
   56MOL    C2110031   1.400   4.475   1.982 -0.2349 -0.0689  0.7252
   56MOL    C2210032   1.528   4.398   1.925  0.0263 -0.7750  0.3664
   56MOL    O2310033   1.574   4.420   1.810  0.0680  0.0905  0.2068
   56MOL    O2410034   1.584   4.304   2.006 -0.3118  0.0581 -0.2033
   56MOL    H2510035   1.254   4.601   1.904 -0.5427  1.2842 -0.7158
   56MOL    H2610036   1.387   4.583   1.792  1.2241 -1.6882  0.3484
   56MOL    H2710037   1.452   4.555   2.036  0.6923 -0.4894  0.4734
   56MOL    H2810038   1.665   4.269   1.975  0.8810  1.3011  1.4133
   56MOL    C2910039   1.313   4.393   2.068 -0.1388 -0.1912  0.1614
   56MOL    C3010040   1.195   4.463   2.146  0.4253  0.6303 -0.1190
   56MOL    C3110041   1.247   4.562   2.256 -0.2527 -0.1523  0.4790
   56MOL    O3210042   1.235   4.683   2.252 -0.5359  0.7194 -0.0489
   56MOL    O3310043   1.309   4.499   2.357  0.0165 -0.2672  0.0950
   56MOL    H3410044   1.383   4.357   2.144 -0.9792 -1.9217  0.1333
   56MOL    H3510045   1.275   4.305   2.016 -1.1226  0.3726 -0.0826
   56MOL    H3610046   1.145   4.528   2.075  0.6148  2.0001  0.9843
   56MOL    H3710047   1.314   4.405   2.349  0.9244 -0.5266  3.0427
   56MOL    C3810048   1.084   4.366   2.195  0.4890  0.4692  0.3122
   56MOL    C3910049   0.947   4.422   2.243  1.1952 -0.5060 -0.8470
   56MOL    C4010050   0.942   4.425   2.397 -0.0892  0.1609 -0.1770
   56MOL    O4110051   0.836   4.402   2.460  0.5169 -0.0288 -0.3155
   56MOL    O4210052   1.053   4.481   2.454  0.0756  0.4677  0.2224
   56MOL    H4310053   1.138   4.307   2.269 -0.0300  2.1885  2.0842
   56MOL    H4410054   1.069   4.298   2.111  0.9427 -0.9065  1.3444
   56MOL    H4510055   0.939   4.525   2.210  1.3112 -0.1261  0.2624
   56MOL    H4610056   1.054   4.497   2.547 -0.5160 -0.1575  0.3355
   56MOL    C4710057   0.818   4.352   2.185 -0.5566  0.0398 -0.3839
   56MOL    C4810058   0.739   4.440   2.088 -0.2693 -0.2362 -0.0936
   56MOL    C4910059   0.816   4.491   1.964  0.1793  0.5308 -0.1558
   56MOL    O5010060   0.855   4.608   1.953 -0.0256  0.6175  0.4353
   56MOL    O5110061   0.851   4.391   1.878  0.2419  0.0512  0.7686
   56MOL    H5210062   0.751   4.307   2.258 -0.5807  0.3108 -0.2377
   56MOL    H5310063   0.851   4.273   2.117 -0.3150  0.6599 -1.0029
   56MOL    H5410064   0.666   4.372   2.045  0.1474 -0.3072 -0.6966
   56MOL    H5510065   0.905   4.424   1.808  0.1412 -0.2476  0.5495
   56MOL    C5610066   0.668   4.554   2.162  0.2692 -0.0580  0.3758
   56MOL    C5710067   0.537   4.606   2.093 -0.4164  0.1668  0.5049
   56MOL    C5810068   0.423   4.499   2.095 -0.4873  0.2059 -0.9267
   56MOL    O5910069   0.366   4.471   1.990 -0.0581 -0.2477  0.5069
   56MOL    O6010070   0.378   4.466   2.223 -0.0090 -0.2021  0.0930
   56MOL    H6110071   0.725   4.640   2.196 -1.1754  0.4277  1.6071
   56MOL    H6210072   0.634   4.514   2.257  1.2327 -1.9179 -0.0365
   56MOL    H6310073   0.489   4.671   2.166  1.5581  0.4656  1.5789
   56MOL    H6410074   0.305   4.406   2.214 -1.6166  1.8226 -0.8597
   56MOL    C6510075   0.546   4.682   1.955  0.4741  0.0297 -0.1533
   56MOL    C6610076   0.427   4.780   1.928 -0.2132 -0.6809  0.2039
   56MOL    C6710077   0.397   4.795   1.779  0.4473 -0.7856  0.0507
   56MOL    O6810078   0.449   4.875   1.702  0.1127  0.1202 -0.2839
   56MOL    O6910079   0.315   4.691   1.739 -0.0458 -0.1173 -0.1311
   56MOL    H7010080   0.553   4.607   1.876  1.1569 -3.7708  3.3148
   56MOL    H7110081   0.646   4.725   1.952  1.2474 -1.7248  0.2085
   56MOL    H7210082   0.335   4.746   1.976  0.1556 -2.1376 -0.0823
   56MOL    H7310083   0.305   4.695   1.645 -3.4158  2.5904  0.2192
   56MOL    C7410084   0.452   4.911   2.005 -0.5284 -0.0635  0.0791
   56MOL    C7510085   0.354   5.027   2.014 -0.1918 -0.0501 -0.4110
   56MOL    C7610086   0.390   5.164   1.948  0.9851 -0.2052 -0.1232
   56MOL    O7710087   0.507   5.207   1.948 -0.1625 -0.3026 -0.4560
   56MOL    O7810088   0.282   5.233   1.904 -0.2599  0.0525  0.5597
   56MOL    H7910089   0.547   4.944   1.961  0.8594 -3.1461  0.5932
   56MOL    H8010090   0.477   4.890   2.109  0.4217  0.3909 -0.0537
   56MOL    H8110091   0.263   5.005   1.958  0.0170 -2.9773  0.3037
   56MOL    H8210092   0.296   5.312   1.855  0.9449 -0.4748  0.0519
   56MOL    C8310093   0.303   5.051   2.162 -0.4652 -0.1144 -0.2363
   56MOL    C8410094   0.226   4.940   2.237  0.1945  0.3403 -0.2776
   56MOL    C8510095   0.078   4.920   2.187 -0.2977  0.1318  0.1397
   56MOL    O8610096   0.015   5.003   2.122  0.1773 -0.4417  0.3344
   56MOL    O8710097   0.041   4.796   2.207  0.4387  0.3308 -0.3786
   56MOL    H8810098   0.235   5.136   2.158 -1.1299 -0.7203 -2.0822
   56MOL    H8910099   0.386   5.079   2.228  0.3176  0.5505 -1.4754
   56MOL    H9010100   0.289   4.853   2.215  0.3023  0.0320  1.1878
   56MOL    H9110101   7.819   4.781   2.150 -0.4906 -1.0948  1.1824
   56MOL    C9210102   0.221   4.968   2.393 -0.5344  0.5316  0.4434
   56MOL    C9310103   0.359   4.947   2.470  0.3130  0.0317 -0.4977
   56MOL    C9410104   0.431   4.816   2.428  0.1369 -0.0164  0.0259
   56MOL    O9510105   0.550   4.800   2.396 -0.1403  0.1663 -0.0875
   56MOL    O9610106   0.338   4.717   2.423 -0.2372 -0.1644  0.2435
   56MOL    H9710107   0.137   4.915   2.440  0.9471 -1.7946  0.5556
   56MOL    H9810108   0.195   5.073   2.400 -1.6287  0.3194 -0.1484
   56MOL    H9910109   0.424   5.029   2.440 -1.4752  0.6414 -2.9248
   56MOL   H10010110   0.369   4.629   2.410 -0.9548 -0.1549 -1.9032
   56MOL   C10110111   0.333   4.941   2.625  0.1500 -0.4106  0.3617
   56MOL   C10210112   0.272   5.066   2.688 -0.3065  0.3821  0.4995
   56MOL   C10310113   0.359   5.191   2.688 -0.2879  0.3805  0.0656
   56MOL   O10410114   0.437   5.220   2.772 -0.3990  0.2453  0.7675
   56MOL   O10510115   0.358   5.247   2.561 -0.3790  0.4654 -0.8111
   56MOL   H10610116   0.429   4.923   2.674 -0.0079 -1.3123  0.3460
   56MOL   H10710117   0.266   4.856   2.641  0.7582 -1.2124 -1.1853
   56MOL   H10810118   0.178   5.088   2.637  0.0173 -0.7183 -0.5641
   56MOL   H10910119   0.411   5.325   2.547  2.4454 -0.6813  2.5158
   56MOL   C11010120   0.255   5.028   2.844 -0.5256 -0.8359  0.6013
   56MOL   C11110121   0.158   5.120   2.924 -0.2128 -0.4877 -1.1361
   56MOL   C11210122   0.213   5.193   3.048  0.4010  0.3779  0.2110
   56MOL   O11310123   0.170   5.191   3.162  0.2591  0.0655  0.4703
   56MOL   O11410124   0.332   5.250   3.024 -0.2055  0.0332  0.2762
   56MOL   H11510125   0.352   5.012   2.891 -0.0167  0.9013  0.1804
   56MOL   H11610126   0.215   4.927   2.852  1.0815 -1.4644  1.0146
   56MOL   H11710127   0.138   5.209   2.864  0.6605 -0.0436 -0.7804
   56MOL   H11810128   0.353   5.227   2.935  0.4451 -0.4965  0.5672
   56MOL   C11910129   0.016   5.068   2.951  0.6035  0.2224 -0.3026
   56MOL   C12010130   7.788   5.014   2.825 -0.1675 -0.1963  0.2001
   56MOL   C12110131   7.779   5.123   2.710  0.4903  0.4750  0.0369
   56MOL   O12210132   7.767   5.245   2.730 -0.4884 -0.1144  0.0295
   56MOL   O12310133   7.784   5.061   2.592  0.4434  0.1008  0.5212
   56MOL   H12410134   7.814   5.142   3.010 -2.1223  0.9411 -3.5794
   56MOL   H12510135   0.028   4.986   3.021 -0.9902 -0.5083 -0.8535
   56MOL   H12610136   7.846   4.928   2.790 -1.4024 -0.7963 -0.4660
   56MOL   H12710137   7.789   5.111   2.511  1.2158 -0.3267  0.2970
   56MOL   C12810138   7.652   4.947   2.851  0.3571  0.0416  0.2843
   56MOL   C12910139   7.542   5.038   2.917 -0.4917  0.1716  0.3193
   56MOL   C13010140   7.562   5.059   3.070  0.4996 -0.2657  0.4401
   56MOL   O13110141   7.630   4.986   3.142 -0.3324  0.2507 -0.4291
   56MOL   O13210142   7.500   5.170   3.102  0.2976  0.2289 -0.7889
   56MOL   H13310143   7.666   4.858   2.912  1.1123  0.1689  0.3044
   56MOL   H13410144   7.621   4.906   2.755 -2.4847 -0.8278  1.5302
   56MOL   H13510145   7.551   5.140   2.880 -1.2915 -0.0470 -0.4932
   56MOL   H13610146   7.514   5.195   3.192 -5.3439  1.1248 -0.0146
   56MOL   C13710147   7.398   4.991   2.888  0.1668 -0.1749  0.4383
   56MOL   C13810148   7.357   5.045   2.746  0.2123 -0.1139 -0.3354
   56MOL   C13910149   7.238   5.142   2.751  0.2907 -0.2378  0.3917
   56MOL   O14010150   7.245   5.243   2.689  0.3682 -0.5684  0.2246
   56MOL   O14110151   7.127   5.090   2.816 -0.6305  0.0453  0.8040
   56MOL   H14210152   7.331   5.027   2.967 -0.1480 -0.9836  0.5428
   56MOL   H14310153   7.395   4.883   2.902 -0.6199 -0.0370  1.4397
   56MOL   H14410154   7.442   5.095   2.700  0.8594  0.0001  0.9579
   56MOL   H14510155   7.050   5.145   2.815 -1.4913 -1.1321 -0.2073
   56MOL   C14610156   7.326   4.928   2.644  0.3463 -0.1807 -0.5185
   56MOL   C14710157   7.399   4.932   2.505  0.0427  0.1557  0.1815
   56MOL   C14810158   7.350   5.046   2.414  0.4426 -0.2039 -0.4737
   56MOL   O14910159   7.232   5.085   2.405  0.1850  0.2569 -0.7237
   56MOL   O15010160   7.446   5.109   2.337  0.1140  0.5921 -0.3669
   56MOL   H15110161   7.219   4.926   2.622  0.4207 -1.5328 -0.7917
   56MOL   H15210162   7.324   4.833   2.698 -1.5263 -0.9143 -1.7850
   56MOL   H15310163   7.500   4.955   2.541 -0.1729  1.8077 -0.2462
   56MOL   H15410164   7.409   5.171   2.275  0.2603 -0.2130 -1.2704
   56MOL   C15510165   7.398   4.803   2.422  0.4587  0.2585 -0.2275
   56MOL   C15610166   7.453   4.666   2.489  0.1105  0.3722 -0.1188
   56MOL   C15710167   7.605   4.663   2.518  0.1133  0.0701 -0.0286
   56MOL   O15810168   7.638   4.662   2.635 -0.2114  0.0435 -0.0236
   56MOL   O15910169   7.695   4.652   2.415 -0.6636  0.3110 -0.2312
   56MOL   H16010170   7.455   4.811   2.329  0.6096  0.7571 -0.0932
   56MOL   H16110171   7.299   4.785   2.381 -0.4766 -0.4549  2.2918
   56MOL   H16210172   7.400   4.651   2.582  0.7997 -0.9437  0.0754
   56MOL   H16310173   7.786   4.651   2.441 -0.0109  0.9224 -2.3788
   56MOL   C16410174   7.420   4.545   2.383  0.6803 -0.3008 -0.2080
   56MOL   C16510175   7.386   4.409   2.438 -0.2611 -0.0762 -0.7548
   56MOL   C16610176   7.502   4.351   2.521  0.0010 -0.8944  0.5064
   56MOL   O16710177   7.597   4.303   2.464 -0.0819  0.3418  0.3010
   56MOL   O16810178   7.481   4.362   2.658  0.0596 -0.2221 -0.4344
   56MOL   H16910179   7.501   4.547   2.310  0.1922  0.2521 -0.7377
   56MOL   H17010180   7.337   4.584   2.324  0.8746 -2.0403 -1.7056
   56MOL   H17110181   7.301   4.414   2.505  0.3218 -1.9340  0.1561
   56MOL   H17210182   7.559   4.316   2.687 -0.0966 -0.9734 -1.1741
   56MOL   C17310183   7.350   4.312   2.322  0.0969  0.3319 -0.2228
   56MOL   C17410184   7.334   4.163   2.351  0.6786  0.0471 -0.5425
   56MOL   C17510185   7.193   4.134   2.403  0.0816 -0.3496 -0.4866
   56MOL   O17610186   7.137   4.190   2.498 -0.5984  0.4572 -0.3541
   56MOL   O17710187   7.132   4.037   2.338  0.0392  0.4391  0.1156
   56MOL   H17810188   7.422   4.322   2.241  0.0939  0.1363 -0.2516
   56MOL   H17910189   7.265   4.340   2.260 -1.1423 -3.9310 -0.6576
   56MOL   H18010190   7.337   4.106   2.259  0.9952 -0.9246  0.0602
   56MOL   H18110191   7.043   4.012   2.359 -0.0833 -1.2084 -2.1699
   56MOL   H18210192   7.414   4.105   2.396  0.0123  0.2552  0.9433
   57MOL     C110193   3.318   5.380   7.398 -0.3978 -0.0988  0.6121
   57MOL     C210194   3.461   5.435   7.363 -0.5482 -0.3079  0.5930
   57MOL     C310195   3.494   5.436   7.214 -0.3828  0.4009 -0.7087
   57MOL     O410196   3.579   5.512   7.169  0.1599 -0.3989  0.3091
   57MOL     O510197   3.429   5.338   7.142 -0.3397  0.0802 -0.3377
   57MOL     H610198   3.319   5.271   7.387  0.9398 -0.2535  2.1104
   57MOL     H710199   3.292   5.393   7.503  0.3051  1.4360  0.6050
   57MOL     H810200   3.439   5.540   7.382  1.3922  0.9604 -3.5195
   57MOL     H910201   3.460   5.319   7.054  0.1539 -0.0542 -0.1336
   57MOL    H1010202   3.236   5.421   7.339 -1.0048 -0.7882  0.9782
   57MOL    C1110203   3.578   5.374   7.446 -0.3861 -0.2804  0.2068
   57MOL    C1210204   3.587   5.395   7.602 -0.0503 -0.2578  0.1401
   57MOL    C1310205   3.622   5.539   7.641 -0.3189 -0.1939  0.0460
   57MOL    O1410206   3.614   5.577   7.758 -0.4473  0.0148  0.0894
   57MOL    O1510207   3.671   5.607   7.539 -0.1108 -0.4320 -0.3801
   57MOL    H1610208   3.674   5.403   7.403 -0.3325 -2.2234 -1.0628
   57MOL    H1710209   3.588   5.266   7.431 -0.3729 -0.3154  0.4668
   57MOL    H1810210   3.490   5.369   7.645  0.4459  0.7785  1.9061
   57MOL    H1910211   3.693   5.695   7.565  2.2061 -0.9481 -0.3951
   57MOL    C2010212   3.673   5.290   7.670  0.8062 -0.9659  0.3395
   57MOL    C2110213   3.827   5.315   7.690 -0.2119 -0.6207 -0.7345
   57MOL    C2210214   3.898   5.270   7.557  0.0406  0.2409 -0.5072
   57MOL    O2310215   3.929   5.359   7.476 -0.4335  0.0385 -0.0218
   57MOL    O2410216   3.923   5.143   7.546  0.5549 -0.5511  0.1558
   57MOL    H2510217   3.655   5.193   7.624 -0.2042 -1.2088  1.2383
   57MOL    H2610218   3.623   5.267   7.764 -1.1250 -1.2519 -0.7413
   57MOL    H2710219   3.848   5.421   7.700 -1.9918 -0.0097 -2.9340
   57MOL    H2810220   3.975   5.120   7.470  0.1163 -0.6917 -0.1049
   57MOL    C2910221   3.889   5.254   7.821  0.3879  0.5383 -0.3772
   57MOL    C3010222   4.028   5.299   0.007  0.2764 -0.8344  0.2414
   57MOL    C3110223   4.067   5.443   7.827  1.0540  0.0527  0.2138
   57MOL    O3210224   4.158   5.482   7.752  0.9565  0.0546  0.0543
   57MOL    O3310225   3.978   5.528   0.033  0.0841 -0.1629 -0.4148
   57MOL    H3410226   3.871   5.147   7.821  1.9556  0.2704 -0.6745
   57MOL    H3510227   3.821   5.277   0.050 -0.2968  2.9505 -1.5491
   57MOL    H3610228   4.026   5.293   0.116  0.9606  1.8280  0.4412
   57MOL    H3710229   3.995   5.617   0.006 -0.5863  0.1450  0.1443
   57MOL    C3810230   4.138   5.196   7.819  0.5526  0.0397  0.1989
   57MOL    C3910231   4.128   5.057   0.043  0.7031 -0.0465 -0.2356
   57MOL    C4010232   4.134   5.060   0.198 -0.7146 -0.2671  0.0735
   57MOL    O4110233   4.051   5.004   0.271  0.4774  0.4290  0.7282
   57MOL    O4210234   4.237   5.132   0.237  0.2760 -0.2795 -0.4727
   57MOL    H4310235   4.226   5.255   7.847 -1.1917  2.3624  0.9114
   57MOL    H4410236   4.135   5.182   7.711  0.4452  1.8073 -0.0496
   57MOL    H4510237   4.025   5.022   0.031  0.3218 -0.5388  3.6653
   57MOL    H4610238   4.247   5.133   0.331  1.2373  1.0392 -0.5677
   57MOL    C4710239   4.244   4.964   7.851 -0.5211 -0.1159  0.9302
   57MOL    C4810240   4.194   4.846   7.765 -0.1663 -0.1971  0.1199
   57MOL    C4910241   4.129   4.737   0.001  0.0708 -0.5333  0.5241
   57MOL    O5010242   4.123   4.736   0.124  0.4383 -0.0649 -0.0835
   57MOL    O5110243   4.072   4.637   7.780 -0.3529 -0.4126 -0.5965
   57MOL    H5210244   4.309   4.936   0.080 -0.3022 -1.0760  0.4385
   57MOL    H5310245   4.307   5.034   7.796 -0.4101  0.3876  1.7022
   57MOL    H5410246   4.109   4.880   7.705  0.5036  0.5435 -0.4142
   57MOL    H5510247   4.035   4.573   7.838  1.0801 -0.3330  0.4281
   57MOL    C5610248   4.292   4.801   7.656  0.1890 -0.6694 -0.4093
   57MOL    C5710249   4.269   4.854   7.515  0.5022 -0.2494  0.1012
   57MOL    C5810250   4.287   5.008   7.509 -0.2560 -0.1795  0.3957
   57MOL    O5910251   4.204   5.087   7.467 -0.3389  0.1363  0.2779
   57MOL    O6010252   4.397   5.045   7.570 -0.3299  0.7331 -0.2421
   57MOL    H6110253   4.281   4.692   7.654  3.7092 -1.1784  2.6462
   57MOL    H6210254   4.394   4.818   7.690  0.7912 -0.8260 -2.0899
   57MOL    H6310255   4.348   4.812   7.453 -1.3023 -2.2626 -0.9171
   57MOL    H6410256   4.385   5.137   7.586  1.2621  0.3775  3.4751
   57MOL    C6510257   4.143   4.786   7.458  0.6235 -0.4217  0.2578
   57MOL    C6610258   4.108   4.794   7.304 -0.1745  0.2653 -0.0430
   57MOL    C6710259   4.133   4.928   7.235 -0.0591  0.0424 -0.6451
   57MOL    O6810260   4.236   4.945   7.178 -0.1083 -0.1106  0.0016
   57MOL    O6910261   4.041   5.025   7.271  0.4960 -0.0472 -0.6381
   57MOL    H7010262   4.053   4.813   7.512  1.0883  3.4836 -0.7515
   57MOL    H7110263   4.148   4.677   7.470 -2.5893 -1.0122 -2.8870
   57MOL    H7210264   4.175   4.722   7.258 -0.2109  0.9060 -1.1241
   57MOL    H7310265   4.070   5.109   7.241 -0.2178  0.4902  0.1580
   57MOL    C7410266   3.967   4.746   7.280 -0.1614  0.0510  0.6335
   57MOL    C7510267   3.905   4.763   7.135 -0.2408 -0.6178  0.4163
   57MOL    C7610268   3.761   4.719   7.145  0.0621 -0.2136  0.0192
   57MOL    O7710269   3.723   4.633   7.221 -0.4628  0.4198  0.3190
   57MOL    O7810270   3.672   4.799   7.078  0.0864  0.4147  0.1881
   57MOL    H7910271   3.908   4.802   7.353  1.9114  1.9942  0.8612
   57MOL    H8010272   3.964   4.642   7.314  1.1271 -0.4021 -0.5959
   57MOL    H8110273   3.905   4.870   7.111  1.5133 -0.2615  1.8796
   57MOL    H8210274   3.592   4.768   7.117  1.6887 -2.5854  1.2269
   57MOL    C8310275   3.988   4.678   7.028  0.1101 -0.6095  0.0220
   57MOL    C8410276   3.984   4.523   7.032  0.4994 -0.3884 -0.0066
   57MOL    C8510277   4.119   4.470   7.090 -0.3315 -0.3198  0.6070
   57MOL    O8610278   4.208   4.424   7.019  0.7841  0.5338  0.1091
   57MOL    O8710279   4.130   4.475   7.227 -0.0803 -0.1435  0.1504
   57MOL    H8810280   4.092   4.708   7.042  0.2495 -0.9357 -0.3165
   57MOL    H8910281   3.970   4.720   6.929 -1.1159 -1.7461 -0.2364
   57MOL    H9010282   3.908   4.510   7.109  0.5939 -1.6860 -0.1291
   57MOL    H9110283   4.220   4.465   7.255 -0.1832 -1.2888  0.1200
   57MOL    C9210284   3.941   4.458   6.901 -0.5233  1.2395  0.2233
   57MOL    C9310285   3.797   4.479   6.857  0.3139 -0.1591  0.1086
   57MOL    C9410286   3.688   4.422   6.950  0.3815 -0.2042 -0.7314
   57MOL    O9510287   3.588   4.485   6.988 -0.0611  0.3586  0.2174
   57MOL    O9610288   3.723   4.297   7.000 -0.0839 -0.4361 -0.0298
   57MOL    H9710289   3.969   4.353   6.905 -2.7457  0.6634  1.7692
   57MOL    H9810290   4.002   4.499   6.820 -1.8301  0.5663 -1.1389
   57MOL    H9910291   3.773   4.586   6.852  0.6923 -0.1195 -1.0571
   57MOL   H10010292   3.667   4.282   7.074 -2.0359 -2.5048 -1.8496
   57MOL   C10110293   3.770   4.425   6.714 -0.5925 -0.1530 -0.5407
   57MOL   C10210294   3.816   4.525   6.600  0.3796  1.0829 -1.1624
   57MOL   C10310295   3.724   4.644   6.585  0.2483 -0.7231 -0.9032
   57MOL   O10410296   3.627   4.678   6.655 -0.7315  0.2196  0.2014
   57MOL   O10510297   3.750   4.710   6.470 -0.5809  0.4918 -0.3573
   57MOL   H10610298   3.668   4.393   6.695 -1.0857  1.5570 -0.9304
   57MOL   H10710299   3.830   4.335   6.707 -0.2758 -0.0834  1.0466
   57MOL   H10810300   3.913   4.564   6.631  1.3320 -2.0004 -0.0717
   57MOL   H10910301   3.824   4.679   6.420 -2.1430  1.3828 -3.3810
   57MOL   C11010302   3.850   4.455   6.465 -0.3177  0.0693 -0.0242
   57MOL   C11110303   3.992   4.472   6.395 -0.4205 -0.4896 -0.0484
   57MOL   C11210304   4.104   4.426   6.483  0.2474  0.4438 -1.0478
   57MOL   O11310305   4.208   4.487   6.506  0.0289 -0.5261 -0.2095
   57MOL   O11410306   4.068   4.315   6.544  0.2836 -0.2975 -0.2590
   57MOL   H11510307   3.764   4.475   6.400  0.1172  0.7773 -0.3893
   57MOL   H11610308   3.832   4.348   6.475  0.1064  0.0906  1.0161
   57MOL   H11710309   4.006   4.399   6.316 -2.6553  0.0906 -1.0262
   57MOL   H11810310   4.133   4.297   6.610 -0.5050  1.2244  0.9879
   57MOL   C11910311   4.012   4.614   6.325 -0.1137 -0.6886 -0.4296
   57MOL   C12010312   4.139   4.636   6.233 -0.4189  0.1777  0.8256
   57MOL   C12110313   4.133   4.772   6.164 -0.5136 -0.2902  0.6002
   57MOL   O12210314   4.032   4.839   6.155  0.0602 -0.4676 -0.2283
   57MOL   O12310315   4.261   4.815   6.128 -0.4522 -0.0484  0.0648
   57MOL   H12410316   4.033   4.691   6.399 -1.4270 -0.0723 -0.6780
   57MOL   H12510317   3.920   4.635   6.270  0.2067 -0.8502 -1.0384
   57MOL   H12610318   4.226   4.630   6.298  0.4117 -1.8791 -0.4219
   57MOL   H12710319   4.254   4.903   6.092 -2.2005 -0.1010  0.2188
   57MOL   C12810320   4.165   4.521   6.129 -0.2732  0.3238 -0.1749
   57MOL   C12910321   4.302   4.441   6.141  0.6119  0.3718 -0.1540
   57MOL   C13010322   4.424   4.504   6.078 -0.1061 -0.4500 -0.1915
   57MOL   O13110323   4.416   4.594   5.998  0.3491 -0.4696 -0.2806
   57MOL   O13210324   4.539   4.454   6.127 -0.4278 -0.3670  0.4192
   57MOL   H13310325   4.144   4.566   6.032 -1.3774 -1.0423 -0.5870
   57MOL   H13410326   4.083   4.451   6.141  1.8074 -2.0384  0.7899
   57MOL   H13510327   4.319   4.414   6.246 -2.3377 -0.4283  0.1400
   57MOL   H13610328   4.625   4.486   6.105 -1.0316 -0.2840 -1.9008
   57MOL   C13710329   4.288   4.300   6.082 -0.2859  0.0663 -0.5379
   57MOL   C13810330   4.224   4.195   6.180 -0.0005  0.0776  0.4866
   57MOL   C13910331   4.330   4.144   6.285  0.2433 -0.1922  0.2031
   57MOL   O14010332   4.290   4.102   6.393 -0.7552 -0.7249 -0.6827
   57MOL   O14110333   4.456   4.132   6.241  0.1644 -0.3343  0.3330
   57MOL   H14210334   4.388   4.269   6.050  0.2024  0.6709  0.3862
   57MOL   H14310335   4.226   4.316   5.993 -0.1645 -0.9026 -0.8047
   57MOL   H14410336   4.148   4.251   6.234  1.2218  2.8777 -0.6050
   57MOL   H14510337   4.508   4.099   6.313  0.7039  1.7194  0.9040
   57MOL   C14610338   4.161   4.067   6.110  0.1229 -1.0645 -0.3232
   57MOL   C14710339   4.064   3.974   6.190  0.0059 -0.0879  0.2103
   57MOL   C14810340   4.064   3.831   6.132  0.3121  0.9498 -0.5930
   57MOL   O14910341   4.157   3.754   6.159  0.1922  0.0387  0.3145
   57MOL   O15010342   3.947   3.795   6.075  0.5140 -0.6997  0.3387
   57MOL   H15110343   4.246   4.011   6.071  1.3096 -0.2699  1.0323
   57MOL   H15210344   4.106   4.107   6.026 -0.5464  0.5184  0.8384
   57MOL   H15310345   4.094   3.968   6.295  1.9860 -0.0619 -0.3450
   57MOL   H15410346   3.944   3.703   6.051  1.9233 -1.4988  3.1113
   57MOL   C15510347   3.920   4.040   6.181  0.1336  0.4424 -0.1692
   57MOL   C15610348   3.822   3.985   6.285 -0.5277 -0.1543  0.0361
   57MOL   C15710349   3.675   4.000   6.243  0.7961  0.0935 -1.0540
   57MOL   O15810350   3.593   3.914   6.264  0.1512 -0.5248  0.2481
   57MOL   O15910351   3.653   4.117   6.177 -0.0716 -0.1054  0.2167
   57MOL   H16010352   3.884   4.028   6.078 -1.7607 -0.7852  0.5918
   57MOL   H16110353   3.926   4.148   6.195  1.3307  0.2384  0.9854
   57MOL   H16210354   3.855   3.883   6.303  0.2611  0.2927  1.2236
   57MOL   H16310355   3.562   4.117   6.152  0.0348  0.3896 -0.1715
   57MOL   C16410356   3.841   4.058   6.419  0.8587 -0.2645 -0.6787
   57MOL   C16510357   3.801   3.984   6.553  0.4609  0.1599  0.0541
   57MOL   C16610358   3.690   4.058   6.629 -0.7155 -0.2273 -1.0557
   57MOL   O16710359   3.708   4.119   6.736 -0.2235 -0.1144 -0.7776
   57MOL   O16810360   3.569   4.033   6.577  0.2424 -0.1062  0.0659
   57MOL   H16910361   3.782   4.150   6.423  1.6148  0.1878  0.3138
   57MOL   H17010362   3.946   4.087   6.426  0.9397 -0.7629  0.2322
   57MOL   H17110363   3.743   3.896   6.526 -2.3852  0.9067  3.4362
   57MOL   H17210364   3.502   4.075   6.628  1.4988 -0.5413  2.1477
   57MOL   C17310365   3.926   3.945   6.636 -0.2256  0.8999  1.0120
   57MOL   C17410366   4.009   3.832   6.572 -0.1071  0.6409 -0.0608
   57MOL   C17510367   3.938   3.699   6.551 -0.8927 -0.0206  0.5685
   57MOL   O17610368   3.876   3.643   6.638  0.0741 -0.5163 -0.5676
   57MOL   O17710369   3.958   3.640   6.428 -0.0093  0.4644 -0.3133
   57MOL   H17810370   3.899   3.908   6.735  1.9860  0.5620  1.5185
   57MOL   H17910371   3.993   4.029   6.657  1.9202 -0.6071  0.4253
   57MOL   H18010372   4.050   3.870   6.478 -0.4850  1.3457  0.0657
   57MOL   H18110373   3.907   3.564   6.407 -1.7257  1.5019 -0.0649
   57MOL   H18210374   4.098   3.809   6.631 -0.8046 -0.1299  0.6925
   58MOL     C110375   3.819   6.049   0.446 -0.0437 -0.4578 -1.3567
   58MOL     C210376   3.797   6.089   0.597 -0.5061  0.4830  0.2059
   58MOL     C310377   3.922   6.146   0.663 -0.0975  0.4834  0.9659
   58MOL     O410378   4.039   6.118   0.633 -0.0866  0.1350 -0.1019
   58MOL     O510379   3.891   6.210   0.775 -0.3279  0.1485  0.2029
   58MOL     H610380   3.735   5.999   0.398 -0.0958 -1.2553 -0.4590
   58MOL     H710381   3.839   6.133   0.381 -1.1481 -0.9434 -2.3340
   58MOL     H810382   3.735   6.176   0.574 -0.2267  0.3680 -0.9980
   58MOL     H910383   3.965   6.267   0.790 -1.5846  0.7747  4.5419
   58MOL    H1010384   3.904   5.982   0.437  0.5407 -0.7755  4.3609
   58MOL    C1110385   3.727   5.979   0.688  0.1148 -0.2396 -0.4112
   58MOL    C1210386   3.581   6.000   0.719 -0.3939 -0.5023 -0.3189
   58MOL    C1310387   3.499   5.992   0.591  0.0414 -0.0297  0.5093
   58MOL    O1410388   3.433   6.092   0.549  0.0380 -0.3458  0.3080
   58MOL    O1510389   3.495   5.864   0.535  0.2725  0.2999 -0.1670
   58MOL    H1610390   3.785   5.960   0.778 -0.8051 -2.0025 -0.1666
   58MOL    H1710391   3.724   5.884   0.634  1.8878 -0.1570 -0.6919
   58MOL    H1810392   3.550   5.915   0.780  2.8399 -1.6968 -0.2340
   58MOL    H1910393   3.430   5.848   0.468 -1.5546  0.5579  1.5185
   58MOL    C2010394   3.574   6.130   0.809  0.6965  0.5053  0.2827
   58MOL    C2110395   3.431   6.158   0.865 -0.3371 -0.0356 -0.2066
   58MOL    C2210396   3.383   6.299   0.822 -0.1774  0.2255  1.0637
   58MOL    O2310397   3.442   6.398   0.858 -0.0304 -0.0456 -0.3595
   58MOL    O2410398   3.271   6.303   0.738  0.2505  0.3332  0.6379
   58MOL    H2510399   3.609   6.223   0.762 -1.9572  0.4247 -1.9529
   58MOL    H2610400   3.641   6.108   0.891 -0.0376 -1.2298  0.4279
   58MOL    H2710401   3.366   6.085   0.816  0.8291 -3.2903  2.8874
   58MOL    H2810402   3.257   6.393   0.713 -0.4163  0.0825  0.0826
   58MOL    C2910403   3.423   6.136   1.017 -0.3917 -0.3975 -0.0749
   58MOL    C3010404   3.441   5.998   1.079  0.6781  0.6779 -0.0443
   58MOL    C3110405   3.370   5.884   1.010 -0.4139 -0.1574  0.4679
   58MOL    O3210406   3.417   5.772   1.014  0.1400 -0.0588  0.1746
   58MOL    O3310407   3.251   5.909   0.951 -0.3310 -0.1994  0.0387
   58MOL    H3410408   3.330   6.181   1.053 -0.2346 -0.2750  0.1797
   58MOL    H3510409   3.505   6.194   1.059  0.1207 -0.2449 -1.2638
   58MOL    H3610410   3.547   5.974   1.076  1.2409  2.9379  0.7064
   58MOL    H3710411   3.222   5.821   0.932  0.1056  0.2851 -3.1766
   58MOL    C3810412   3.406   5.996   1.230 -0.3301 -0.3185  0.0582
   58MOL    C3910413   3.535   5.983   1.321  0.4125 -0.0419  0.0940
   58MOL    C4010414   3.620   6.105   1.334  0.0153  0.2575 -0.2847
   58MOL    O4110415   3.729   6.108   1.386 -0.7119  0.0313  0.2037
   58MOL    O4210416   3.559   6.211   1.281  0.5128  0.0108 -0.0397
   58MOL    H4310417   3.326   5.923   1.244 -0.4511  0.1593  2.1328
   58MOL    H4410418   3.349   6.084   1.261 -0.4777 -0.7394  1.0085
   58MOL    H4510419   3.488   5.971   1.419 -1.9503  3.7996 -0.4334
   58MOL    H4610420   3.611   6.288   1.264 -0.3991  0.5686 -0.3367
   58MOL    C4710421   3.610   5.854   1.299 -0.4017  0.2064 -0.1623
   58MOL    C4810422   3.648   5.778   1.417  0.6419 -0.5028  0.0602
   58MOL    C4910423   3.746   5.661   1.398  0.0878 -0.5688  0.3768
   58MOL    O5010424   3.749   5.585   1.301  0.3754 -0.1646 -0.0043
   58MOL    O5110425   3.838   5.655   1.492  0.3188  0.2030 -0.4017
   58MOL    H5210426   3.699   5.882   1.243  0.4710 -1.0164  0.5947
   58MOL    H5310427   3.550   5.784   1.240 -0.3613 -0.4739  0.5979
   58MOL    H5410428   3.705   5.857   1.466  0.9742  0.1232 -1.3228
   58MOL    H5510429   3.869   5.569   1.467 -1.4605 -0.7085  0.4326
   58MOL    C5610430   3.535   5.730   1.520  0.3143  0.0685  0.4956
   58MOL    C5710431   3.399   5.688   1.464 -0.3115  0.0498  0.7025
   58MOL    C5810432   3.299   5.673   1.575 -0.0139 -0.4587 -0.3397
   58MOL    O5910433   3.325   5.641   1.690  0.1362  0.0458  0.0311
   58MOL    O6010434   3.176   5.711   1.534 -0.2524  0.0558 -0.3268
   58MOL    H6110435   3.535   5.812   1.591  1.1879 -1.0965  1.8745
   58MOL    H6210436   3.571   5.647   1.581  1.5927 -0.1765 -0.5679
   58MOL    H6310437   3.359   5.772   1.406 -1.2250 -0.9053 -0.0734
   58MOL    H6410438   3.112   5.699   1.603  1.6845 -1.8411  1.2486
   58MOL    C6510439   3.402   5.568   1.366  0.6696  0.6485  0.7787
   58MOL    C6610440   3.268   5.490   1.324  0.1106  0.5417 -0.0040
   58MOL    C6710441   3.306   5.356   1.252 -0.1352 -0.0253 -0.0575
   58MOL    O6810442   3.389   5.351   1.163 -0.1199 -0.4125 -0.0893
   58MOL    O6910443   3.228   5.243   1.277 -0.0340 -0.2501 -0.3992
   58MOL    H7010444   3.473   5.492   1.399 -0.8430 -0.2932  1.9094
   58MOL    H7110445   3.435   5.609   1.271 -3.4502 -0.4925 -1.2508
   58MOL    H7210446   3.214   5.472   1.417  1.0575 -0.4877  0.3623
   58MOL    H7310447   3.244   5.177   1.212 -1.2387 -0.3225 -0.6324
   58MOL    C7410448   3.187   5.583   1.228  0.1983 -0.5043 -0.2977
   58MOL    C7510449   3.048   5.534   1.190 -0.4043 -0.5257  0.1400
   58MOL    C7610450   3.013   5.623   1.069  0.1710 -0.8774  0.0427
   58MOL    O7710451   2.995   5.750   1.070 -0.5149  0.2978 -0.2110
   58MOL    O7810452   2.993   5.542   0.963 -0.9050 -0.0109 -1.1209
   58MOL    H7910453   3.247   5.596   1.137 -0.2930 -0.9429 -0.6829
   58MOL    H8010454   3.177   5.676   1.284 -1.2486 -0.1605 -1.1137
   58MOL    H8110455   3.053   5.432   1.151  0.7940 -0.7949  0.9837
   58MOL    H8210456   2.960   5.596   0.892 -0.6976  0.9966 -0.4623
   58MOL    C8310457   2.957   5.558   1.318  1.0428 -0.0701 -0.7391
   58MOL    C8410458   2.806   5.532   1.296 -0.2612  0.0240  0.0312
   58MOL    C8510459   2.725   5.553   1.425 -0.0176 -0.6974 -0.3246
   58MOL    O8610460   2.745   5.489   1.527 -0.5370  0.1339 -0.4942
   58MOL    O8710461   2.639   5.660   1.422 -0.0898 -0.0818 -0.2082
   58MOL    H8810462   2.965   5.661   1.352  2.2109 -1.2220  2.6822
   58MOL    H8910463   2.995   5.493   1.397  1.4241  1.2548  0.1974
   58MOL    H9010464   2.773   5.618   1.238  1.8925  1.3002  0.6689
   58MOL    H9110465   2.578   5.664   1.494 -0.2580 -0.9486 -0.2963
   58MOL    C9210466   2.764   5.393   1.234 -0.1064 -0.1989 -0.0823
   58MOL    C9310467   2.685   5.410   1.099  0.1921 -0.0287 -0.3404
   58MOL    C9410468   2.536   5.441   1.124 -0.1089 -0.2358 -0.2788
   58MOL    O9510469   2.486   5.415   1.232  0.2101  0.5694  0.1790
   58MOL    O9610470   2.482   5.503   1.016 -0.0801 -0.4588 -0.2527
   58MOL    H9710471   2.707   5.335   1.307  2.2237 -1.1149  1.0652
   58MOL    H9810472   2.846   5.321   1.228 -0.7713 -1.0299  0.5750
   58MOL    H9910473   2.726   5.496   1.045  0.2708 -0.4788 -1.0020
   58MOL   H10010474   2.398   5.546   1.020  0.6768  0.9693  0.5894
   58MOL   C10110475   2.710   5.291   1.001  1.3082 -0.6430 -0.4512
   58MOL   C10210476   2.648   5.291   0.860 -0.3847  0.0898 -0.0313
   58MOL   C10310477   2.673   5.156   0.794  0.3593 -0.5184 -1.0023
   58MOL   O10410478   2.584   5.094   0.748  1.0205 -0.1947 -0.2655
   58MOL   O10510479   2.801   5.119   0.765 -0.1788  0.2252  0.0297
   58MOL   H10610480   2.697   5.194   1.049 -3.5953  0.5974  0.9883
   58MOL   H10710481   2.817   5.299   0.981  1.1112  1.8809 -0.6464
   58MOL   H10810482   2.541   5.290   0.877 -1.0131  2.7517 -3.3762
   58MOL   H10910483   2.794   5.029   0.735 -1.4644  0.4290 -0.3196
   58MOL   C11010484   2.681   5.412   0.771  0.0733 -0.1168  0.7174
   58MOL   C11110485   2.589   5.453   0.656 -0.0807  0.5502  0.3185
   58MOL   C11210486   2.561   5.359   0.538 -0.4016 -0.2239  0.5384
   58MOL   O11310487   2.632   5.271   0.497 -0.0640 -0.4087 -0.2833
   58MOL   O11410488   2.446   5.391   0.476 -0.2516  0.1887  0.0480
   58MOL   H11510489   2.784   5.404   0.736  0.0288 -0.1888  0.6055
   58MOL   H11610490   2.671   5.503   0.830  0.6350 -0.3473  1.1782
   58MOL   H11710491   2.489   5.446   0.699  0.5604  1.1762  1.9361
   58MOL   H11810492   2.423   5.322   0.415  0.7575  0.3026 -0.4782
   58MOL   C11910493   2.617   5.595   0.603 -1.1445  0.2186  0.2824
   58MOL   C12010494   2.555   5.718   0.677 -0.2289  0.6889 -0.3176
   58MOL   C12110495   2.410   5.717   0.646  0.4627 -0.2199 -0.6684
   58MOL   O12210496   2.377   5.760   0.540  0.4360  0.5346 -0.0536
   58MOL   O12310497   2.337   5.641   0.735  0.0606 -0.0321  0.5924
   58MOL   H12410498   2.595   5.603   0.496  2.7692 -1.1277 -0.7319
   58MOL   H12510499   2.726   5.606   0.601 -1.1514  0.6047  1.6917
   58MOL   H12610500   2.554   5.703   0.785 -0.0986 -1.9982 -0.6500
   58MOL   H12710501   2.265   5.606   0.686 -0.8663  1.0675  1.1584
   58MOL   C12810502   2.621   5.852   0.646 -0.4838 -0.1660  0.4497
   58MOL   C12910503   2.776   5.890   0.658  0.2848  0.3319  0.6564
   58MOL   C13010504   2.844   5.814   0.777 -0.2396 -0.3166  0.0862
   58MOL   O13110505   2.902   5.709   0.769 -0.5635 -0.4656  0.1915
   58MOL   O13210506   2.836   5.886   0.890 -0.5731 -0.2357 -0.0358
   58MOL   H13310507   2.564   5.930   0.695 -1.3887 -0.7399  0.3133
   58MOL   H13410508   2.612   5.867   0.538  2.3320  1.8380  0.4279
   58MOL   H13510509   2.830   5.857   0.570 -2.1162 -0.9181 -0.4002
   58MOL   H13610510   2.886   5.843   0.957 -1.8500 -0.6468  0.6678
   58MOL   C13710511   2.786   6.048   0.660  0.5598 -0.1414  0.1755
   58MOL   C13810512   2.923   6.128   0.646  0.3977 -1.1026 -0.3228
   58MOL   C13910513   3.020   6.112   0.760 -0.2676  0.6071 -0.7310
   58MOL   O14010514   3.010   6.167   0.870  0.2106 -0.4111  0.0860
   58MOL   O14110515   3.114   6.019   0.733  0.1895 -0.1049 -0.1642
   58MOL   H14210516   2.735   6.099   0.742 -0.2174  3.0316 -2.1506
   58MOL   H14310517   2.729   6.080   0.573  1.1577  1.3567  0.3097
   58MOL   H14410518   2.971   6.100   0.552  2.1625 -0.5881  0.4241
   58MOL   H14510519   3.165   6.010   0.812 -2.1949  1.7186  1.6574
   58MOL   C14610520   2.895   6.281   0.618  0.5174 -0.6983  0.0627
   58MOL   C14710521   2.889   6.329   0.467 -0.1427  0.2603 -0.2569
   58MOL   C14810522   2.779   6.259   0.394 -0.0867 -0.3437  0.7289
   58MOL   O14910523   2.806   6.166   0.318  0.0144  0.1391  0.5534
   58MOL   O15010524   2.659   6.299   0.431 -0.2156 -0.5153 -0.4745
   58MOL   H15110525   2.972   6.340   0.668  0.3434 -0.0235 -0.4631
   58MOL   H15210526   2.803   6.320   0.662  1.4055  2.0432 -0.4674
   58MOL   H15310527   2.859   6.434   0.464 -1.6630 -0.1596 -0.1607
   58MOL   H15410528   2.599   6.226   0.437  0.6871 -1.2066  0.2786
   58MOL   C15510529   3.028   6.310   0.406  0.4065 -0.1238  0.8138
   58MOL   C15610530   3.074   6.412   0.295  0.3154 -0.4190  0.4479
   58MOL   C15710531   2.998   6.379   0.160  0.4211 -0.1679 -0.0862
   58MOL   O15810532   2.913   6.458   0.116 -0.4856 -0.9403  0.2287
   58MOL   O15910533   3.028   6.259   0.101 -0.2335 -0.6768  0.3239
   58MOL   H16010534   3.058   6.215   0.362 -1.2254  0.3214 -1.3456
   58MOL   H16110535   3.098   6.318   0.489 -0.0293  0.2658  1.1474
   58MOL   H16210536   3.041   6.510   0.329 -0.3911 -0.8455  1.0154
   58MOL   H16310537   2.975   6.251   0.023 -1.7458  0.4673  1.2104
   58MOL   C16410538   3.226   6.414   0.268 -0.0808 -0.2907 -0.5635
   58MOL   C16510539   3.312   6.437   0.393  0.3153 -0.0488 -0.7687
   58MOL   C16610540   3.260   6.561   0.475 -0.2273 -0.4949 -0.1741
   58MOL   O16710541   3.225   6.666   0.421  0.0486 -0.2048  0.2502
   58MOL   O16810542   3.272   6.543   0.608 -0.7825  0.0749 -0.0995
   58MOL   H16910543   3.244   6.506   0.212  1.1382  0.1826  0.5765
   58MOL   H17010544   3.264   6.331   0.208 -0.0922 -0.5048 -0.2707
   58MOL   H17110545   3.317   6.359   0.468  1.2001  0.5398 -0.2027
   58MOL   H17210546   3.257   6.628   0.646 -3.5372 -0.3720 -0.0769
   58MOL   C17310547   3.462   6.454   0.351  0.1048 -0.0061 -0.4316
   58MOL   C17410548   3.567   6.472   0.468  0.6290  0.0500 -0.1508
   58MOL   C17510549   3.604   6.619   0.487  0.3139 -0.3695  0.4162
   58MOL   O17610550   3.537   6.700   0.554  0.1202  0.2225 -0.8195
   58MOL   O17710551   3.697   6.655   0.391  0.0632 -0.3463  0.4292
   58MOL   H17810552   3.474   6.535   0.279 -0.1007  2.1068  1.8204
   58MOL   H17910553   3.498   6.363   0.305 -1.9309 -0.1917 -1.7350
   58MOL   H18010554   3.527   6.432   0.561  0.0996  1.4719  0.2480
   58MOL   H18110555   3.709   6.746   0.412  1.1961 -0.2258 -0.7001
   58MOL   H18210556   3.654   6.408   0.451 -0.4949 -1.4236 -0.4589
   59MOL     C110557   0.256   3.166   7.627  0.6879  0.2651 -0.3243
   59MOL     C210558   0.127   3.110   7.557 -0.1864  0.0564 -0.1449
   59MOL     C310559   0.010   3.089   7.660 -0.2132  0.8732  0.1962
   59MOL     O410560   7.801   2.980   7.674 -0.0677 -0.0214  0.7067
   59MOL     O510561   7.816   3.202   7.724 -0.3207 -0.4133  0.6123
   59MOL     H610562   0.240   3.259   7.681 -1.1517 -0.6168  0.7076
   59MOL     H710563   0.283   3.092   7.702  1.2751  0.1297 -0.6645
   59MOL     H810564   0.104   3.191   7.487 -0.2449 -0.2147 -0.4387
   59MOL     H910565   7.739   3.174   7.771 -1.0269  2.5781  1.3220
   59MOL    H1010566   0.347   3.185   7.570 -0.0266 -1.7267 -2.2373
   59MOL    C1110567   0.148   2.982   7.476  0.4138  1.1570 -0.1275
   59MOL    C1210568   0.031   2.934   7.381  0.6345 -0.1065 -0.3888
   59MOL    C1310569   0.023   2.776   7.396 -0.6679  0.3649 -0.6269
   59MOL    O1410570   7.789   2.725   7.459  0.0453  0.3248  0.0497
   59MOL    O1510571   0.120   2.699   7.333  0.3247 -0.6261  0.0375
   59MOL    H1610572   0.160   2.907   7.555 -1.3725  2.3083  1.2933
   59MOL    H1710573   0.237   2.996   7.415 -0.0598  1.8533 -0.6702
   59MOL    H1810574   7.795   2.969   7.434  1.1586 -1.9793  1.8466
   59MOL    H1910575   0.097   2.612   7.362  0.0812 -0.4006  0.5240
   59MOL    C2010576   0.024   2.983   7.231 -0.6091 -0.7018 -0.6284
   59MOL    C2110577   7.740   2.990   7.160 -0.2292 -0.6661 -0.6582
   59MOL    C2210578   7.626   3.079   7.219 -0.1521  0.0257  0.3563
   59MOL    O2310579   7.632   3.133   7.328  0.3499 -0.2141 -0.2910
   59MOL    O2410580   7.527   3.103   7.131  0.6231  0.0700  0.1213
   59MOL    H2510581   0.102   2.929   7.178  0.3835  0.1269 -0.0425
   59MOL    H2610582   0.063   3.084   7.245 -2.0343 -0.0553 -1.2563
   59MOL    H2710583   7.759   3.050   7.071 -3.1752 -1.2355 -1.7460
   59MOL    H2810584   7.465   3.163   7.169 -0.6097 -0.8823 -0.3449
   59MOL    C2910585   7.680   2.856   7.111 -0.2874 -0.3212 -0.0346
   59MOL    C3010586   7.771   2.760   7.036  0.0716 -0.0307 -0.2746
   59MOL    C3110587   7.822   2.821   6.907 -0.3679 -0.3201  0.2555
   59MOL    O3210588   7.769   2.801   6.801  0.2161  0.6673  0.1044
   59MOL    O3310589   0.082   2.891   6.920 -0.5955 -0.2933 -0.0398
   59MOL    H3410590   7.595   2.880   7.048  0.5475  1.6456 -0.4679
   59MOL    H3510591   7.650   2.802   7.201 -0.6294 -0.4884 -0.2501
   59MOL    H3610592   0.009   2.751   7.096  0.3165 -3.0976 -1.0528
   59MOL    H3710593   0.104   2.928   6.836  1.7667 -0.1040  0.6238
   59MOL    C3810594   7.706   2.623   7.028  0.7708  0.7169  0.2038
   59MOL    C3910595   7.800   2.501   7.004  0.6191 -0.2137 -0.3973
   59MOL    C4010596   0.017   2.497   6.868 -0.4006  0.0722 -0.4230
   59MOL    O4110597   7.820   2.502   6.755 -0.0904  0.0212  0.2773
   59MOL    O4210598   0.146   2.469   6.878  0.1869  0.0223 -0.3055
   59MOL    H4310599   7.621   2.629   6.959  0.3584 -0.9940  0.5404
   59MOL    H4410600   7.666   2.607   7.128 -0.4373  0.7884 -0.2569
   59MOL    H4510601   0.017   2.496   7.087  0.0967  0.6743  0.1132
   59MOL    H4610602   0.179   2.443   6.793 -0.9431 -0.3517 -0.6251
   59MOL    C4710603   7.718   2.374   7.025 -0.5034  0.1069 -0.2761
   59MOL    C4810604   7.768   2.260   7.119 -0.7431 -0.1092  0.0169
   59MOL    C4910605   0.049   2.188   7.058  0.0634  0.5675 -0.1843
   59MOL    O5010606   0.048   2.073   7.006  0.5421 -0.0907 -0.1402
   59MOL    O5110607   0.156   2.271   7.080  0.2932 -0.2913 -0.1945
   59MOL    H5210608   7.695   2.331   6.927 -0.1141 -2.4996  0.7493
   59MOL    H5310609   7.627   2.415   7.068  0.5003  1.7871  0.3277
   59MOL    H5410610   7.789   2.319   7.208 -2.3021 -0.7992  0.8546
   59MOL    H5510611   0.242   2.240   7.054  0.4844 -1.9091  2.2040
   59MOL    C5610612   7.667   2.153   7.161  0.0835 -0.0941 -1.0986
   59MOL    C5710613   7.536   2.210   7.235  0.0485  0.0911 -0.4402
   59MOL    C5810614   7.565   2.304   7.346  0.2320  0.1979 -0.3678
   59MOL    O5910615   7.503   2.413   7.344  0.3386 -0.4620  0.0759
   59MOL    O6010616   7.664   2.276   7.438 -0.0572 -0.4621 -0.2968
   59MOL    H6110617   7.719   2.072   7.213 -0.1836 -0.1413 -0.9073
   59MOL    H6210618   7.633   2.120   7.062 -0.2509  0.7099 -1.2551
   59MOL    H6310619   7.471   2.260   7.164 -0.0108  0.7462  0.0701
   59MOL    H6410620   7.676   2.348   7.499 -1.3300  0.3895 -1.0447
   59MOL    C6510621   7.442   2.096   7.292 -0.0587 -0.4893 -0.0651
   59MOL    C6610622   7.290   2.127   7.285 -0.5841  0.1338  0.2741
   59MOL    C6710623   7.226   2.161   7.422 -0.4155  0.0329  0.2317
   59MOL    O6810624   7.289   2.166   7.526 -0.2136  0.6301 -0.2801
   59MOL    O6910625   7.090   2.168   7.411  0.6704 -0.3061 -0.1114
   59MOL    H7010626   7.468   2.082   7.397 -1.2179  1.2225  0.4679
   59MOL    H7110627   7.477   2.006   7.242  1.5028  0.6517 -1.0833
   59MOL    H7210628   7.276   2.226   7.240 -3.0806  0.0599  0.8504
   59MOL    H7310629   7.047   2.191   7.492  0.8739 -0.4175  0.0279
   59MOL    C7410630   7.208   2.021   7.200  0.2418  0.5220 -0.6292
   59MOL    C7510631   7.164   2.072   7.062  0.5784  0.8147  0.4804
   59MOL    C7610632   7.045   1.993   7.011  0.2266 -0.0068  0.1567
   59MOL    O7710633   6.942   2.048   6.980 -0.0646  0.0546 -0.1913
   59MOL    O7810634   7.062   1.865   6.985  0.3649 -0.2917 -0.2136
   59MOL    H7910635   7.117   1.992   7.252 -0.0531 -0.2056 -1.5492
   59MOL    H8010636   7.259   1.925   7.186 -1.1623 -0.6299  1.8461
   59MOL    H8110637   7.138   2.177   7.077  1.2924  0.6244  3.5070
   59MOL    H8210638   6.992   1.817   6.942  0.0616 -0.3707  0.3691
   59MOL    C8310639   7.288   2.074   6.974 -0.6569 -0.7951 -0.2116
   59MOL    C8410640   7.293   2.157   6.838 -0.4405 -0.3680 -0.9040
   59MOL    C8510641   7.186   2.116   6.734  0.3810  0.0407  0.2002
   59MOL    O8610642   7.082   2.175   6.709  0.2060  0.0559 -0.0821
   59MOL    O8710643   7.219   2.004   6.673 -0.2183  0.0619  0.2954
   59MOL    H8810644   7.319   1.972   6.952 -1.6443 -1.2947  0.6712
   59MOL    H8910645   7.366   2.123   7.032 -1.1496 -0.0497 -0.1680
   59MOL    H9010646   7.276   2.261   6.865  1.8957 -0.0446 -0.5239
   59MOL    H9110647   7.164   1.995   6.597  2.4244 -0.2827 -1.6505
   59MOL    C9210648   7.444   2.148   6.781  0.3127  0.1298 -0.0716
   59MOL    C9310649   7.474   2.199   6.637  0.0410  0.0573 -0.3348
   59MOL    C9410650   7.626   2.178   6.608 -0.3128 -0.7141  0.3586
   59MOL    O9510651   7.680   2.071   6.570  0.7163  0.0004  0.5281
   59MOL    O9610652   7.694   2.284   6.648  0.0867  0.5027  0.0009
   59MOL    H9710653   7.468   2.042   6.773 -2.2502 -0.3861 -1.3743
   59MOL    H9810654   7.518   2.190   6.849  1.6426 -1.0247 -0.7930
   59MOL    H9910655   7.416   2.141   6.565  1.9556 -0.9088 -1.1352
   59MOL   H10010656   7.786   2.267   6.635  0.8199  4.4163 -0.7101
   59MOL   C10110657   7.426   2.353   6.632 -1.0086  0.1394 -0.3312
   59MOL   C10210658   7.458   2.430   6.507  0.5436 -0.3368  0.2631
   59MOL   C10310659   7.467   2.584   6.535 -0.1524  0.1597 -0.5109
   59MOL   O10410660   7.417   2.670   6.460  0.1864  0.4960 -0.0990
   59MOL   O10510661   7.539   2.611   6.650 -0.2414 -0.0931  0.2776
   59MOL   H10610662   7.490   2.396   6.709  0.7197  1.5156 -2.4570
   59MOL   H10710663   7.323   2.367   6.665  0.1879  1.0216  3.2918
   59MOL   H10810664   7.557   2.397   6.474  0.9111  0.6365  0.3975
   59MOL   H10910665   7.534   2.702   6.674  1.6385  0.2470 -0.4673
   59MOL   C11010666   7.343   2.398   6.402 -0.1250 -0.2691 -0.2242
   59MOL   C11110667   7.381   2.341   6.264  0.1173 -0.1356  0.1159
   59MOL   C11210668   7.437   2.193   6.276 -0.9922  0.0346  0.3067
   59MOL   O11310669   7.557   2.171   6.269 -0.4635  0.7174 -0.1018
   59MOL   O11410670   7.342   2.098   6.277  0.4818  0.7468  0.0312
   59MOL   H11510671   7.279   2.486   6.400  1.7097  1.0789 -1.1508
   59MOL   H11610672   7.274   2.328   6.449  1.4402 -0.2123  2.2520
   59MOL   H11710673   7.286   2.338   6.211  0.6572  2.0658 -1.0286
   59MOL   H11810674   7.389   2.017   6.268 -1.1619 -0.4389  1.7780
   59MOL   C11910675   7.480   2.438   6.186  0.3464  0.2334 -0.2128
   59MOL   C12010676   7.457   2.459   6.033  0.4890 -0.1321  0.7457
   59MOL   C12110677   7.461   2.330   5.942 -0.7113 -0.7394 -0.3621
   59MOL   O12210678   7.382   2.310   5.851 -0.1168  0.3689 -0.4043
   59MOL   O12310679   7.571   2.250   5.964  0.1346 -0.5130 -0.4043
   59MOL   H12410680   7.583   2.418   6.217 -0.2380  0.5947  2.0598
   59MOL   H12510681   7.461   2.535   6.231  1.2984 -0.0405  0.7975
   59MOL   H12610682   7.354   2.492   6.022  0.6194 -0.8970 -4.0327
   59MOL   H12710683   7.623   2.279   6.037  2.1055 -1.1863 -1.4813
   59MOL   C12810684   7.545   2.575   5.968 -0.7915 -0.2239 -0.0571
   59MOL   C12910685   7.542   2.601   5.815 -0.0279 -0.0367  0.3710
   59MOL   C13010686   7.662   2.538   5.740 -0.1646 -0.1889 -0.6372
   59MOL   O13110687   7.759   2.486   5.801 -0.2896  0.0686 -0.7666
   59MOL   O13210688   7.658   2.563   5.606  0.1880 -0.0683 -0.1393
   59MOL   H13310689   7.642   2.550   6.010 -1.0886  0.5105  1.1101
   59MOL   H13410690   7.517   2.663   6.027 -0.0412  0.7362 -1.1221
   59MOL   H13510691   7.454   2.547   5.779 -0.0973  0.6070 -0.4479
   59MOL   H13610692   7.730   2.517   5.565 -1.8403 -3.2810 -0.2546
   59MOL   C13710693   7.521   2.754   5.778 -0.4429 -0.5069  0.8262
   59MOL   C13810694   7.378   2.815   5.813  0.3294 -0.0986 -0.5724
   59MOL   C13910695   7.273   2.727   5.745 -0.0345 -0.4571 -0.2224
   59MOL   O14010696   7.227   2.741   5.635 -0.2283 -0.4738  0.2757
   59MOL   O14110697   7.224   2.640   5.835  0.2228  0.0369  0.0881
   59MOL   H14210698   7.539   2.776   5.673 -1.3861 -2.5999  0.2083
   59MOL   H14310699   7.597   2.818   5.824 -1.7850  1.1417  0.8022
   59MOL   H14410700   7.369   2.807   5.922  0.6028  0.6787 -0.4900
   59MOL   H14510701   7.168   2.573   5.798 -0.2456  1.1833 -1.3134
   59MOL   C14610702   7.363   2.967   5.777 -0.0506 -0.3366 -0.5963
   59MOL   C14710703   7.221   3.026   5.776 -0.1612 -0.0049  0.2729
   59MOL   C14810704   7.214   3.164   5.701 -0.2500 -0.3291 -0.0141
   59MOL   O14910705   7.191   3.179   5.576 -0.1525  0.0095 -0.1716
   59MOL   O15010706   7.282   3.266   5.763  0.3081 -0.4703  0.1108
   59MOL   H15110707   7.400   2.977   5.675 -0.6685 -1.4734 -0.9322
   59MOL   H15210708   7.432   3.027   5.837 -0.4606 -0.5038  0.0411
   59MOL   H15310709   7.154   2.967   5.713  0.9373  0.5227 -1.4224
   59MOL   H15410710   7.298   3.331   5.696  0.3821 -1.8834 -1.2499
   59MOL   C15510711   7.164   3.044   5.922 -0.3863 -0.4442  0.5170
   59MOL   C15610712   7.084   2.921   5.977 -0.4413 -0.1603 -0.5194
   59MOL   C15710713   6.968   2.877   5.884  0.3708  0.4696  0.0608
   59MOL   O15810714   6.913   2.948   5.807  0.1858 -0.2182  0.2529
   59MOL   O15910715   6.944   2.748   5.909 -0.0216 -0.4060  0.0605
   59MOL   H16010716   7.108   3.136   5.938 -0.0831 -0.2153  0.2630
   59MOL   H16110717   7.253   3.054   5.984 -0.9393  0.7945  1.1108
   59MOL   H16210718   7.156   2.840   5.995  0.8537  1.3265  1.2301
   59MOL   H16310719   6.874   2.711   5.857 -2.0114  1.2015  1.5161
   59MOL   C16410720   7.027   2.952   6.120 -0.7236 -0.8692  0.4893
   59MOL   C16510721   7.128   2.981   6.232 -0.2226  0.6138  0.4341
   59MOL   C16610722   7.219   2.857   6.270  0.0615 -0.3389  0.5464
   59MOL   O16710723   7.224   2.750   6.210 -0.0077 -0.2460  0.0746
   59MOL   O16810724   7.290   2.875   6.386 -0.0261  0.1338 -0.1120
   59MOL   H16910725   6.970   2.865   6.154 -2.9505  0.9056  1.4410
   59MOL   H17010726   6.959   3.037   6.117  0.2906 -0.0046  1.6514
   59MOL   H17110727   7.193   3.064   6.201  0.1135 -0.1012 -0.7893
   59MOL   H17210728   7.334   2.794   6.405  1.5017  1.2736  1.3888
   59MOL   C17310729   7.058   3.056   6.347 -0.5130  0.1963  0.4712
   59MOL   C17410730   7.144   3.162   6.417 -0.3290 -0.0291  0.0023
   59MOL   C17510731   7.087   3.198   6.550 -0.3851 -0.4281 -0.1791
   59MOL   O17610732   7.027   3.121   6.625  0.0303 -0.1512  0.1202
   59MOL   O17710733   7.114   3.325   6.579 -0.1800 -0.5901 -0.2716
   59MOL   H17810734   7.025   2.984   6.422  0.5675  0.9186  1.6598
   59MOL   H17910735   6.963   3.105   6.326  0.8213  2.4484 -0.4759
   59MOL   H18010736   7.243   3.118   6.425  0.7118  2.1084 -0.7271
   59MOL   H18110737   7.089   3.338   6.669  0.1479 -1.9027  0.0106
   59MOL   H18210738   7.157   3.252   6.356 -1.4450 -0.1480 -0.4243
   60MOL     C110739   3.800   4.384   6.007 -0.9007  0.2177  0.0328
   60MOL     C210740   3.680   4.478   6.005  0.7314  0.1571  0.7238
   60MOL     C310741   3.722   4.627   5.982  0.3470  0.0009  0.4496
   60MOL     O410742   3.817   4.679   6.036  0.1145  0.0238  0.3686
   60MOL     O510743   3.653   4.680   5.885 -0.4761 -0.3009 -0.2134
   60MOL     H610744   3.848   4.381   6.105 -0.7562  0.5893 -0.0255
   60MOL     H710745   3.762   4.287   5.976  1.7507 -0.3851 -1.4722
   60MOL     H810746   3.625   4.451   5.915 -0.2303 -1.3672  1.7527
   60MOL     H910747   3.679   4.770   5.872  2.8715 -1.1049  0.3430
   60MOL    H1010748   3.878   4.413   5.936  0.0071 -1.3868  0.3572
   60MOL    C1110749   3.592   4.471   6.134  0.3610  0.0307 -0.1890
   60MOL    C1210750   3.453   4.555   6.142 -0.0664  0.8729  0.0074
   60MOL    C1310751   3.396   4.562   6.290  0.0967 -0.0496 -0.0496
   60MOL    O1410752   3.282   4.517   6.322 -1.0257 -0.3716  0.3505
   60MOL    O1510753   3.485   4.629   6.377  0.1422  0.3770  0.1377
   60MOL    H1610754   3.651   4.502   6.221 -0.3756 -0.2256  0.4029
   60MOL    H1710755   3.586   4.366   6.163  2.8605 -0.3220 -0.7883
   60MOL    H1810756   3.470   4.658   6.108  1.9232  0.4454 -0.3495
   60MOL    H1910757   3.449   4.639   6.464 -1.0880  0.5575 -0.3715
   60MOL    C2010758   3.350   4.492   6.042  0.4079  0.5761  0.1406
   60MOL    C2110759   3.332   4.567   5.915  0.4585  1.2119 -0.0834
   60MOL    C2210760   3.263   4.705   5.927 -0.0255  0.3088 -0.1292
   60MOL    O2310761   3.200   4.740   6.028  0.2282 -0.1674 -0.0372
   60MOL    O2410762   3.277   4.782   5.823  0.8872 -0.2649 -0.2501
   60MOL    H2510763   3.257   4.476   6.097  0.3000  0.8718  0.0431
   60MOL    H2610764   3.378   4.390   6.016  0.5594  0.4359  0.8264
   60MOL    H2710765   3.431   4.591   5.878  1.3258 -0.1294  1.3103
   60MOL    H2810766   3.241   4.869   5.829  1.8459 -0.0233  2.7642
   60MOL    C2910767   3.256   4.478   5.822 -0.6641 -0.4371  0.6903
   60MOL    C3010768   3.343   4.358   5.756 -0.5867  0.0680 -0.2501
   60MOL    C3110769   3.419   4.401   5.636  0.4173  0.6588  0.9858
   60MOL    O3210770   3.405   4.357   5.520  0.9584 -0.2691  0.2130
   60MOL    O3310771   3.512   4.496   5.653  0.4234 -0.8060  0.1153
   60MOL    H3410772   3.224   4.534   5.734 -3.3279 -0.7314  1.4576
   60MOL    H3510773   3.173   4.429   5.872 -1.3758  2.5460  2.4862
   60MOL    H3610774   3.422   4.334   5.827 -0.7234  0.9572  0.2023
   60MOL    H3710775   3.545   4.530   5.572 -0.9086 -0.3557 -0.2511
   60MOL    C3810776   3.241   4.233   5.730 -0.2892 -0.1677  0.6623
   60MOL    C3910777   3.259   4.117   5.829 -1.7379 -0.1960 -0.4491
   60MOL    C4010778   3.356   3.999   5.784 -0.1744 -0.8787  0.1436
   60MOL    O4110779   3.332   3.917   5.697  0.1727  0.3104 -0.2122
   60MOL    O4210780   3.476   4.016   5.851 -0.1514 -0.1414 -0.8026
   60MOL    H4310781   3.271   4.196   5.632  1.0076  0.5083  0.7939
   60MOL    H4410782   3.139   4.272   5.735  0.0402  0.8551 -0.2558
   60MOL    H4510783   3.303   4.154   5.922  1.6717  0.7063 -2.3284
   60MOL    H4610784   3.531   3.951   5.810  2.5313 -0.1553  2.5880
   60MOL    C4710785   3.129   4.051   5.869 -0.1513 -0.2008 -0.1661
   60MOL    C4810786   3.015   4.024   5.767  0.3977 -0.2203 -0.1996
   60MOL    C4910787   2.907   4.127   5.757 -0.3374  0.0471  0.3769
   60MOL    O5010788   2.878   4.204   5.848  0.0715 -0.4989 -0.7109
   60MOL    O5110789   2.854   4.123   5.629  0.0812 -0.4078 -0.2963
   60MOL    H5210790   3.092   4.119   5.946 -0.0080 -0.1966 -0.1003
   60MOL    H5310791   3.158   3.961   5.924  0.1554 -0.1962 -0.3169
   60MOL    H5410792   3.067   4.024   5.671  0.8501 -0.0646  0.0436
   60MOL    H5510793   2.772   4.168   5.643  0.0767 -0.4301 -0.2510
   60MOL    C5610794   2.951   3.883   5.781 -0.5482  0.6699 -0.0459
   60MOL    C5710795   2.853   3.863   5.910  0.3210 -0.2807  0.5663
   60MOL    C5810796   2.941   3.823   6.029 -0.2773  0.0264 -0.2954
   60MOL    O5910797   2.915   3.864   6.142 -0.2581  0.1764  0.0913
   60MOL    O6010798   3.015   3.711   6.007 -0.3001 -0.3556  0.4110
   60MOL    H6110799   3.034   3.813   5.785  2.1950  3.8049 -0.0970
   60MOL    H6210800   2.901   3.860   5.686 -0.3381  1.0460 -0.2497
   60MOL    H6310801   2.806   3.956   5.944 -1.3379 -0.2582 -1.6403
   60MOL    H6410802   3.063   3.698   6.087 -2.6837 -0.0417  1.9588
   60MOL    C6510803   2.745   3.752   5.890  0.5275 -0.2199  0.2038
   60MOL    C6610804   2.606   3.790   5.823 -0.3116 -0.0765 -0.0497
   60MOL    C6710805   2.621   3.808   5.670  0.0178 -0.1545  0.5152
   60MOL    O6810806   2.607   3.916   5.612  0.0331 -0.3113 -0.5036
   60MOL    O6910807   2.652   3.690   5.608  0.4854 -0.2137 -0.0265
   60MOL    H7010808   2.717   3.708   5.986  2.9104  2.0279  2.0432
   60MOL    H7110809   2.799   3.684   5.824  2.0218  1.5901 -0.4922
   60MOL    H7210810   2.545   3.702   5.843  0.6810 -0.8054 -0.1872
   60MOL    H7310811   2.648   3.703   5.515 -0.0264 -1.5095 -0.1873
   60MOL    C7410812   2.528   3.912   5.885 -0.1073  0.1723  0.5146
   60MOL    C7510813   2.463   3.879   6.020 -0.0012  0.4204 -0.0995
   60MOL    C7610814   2.337   3.799   6.003  0.1385  0.7202 -0.1596
   60MOL    O7710815   2.223   3.849   5.999 -0.8318 -0.2101  0.6945
   60MOL    O7810816   2.343   3.666   5.980  0.2732  0.4149 -0.0573
   60MOL    H7910817   2.448   3.939   5.816 -0.4735  0.9785  1.2564
   60MOL    H8010818   2.582   4.006   5.893 -0.7557  0.6558 -0.6731
   60MOL    H8110819   2.536   3.814   6.071  0.9917  1.5508 -0.0530
   60MOL    H8210820   2.268   3.614   5.955  0.1932 -0.5838  2.1294
   60MOL    C8310821   2.441   4.004   6.105 -0.0222 -0.0923 -0.3357
   60MOL    C8410822   2.352   3.996   6.235 -0.3676  0.3815  0.0385
   60MOL    C8510823   2.345   4.127   6.310  0.2056  0.6370  0.7397
   60MOL    O8610824   2.412   4.224   6.296 -0.4505 -0.0009  0.1718
   60MOL    O8710825   2.251   4.129   6.409 -0.4069  0.0065 -0.3272
   60MOL    H8810826   2.408   4.091   6.049 -0.9822 -1.0717 -1.3127
   60MOL    H8910827   2.538   4.038   6.143 -0.0752  0.5170 -0.7363
   60MOL    H9010828   2.250   3.973   6.205 -0.5784  1.4025 -0.0305
   60MOL    H9110829   2.272   4.199   6.469 -1.8380  0.2470 -0.0990
   60MOL    C9210830   2.391   3.885   6.338  0.6258  0.2731  0.5242
   60MOL    C9310831   2.499   3.908   6.443  0.1907  0.6831 -0.1068
   60MOL    C9410832   2.638   3.942   6.377 -0.1981  0.8256  0.0583
   60MOL    O9510833   2.705   4.036   6.413  0.4938 -0.6686  0.0853
   60MOL    O9610834   2.671   3.856   6.278  0.6446  0.2482  0.1765
   60MOL    H9710835   2.420   3.791   6.290 -1.5536 -0.5404  0.7718
   60MOL    H9810836   2.305   3.866   6.402 -0.3300  1.7062 -0.3181
   60MOL    H9910837   2.462   3.994   6.499  0.0944  1.9340 -2.0449
   60MOL   H10010838   2.758   3.878   6.247  1.1321 -0.3001  1.1117
   60MOL   C10110839   2.523   3.785   6.530  0.5666  0.4616 -0.9524
   60MOL   C10210840   2.506   3.816   6.681 -0.4465  0.4596 -0.1501
   60MOL   C10310841   2.620   3.889   6.743  1.1765 -0.3279 -0.7787
   60MOL   O10410842   2.612   3.995   6.802 -0.3074  0.2708 -0.5069
   60MOL   O10510843   2.736   3.823   6.712 -0.3984 -0.9392 -0.9401
   60MOL   H10610844   2.617   3.732   6.511  0.8897  0.6691  0.0308
   60MOL   H10710845   2.450   3.705   6.520  0.6312  0.2452  0.2496
   60MOL   H10810846   2.420   3.883   6.684 -0.6366  0.1796  1.5828
   60MOL   H10910847   2.813   3.874   6.734 -0.7452 -0.5154 -0.7130
   60MOL   C11010848   2.472   3.688   6.770  0.6875  0.1617  0.0139
   60MOL   C11110849   2.445   3.701   6.922 -0.6657  0.0493 -0.6810
   60MOL   C11210850   2.446   3.558   6.977 -0.0610 -0.0766 -0.2947
   60MOL   O11310851   2.350   3.494   7.007 -0.0600  0.4447 -0.1513
   60MOL   O11410852   2.575   3.516   6.986 -0.5735  0.0350  0.0072
   60MOL   H11510853   2.565   3.634   6.752  0.2082 -1.3140  1.8802
   60MOL   H11610854   2.413   3.610   6.722  1.3077 -1.5746  1.9770
   60MOL   H11710855   2.527   3.762   6.959 -0.8747 -0.2426  0.2696
   60MOL   H11810856   2.592   3.435   7.032 -0.2582 -0.4205 -0.8866
   60MOL   C11910857   2.307   3.770   6.940  0.2725 -0.6426  0.0716
   60MOL   C12010858   2.253   3.800   7.090  0.0954  0.4798  0.1602
   60MOL   C12110859   2.108   3.842   7.083  0.6209 -0.8775  0.3847
   60MOL   O12210860   2.026   3.791   7.156  0.1897 -0.0441  0.4631
   60MOL   O12310861   2.082   3.945   7.000 -0.2614  0.0377  0.4456
   60MOL   H12410862   2.230   3.710   6.890 -2.1841  1.8271  0.7427
   60MOL   H12510863   2.312   3.865   6.887 -0.1808  1.0709  2.9744
   60MOL   H12610864   2.251   3.704   7.142  1.7068  0.1331 -0.3853
   60MOL   H12710865   1.989   3.960   6.994 -0.6827 -2.2573  0.7811
   60MOL   C12810866   2.336   3.910   7.167  0.7665 -0.2882  0.3788
   60MOL   C12910867   2.472   3.860   7.234 -0.6176 -0.0300 -0.3363
   60MOL   C13010868   2.444   3.786   7.362  0.3907  0.2884 -0.4699
   60MOL   O13110869   2.469   3.835   7.470  0.0130  0.0040  0.4990
   60MOL   O13210870   2.388   3.663   7.344 -0.1892  0.4722  0.1008
   60MOL   H13310871   2.268   3.948   7.243  1.5769 -0.6290  1.2902
   60MOL   H13410872   2.345   3.992   7.095 -2.0266  1.3002  1.7744
   60MOL   H13510873   2.531   3.800   7.165  1.2957  1.2444  0.1466
   60MOL   H13610874   2.344   3.620   7.416 -0.1440  0.2888  0.0208
   60MOL   C13710875   2.561   3.986   7.264 -0.3892 -1.0271  0.0199
   60MOL   C13810876   2.708   3.977   7.210  0.0693  0.8928  0.2099
   60MOL   C13910877   2.791   3.863   7.274 -0.0906 -0.0106  0.2438
   60MOL   O14010878   2.834   3.771   7.201 -0.4845 -0.5770  0.0098
   60MOL   O14110879   2.800   3.872   7.406  0.8499 -0.1730 -0.1263
   60MOL   H14210880   2.555   4.022   7.366 -1.0292  2.2438 -1.1089
   60MOL   H14310881   2.516   4.071   7.213  2.1755 -1.0022 -2.2977
   60MOL   H14410882   2.698   3.940   7.108 -1.7443 -1.0420  1.0671
   60MOL   H14510883   2.841   3.794   7.442  0.3567 -0.3601  0.0244
   60MOL   C14610884   2.781   4.117   7.213  0.7339 -0.2864  0.2718
   60MOL   C14710885   2.710   4.233   7.143 -0.1006  0.2516 -0.3537
   60MOL   C14810886   2.805   4.330   7.073 -0.4311 -0.1019 -0.3035
   60MOL   O14910887   2.921   4.333   7.098  0.1598  0.0427  0.5570
   60MOL   O15010888   2.743   4.415   6.982 -0.1507 -0.3947 -0.0620
   60MOL   H15110889   2.882   4.113   7.173  1.8103  0.6963  2.7845
   60MOL   H15210890   2.808   4.124   7.319  0.7707 -1.9214  0.3796
   60MOL   H15310891   2.644   4.192   7.067  0.0706  2.0686 -1.5301
   60MOL   H15410892   2.798   4.474   6.933 -0.9524  0.4418  0.0198
   60MOL   C15510893   2.624   4.312   7.247 -0.6633 -0.7290 -0.7883
   60MOL   C15610894   2.497   4.384   7.190 -0.1825 -0.2103  0.0006
   60MOL   C15710895   2.517   4.531   7.147 -0.3024 -0.0194 -0.0633
   60MOL   O15810896   2.605   4.605   7.191 -0.2739  0.5211 -0.6000
   60MOL   O15910897   2.424   4.570   7.058  0.4046 -0.0552  0.9165
   60MOL   H16010898   2.688   4.387   7.292 -1.1825 -0.0027 -1.2369
   60MOL   H16110899   2.591   4.240   7.322  2.0850 -0.5052  0.6719
   60MOL   H16210900   2.476   4.330   7.097  0.8266  1.3682 -1.1702
   60MOL   H16310901   2.438   4.654   7.017 -2.1433 -0.0682 -0.1090
   60MOL   C16410902   2.370   4.366   7.278 -0.5142 -0.4803 -0.1691
   60MOL   C16510903   2.395   4.408   7.426 -0.7782 -0.8064 -0.2874
   60MOL   C16610904   2.408   4.292   7.528 -0.3856 -0.3037  0.5944
   60MOL   O16710905   2.472   4.307   7.627  0.8412  0.2671 -0.5551
   60MOL   O16810906   2.311   4.199   7.504  0.0067 -0.0181  0.1535
   60MOL   H16910907   2.344   4.260   7.269  1.4975 -0.9462 -0.7522
   60MOL   H17010908   2.284   4.420   7.238 -1.0698 -0.9414  0.3792
   60MOL   H17110909   2.490   4.462   7.432  0.5428 -3.2890  2.5525
   60MOL   H17210910   2.322   4.136   7.574 -2.9384 -2.6209 -1.5775
   60MOL   C17310911   2.289   4.515   7.469  0.0556 -1.1729 -0.1846
   60MOL   C17410912   2.326   4.624   7.572 -0.3007  0.1349 -0.2293
   60MOL   C17510913   2.336   4.588   7.718  0.3680 -0.3534  0.3282
   60MOL   O17610914   2.258   4.513   7.778 -1.0829  0.1309  1.2581
   60MOL   O17710915   2.440   4.652   7.781 -0.4642  1.2732  0.3316
   60MOL   H17810916   2.196   4.462   7.489 -0.5749 -0.9552 -2.3445
   60MOL   H17910917   2.258   4.574   7.383  1.4209 -0.1616  0.0099
   60MOL   H18010918   2.419   4.668   7.534 -0.1700 -0.6170 -0.7875
   60MOL   H18110919   2.437   4.617   0.016 -0.0372  1.6481  0.4979
   60MOL   H18210920   2.260   4.710   7.566 -1.1013 -0.5066 -0.5796
   61MOL     C110921   6.774   2.971   0.726 -0.0050 -0.3014  0.1002
   61MOL     C210922   6.777   2.992   0.875  0.0231 -0.3857  0.0609
   61MOL     C310923   6.671   3.093   0.908  0.2536  0.4490 -0.4471
   61MOL     O410924   6.681   3.211   0.948  0.3622  0.0968 -0.2712
   61MOL     O510925   6.546   3.036   0.890 -0.2070  0.1658 -0.2427
   61MOL     H610926   6.802   3.062   0.672  0.8444 -0.1768  0.7416
   61MOL     H710927   6.841   2.889   0.700 -0.6108 -0.5482 -0.7099
   61MOL     H810928   6.743   2.902   0.925 -2.5431  0.7611  0.4698
   61MOL     H910929   6.468   3.086   0.908 -1.3140 -1.7286  0.3863
   61MOL    H1010930   6.671   2.943   0.704 -0.1495 -0.2915  0.7625
   61MOL    C1110931   6.919   3.040   0.921  0.5632 -0.2175 -0.5484
   61MOL    C1210932   6.963   3.002   1.068 -1.3350 -0.1139 -0.6253
   61MOL    C1310933   7.107   3.050   1.106 -0.2824 -0.0329  0.3538
   61MOL    O1410934   7.190   3.082   1.024  0.1352  0.3485  0.3096
   61MOL    O1510935   7.136   3.022   1.235 -0.5865 -0.7474 -0.3621
   61MOL    H1610936   6.928   3.147   0.905 -0.6543 -0.1316 -0.7160
   61MOL    H1710937   6.990   2.997   0.850  2.1579  0.1210  0.8134
   61MOL    H1810938   6.899   3.063   1.131  0.3607  0.8938  0.1610
   61MOL    H1910939   7.230   3.024   1.247 -0.6521  2.1249 -0.0565
   61MOL    C2010940   6.944   2.850   1.105  0.1400 -0.0877 -0.0458
   61MOL    C2110941   6.994   2.737   1.008  0.6020  0.6208  0.4032
   61MOL    C2210942   6.883   2.632   0.993 -0.4850 -0.0741 -0.4857
   61MOL    O2310943   6.855   2.551   1.088  0.6971 -0.2134 -0.0311
   61MOL    O2410944   6.808   2.651   0.875  0.5763  0.1146 -0.4354
   61MOL    H2510945   6.839   2.828   1.124 -0.1325  1.7161  0.6350
   61MOL    H2610946   6.998   2.825   1.197  1.0428  2.0298  0.0308
   61MOL    H2710947   6.986   2.780   0.908 -2.0657 -1.7530 -0.4626
   61MOL    H2810948   6.744   2.583   0.863  0.9381 -0.4692  0.8337
   61MOL    C2910949   7.140   2.681   1.016 -0.0468  0.2920 -0.2072
   61MOL    C3010950   7.226   2.692   0.890 -0.2152  0.8170 -0.0553
   61MOL    C3110951   7.178   2.582   0.781  0.2796 -0.2993 -0.9874
   61MOL    O3210952   7.089   2.501   0.804  0.4027 -0.5649  0.1188
   61MOL    O3310953   7.246   2.596   0.669 -0.3102  0.1431 -0.1117
   61MOL    H3410954   7.132   2.583   1.062  0.1001 -0.0940 -1.0100
   61MOL    H3510955   7.201   2.718   1.099  1.7981 -1.3290 -0.8180
   61MOL    H3610956   7.208   2.785   0.837  0.9756  0.1788 -1.6149
   61MOL    H3710957   7.221   2.522   0.616 -1.8585  1.4945 -1.3394
   61MOL    C3810958   7.371   2.684   0.937  0.1066  0.1345  0.6039
   61MOL    C3910959   7.424   2.828   0.980 -0.1219  0.3580 -0.0434
   61MOL    C4010960   7.459   2.914   0.855  0.1341 -0.1904  0.6087
   61MOL    O4110961   7.563   2.885   0.790  0.0691 -0.8242 -0.0556
   61MOL    O4210962   7.368   3.009   0.823  0.1861 -0.9874 -0.2076
   61MOL    H4310963   7.428   2.650   0.851 -2.5792 -1.2587 -0.6798
   61MOL    H4410964   7.381   2.610   1.017 -2.9060  0.7776  1.6431
   61MOL    H4510965   7.363   2.879   1.055 -0.2552  0.0350  0.0709
   61MOL    H4610966   7.309   3.020   0.896 -0.5202 -0.5175 -0.8451
   61MOL    C4710967   7.550   2.795   1.068 -0.5021  0.4595  0.1483
   61MOL    C4810968   7.587   2.911   1.171 -0.4789  0.3811 -0.5232
   61MOL    C4910969   7.495   2.913   1.288 -0.3470  0.0143  0.0052
   61MOL    O5010970   7.397   2.984   1.303  0.2556  0.2217 -0.6200
   61MOL    O5110971   7.519   2.809   1.379 -1.3296 -0.1290  0.1430
   61MOL    H5210972   7.633   2.768   1.003 -1.0037 -0.5354 -0.0904
   61MOL    H5310973   7.534   2.698   1.115  1.3473  0.0222 -0.0799
   61MOL    H5410974   7.685   2.890   1.215 -0.4898  1.0181 -0.1958
   61MOL    H5510975   7.449   2.829   1.440 -0.6848  0.3191  0.7519
   61MOL    C5610976   7.596   3.046   1.099  0.6119 -0.3654  0.8924
   61MOL    C5710977   7.674   3.165   1.169  0.3246  0.0239  0.3241
   61MOL    C5810978   7.622   3.201   1.308 -0.1150  0.0872 -0.4582
   61MOL    O5910979   7.682   3.174   1.411  1.0005 -0.0584 -0.1868
   61MOL    O6010980   7.508   3.270   1.308  0.6367  0.4687 -0.1888
   61MOL    H6110981   7.503   3.078   1.052 -0.7062  1.2029  4.3395
   61MOL    H6210982   7.650   3.013   1.011 -0.8480  1.0982 -0.5878
   61MOL    H6310983   7.777   3.140   1.194  0.5750 -1.1206 -1.7064
   61MOL    H6410984   7.486   3.304   1.393  1.9087  3.1910 -0.8879
   61MOL    C6510985   7.676   3.283   1.075 -0.3561 -0.4630  0.8937
   61MOL    C6610986   7.793   3.395   1.084 -0.3368  0.0966  0.4764
   61MOL    C6710987   0.079   3.318   1.087  0.0183 -0.3392 -0.1811
   61MOL    O6810988   0.136   3.287   1.197  0.4195 -0.0210  0.5626
   61MOL    O6910989   0.119   3.282   0.962  0.0560  0.5223  0.2662
   61MOL    H7010990   7.575   3.324   1.078 -0.8952 -1.6706 -0.2344
   61MOL    H7110991   7.681   3.246   0.973  2.5701 -1.2939  1.2920
   61MOL    H7210992   7.795   3.444   0.987  1.8265  0.1055  0.5106
   61MOL    H7310993   0.171   3.203   0.972 -0.9148 -0.2416 -0.6937
   61MOL    C7410994   7.781   3.501   1.199  0.5328  0.6537  0.1579
   61MOL    C7510995   7.743   3.637   1.135  0.3923  0.1360  0.1307
   61MOL    C7610996   0.007   3.706   1.062 -0.5591  0.2290 -0.1098
   61MOL    O7710997   0.106   3.643   1.026  0.8380  0.1450  0.2177
   61MOL    O7810998   7.852   3.836   1.034  0.6556 -0.2792  0.0104
   61MOL    H7910999   0.020   3.504   1.257 -0.2152  0.9111  1.3273
   61MOL    H8011000   7.702   3.466   1.266  1.0452  1.6772  1.3075
   61MOL    H8111001   7.663   3.614   1.065  1.3076  0.5088 -1.0497
   61MOL    H8211002   0.076   3.861   0.985  0.2711 -0.6289 -0.7847
   61MOL    C8311003   7.678   3.719   1.255  0.0447  0.3458  0.2606
   61MOL    C8411004   7.568   3.825   1.211  0.5414  0.0262  1.2980
   61MOL    C8511005   7.615   3.967   1.267  0.5375  0.7656  0.5052
   61MOL    O8611006   7.613   3.981   1.388  0.0676  0.2177  0.4252
   61MOL    O8711007   7.651   4.047   1.167 -0.3147  0.3719  0.1979
   61MOL    H8811008   7.758   3.760   1.316  1.1660 -1.9338  0.3706
   61MOL    H8911009   7.628   3.654   1.327 -0.7487 -2.2243 -2.5262
   61MOL    H9011010   7.566   3.830   1.102  0.1450 -0.0263  1.3038
   61MOL    H9111011   7.704   4.118   1.202 -1.1026  1.3347 -0.5357
   61MOL    C9211012   7.418   3.772   1.248  0.4200  0.1297  0.3619
   61MOL    C9311013   7.305   3.862   1.198 -1.0193  0.0333 -0.3312
   61MOL    C9411014   7.213   3.899   1.316 -0.7410  0.2897  0.0170
   61MOL    O9511015   7.094   3.874   1.327 -0.3975  0.3619  0.2982
   61MOL    O9611016   7.291   3.959   1.418  0.2492 -0.0145  0.0358
   61MOL    H9711017   7.409   3.743   1.353  0.6010 -0.6590  0.1636
   61MOL    H9811018   7.395   3.676   1.202 -0.0338  1.4343 -2.2292
   61MOL    H9911019   7.347   3.958   1.168 -0.5159  0.1497  0.7228
   61MOL   H10011020   7.242   3.964   1.499  1.4497 -0.5981  0.8283
   61MOL   C10111021   7.226   3.791   1.095  0.3169 -0.2884  0.2664
   61MOL   C10211022   7.125   3.878   1.011  0.1058  0.2351  0.1367
   61MOL   C10311023   7.046   3.784   0.916  0.0322 -0.1008  0.7573
   61MOL   O10411024   7.100   3.699   0.847 -0.2194  0.0309  0.1178
   61MOL   O10511025   6.911   3.794   0.937 -0.4213 -0.0219 -0.3587
   61MOL   H10611026   7.171   3.710   1.144  2.9428 -2.3266 -0.0499
   61MOL   H10711027   7.296   3.749   1.023  0.7867  0.4356  0.2953
   61MOL   H10811028   7.055   3.929   1.076  0.9274  0.0147  1.2029
   61MOL   H10911029   6.872   3.721   0.890  1.6728 -0.9920 -0.6337
   61MOL   C11011030   7.176   3.995   0.930 -0.5069 -0.6638  0.0210
   61MOL   C11111031   7.285   3.966   0.818 -0.2721 -0.4899 -0.0550
   61MOL   C11211032   7.428   3.945   0.871 -0.2588 -0.3288 -0.0032
   61MOL   O11311033   7.490   3.849   0.835  0.0843 -0.3450 -0.2168
   61MOL   O11411034   7.472   4.038   0.955  0.4764  0.5647  0.1186
   61MOL   H11511035   7.222   4.070   0.995 -1.1703 -0.6724  0.5049
   61MOL   H11611036   7.093   4.040   0.877  0.5121  0.6390 -0.4846
   61MOL   H11711037   7.266   3.867   0.776  1.1295 -0.5318 -0.6110
   61MOL   H11811038   7.564   4.025   0.974 -0.1662 -1.8634  1.7214
   61MOL   C11911039   7.277   4.071   0.703 -0.2874  0.1544  0.0949
   61MOL   C12011040   7.323   4.026   0.555  0.1207 -0.0889 -0.5340
   61MOL   C12111041   7.407   4.131   0.476  0.1876  0.0378 -0.5919
   61MOL   O12211042   7.388   4.157   0.356  0.7677 -0.0330  0.5260
   61MOL   O12311043   7.493   4.195   0.553 -0.3685  0.3389 -0.0046
   61MOL   H12411044   7.331   4.162   0.729 -0.7367 -0.2573  2.5356
   61MOL   H12511045   7.172   4.099   0.688 -0.1487  0.7463  0.2342
   61MOL   H12611046   7.406   3.956   0.562  0.0118 -0.2096 -0.4448
   61MOL   H12711047   7.539   4.266   0.509 -0.5077 -0.1664 -0.9836
   61MOL   C12811048   7.205   3.981   0.469 -0.2310  0.3433 -0.6070
   61MOL   C12911049   7.115   3.872   0.511  0.4740  0.3887  0.3197
   61MOL   C13011050   7.192   3.740   0.492  0.2531 -1.2161 -0.1079
   61MOL   O13111051   7.255   3.715   0.392 -0.0243  0.1525  0.2029
   61MOL   O13211052   7.180   3.656   0.595  0.1872 -0.2171  0.2036
   61MOL   H13311053   7.231   3.954   0.367  1.2426 -1.7940  0.3132
   61MOL   H13411054   7.147   4.070   0.445 -0.9165 -0.2937 -1.3396
   61MOL   H13511055   7.076   3.892   0.611  0.2394  1.3411  0.0352
   61MOL   H13611056   7.156   3.690   0.680  0.8100 -0.8410  0.6475
   61MOL   C13711057   6.991   3.870   0.417 -0.0379  0.1468 -0.5536
   61MOL   C13811058   6.868   3.974   0.445 -0.2429  0.5154  0.4573
   61MOL   C13911059   6.891   4.123   0.435 -0.4925  0.1894 -0.1610
   61MOL   O14011060   6.912   4.184   0.537  0.1866 -0.1023 -0.4228
   61MOL   O14111061   6.894   4.173   0.307  0.4926 -0.1515  0.0089
   61MOL   H14211062   6.942   3.773   0.426  0.1772  0.0770 -0.1120
   61MOL   H14311063   7.024   3.885   0.314  1.7567  1.8295  0.2334
   61MOL   H14411064   6.803   3.956   0.360  2.1572 -0.7543 -1.1887
   61MOL   H14511065   6.908   4.266   0.297 -2.9110  0.3761 -0.4244
   61MOL   C14611066   6.799   3.926   0.575  0.0285 -0.5081 -0.3000
   61MOL   C14711067   6.651   3.976   0.593 -0.3853 -0.1420  0.5713
   61MOL   C14811068   6.603   3.960   0.738  0.1199 -0.2233 -0.5176
   61MOL   O14911069   6.507   3.893   0.767  0.4121 -0.4973 -0.1560
   61MOL   O15011070   6.690   4.016   0.828  0.0724 -0.4457  0.2167
   61MOL   H15111071   6.858   3.969   0.655 -0.9020  3.8157 -1.7665
   61MOL   H15211072   6.817   3.819   0.573 -0.5231 -0.5883 -1.5123
   61MOL   H15311073   6.652   4.085   0.586  1.1803 -0.1507  0.4492
   61MOL   H15411074   6.667   4.007   0.919 -1.2144 -2.6212 -0.2762
   61MOL   C15511075   6.546   3.935   0.483 -0.2176  0.7325  0.2809
   61MOL   C15611076   6.460   4.051   0.430 -0.4395 -0.6568  0.0158
   61MOL   C15711077   6.350   4.083   0.534 -0.3405  0.3334  0.7131
   61MOL   O15811078   6.355   4.185   0.601  0.6663 -0.3893  0.1120
   61MOL   O15911079   6.278   3.972   0.574 -0.3505 -0.1509 -0.4806
   61MOL   H16011080   6.483   3.849   0.503  1.2272 -0.8909 -1.9339
   61MOL   H16111081   6.604   3.899   0.398  1.9314  1.0365  1.5804
   61MOL   H16211082   6.534   4.132   0.427  1.1923 -2.1024  0.1759
   61MOL   H16311083   6.215   3.990   0.642 -2.5650 -2.3041 -1.8806
   61MOL   C16411084   6.401   4.031   0.291 -0.5575 -0.5835  0.2170
   61MOL   C16511085   6.367   4.162   0.209  0.1153  1.0106  0.0534
   61MOL   C16611086   6.304   4.104   0.082  0.0427  0.2713 -0.2959
   61MOL   O16711087   6.248   3.993   0.080  0.3532 -0.9588  0.2180
   61MOL   O16811088   6.306   4.187   7.828  0.2548 -0.0041 -0.5246
   61MOL   H16911089   6.312   3.968   0.302 -0.6982 -0.6481 -1.1853
   61MOL   H17011090   6.477   3.968   0.243 -0.0562 -1.7167  2.4367
   61MOL   H17111091   6.293   4.227   0.255 -1.4864  0.2525 -1.4096
   61MOL   H17211092   6.272   4.144   7.751  0.7102 -1.3790  0.0423
   61MOL   C17311093   6.492   4.252   0.171  0.2388  0.4119  0.0396
   61MOL   C17411094   6.600   4.184   0.087 -0.5076  0.1162 -0.2974
   61MOL   C17511095   6.692   4.276   0.020  0.3876  0.0102  0.3827
   61MOL   O17611096   6.762   4.363   0.077 -0.3273 -1.1953 -0.4231
   61MOL   O17711097   6.677   4.264   7.738 -0.7516  0.0741  0.1108
   61MOL   H17811098   6.530   4.296   0.263  1.2880  0.9240 -0.6394
   61MOL   H17911099   6.450   4.335   0.115  0.3480 -1.1286 -2.4015
   61MOL   H18011100   6.665   4.116   0.142 -0.9355  0.9040  1.2158
   61MOL   H18111101   6.727   4.331   7.695 -2.1726  0.6666 -0.6591
   61MOL   H18211102   6.564   4.124   0.004 -0.5098  1.2930 -1.1571
   62MOL     C111103   2.325   1.142   5.263 -0.0906  1.0098  0.4183
   62MOL     C211104   2.412   1.251   5.331  0.0904 -0.4113  0.0131
   62MOL     C311105   2.329   1.333   5.424 -0.6747 -0.4086 -0.2005
   62MOL     O411106   2.211   1.358   5.406  0.3875  0.5742 -0.3224
   62MOL     O511107   2.393   1.372   5.538  0.3080 -0.1953  0.1234
   62MOL     H611108   2.324   1.049   5.319 -1.0666  1.0422  0.4525
   62MOL     H711109   2.220   1.167   5.246 -0.5329 -1.8991 -1.4455
   62MOL     H811110   2.499   1.208   5.380  1.0500  0.8301 -0.5728
   62MOL     H911111   2.335   1.409   5.603  0.0755 -0.1976 -0.0801
   62MOL    H1011112   2.357   1.112   5.163 -1.0240  0.4808  0.2717
   62MOL    C1111113   2.482   1.340   5.220 -0.1830  0.3763 -0.1848
   62MOL    C1211114   2.603   1.446   5.262  0.2335  0.0927 -0.1155
   62MOL    C1311115   2.559   1.566   5.335  0.1605 -0.4833  0.4169
   62MOL    O1411116   2.633   1.624   5.411 -0.0384 -0.0584 -0.3371
   62MOL    O1511117   2.438   1.603   5.312 -0.2185  0.0812 -0.5614
   62MOL    H1611118   2.403   1.389   5.162 -0.8682 -0.2916  0.1796
   62MOL    H1711119   2.507   1.270   5.140  0.1993  1.8232 -1.3640
   62MOL    H1811120   2.669   1.381   5.318  0.2624 -0.3141 -0.6170
   62MOL    H1911121   2.432   1.690   5.348  1.4203  1.1450 -2.7588
   62MOL    C2011122   2.686   1.494   5.140 -0.2533  0.6356 -0.2801
   62MOL    C2111123   2.610   1.560   5.016  0.9409  0.2912 -0.0503
   62MOL    C2211124   2.588   1.460   4.900  0.3047  0.2635 -0.2777
   62MOL    O2311125   2.629   1.344   4.894  0.2301  0.0094 -1.0526
   62MOL    O2411126   2.509   1.520   4.805 -0.4747 -0.6698  0.0887
   62MOL    H2511127   2.765   1.430   5.102  2.2956  2.7419  1.2932
   62MOL    H2611128   2.763   1.564   5.172  0.5801  0.6775 -2.3405
   62MOL    H2711129   2.513   1.593   5.053 -0.1549 -2.8492 -0.0176
   62MOL    H2811130   2.500   1.466   4.728 -1.3127 -0.4712  0.0477
   62MOL    C2911131   2.687   1.688   4.968  0.4034  0.7502 -0.8770
   62MOL    C3011132   2.658   1.811   5.051 -0.2292 -0.1898  0.8060
   62MOL    C3111133   2.509   1.866   5.040  0.2847  1.0745 -0.1315
   62MOL    O3211134   2.426   1.809   4.967 -0.0190  0.4544 -0.7457
   62MOL    O3311135   2.472   1.980   5.112 -0.6797 -0.0602  0.1725
   62MOL    H3411136   2.665   1.725   4.868 -0.6777  0.4764 -0.7433
   62MOL    H3511137   2.795   1.671   4.963  0.3593 -0.3571  1.3426
   62MOL    H3611138   2.659   1.783   5.156 -2.3402 -1.2382  0.5846
   62MOL    H3711139   2.380   1.999   5.112 -1.0842 -1.7970 -1.8783
   62MOL    C3811140   2.761   1.925   5.020 -0.6892 -0.3627 -0.1724
   62MOL    C3911141   2.908   1.908   5.058 -0.0987 -0.2298  0.2887
   62MOL    C4011142   2.947   2.016   5.161 -1.1276  0.4793 -0.2062
   62MOL    O4111143   2.974   2.138   5.137 -0.1453 -0.0718 -0.3354
   62MOL    O4211144   2.949   1.962   5.284 -0.5519  0.1145  0.1632
   62MOL    H4311145   2.719   2.011   5.072 -1.3685 -0.5974 -0.3243
   62MOL    H4411146   2.740   1.952   4.916 -1.9031  0.2101  0.2103
   62MOL    H4511147   2.922   1.808   5.097 -1.2214 -0.7965 -0.7211
   62MOL    H4611148   2.981   2.024   5.348  0.7053 -1.0636  0.7018
   62MOL    C4711149   2.998   1.915   4.932 -0.0659  0.1935  0.1917
   62MOL    C4811150   3.147   1.897   4.955  0.4733  0.0535  0.0022
   62MOL    C4911151   3.170   1.763   5.021 -0.2994  0.1250  0.1897
   62MOL    O5011152   3.241   1.742   5.122  0.0115 -0.4223 -0.5474
   62MOL    O5111153   3.103   1.662   4.964 -0.0601 -0.1934 -0.0548
   62MOL    H5211154   2.995   2.009   4.877 -1.5488  1.0742  1.7125
   62MOL    H5311155   2.965   1.835   4.867  0.9450  1.3488 -1.7870
   62MOL    H5411156   3.192   1.886   4.856 -2.7247 -0.8178 -1.4221
   62MOL    H5511157   3.120   1.589   5.022  0.9779 -0.3362 -0.5391
   62MOL    C5611158   3.222   2.022   5.022 -0.0055  0.7712  0.6210
   62MOL    C5711159   3.372   2.051   4.990  0.2500 -0.9155  0.6432
   62MOL    C5811160   3.415   2.174   5.077 -0.0332 -0.0780 -0.6045
   62MOL    O5911161   3.350   2.225   5.164 -0.0123 -0.2753 -0.0453
   62MOL    O6011162   3.533   2.233   5.038  0.1996 -0.0157  0.5564
   62MOL    H6111163   3.224   1.994   5.127  0.6941 -2.2237 -0.1416
   62MOL    H6211164   3.167   2.115   5.010  0.0930  0.7531  0.0011
   62MOL    H6311165   3.431   1.967   5.028  0.8711 -0.0743  1.5560
   62MOL    H6411166   3.564   2.300   5.097 -0.4491  0.4587  0.3607
   62MOL    C6511167   3.395   2.072   4.842 -1.1078  0.3316  0.1480
   62MOL    C6611168   3.538   2.051   4.791  0.2579 -0.5534 -0.2561
   62MOL    C6711169   3.549   2.094   4.650 -0.7029  0.4148  0.7427
   62MOL    O6811170   3.522   2.020   4.556  0.7173 -0.3014  0.0904
   62MOL    O6911171   3.604   2.216   4.640 -0.1531 -0.2495  0.2300
   62MOL    H7011172   3.363   2.174   4.823 -1.8066  0.3163  1.1884
   62MOL    H7111173   3.326   2.019   4.777  1.2901 -0.7525 -1.5945
   62MOL    H7211174   3.603   2.116   4.849  2.6629  0.0003 -3.3764
   62MOL    H7311175   3.621   2.242   4.551 -0.1580 -2.4860 -0.4279
   62MOL    C7411176   3.595   1.909   4.802 -0.1094 -0.0730 -0.2873
   62MOL    C7511177   3.751   1.904   4.824  0.1083  0.3419 -0.0556
   62MOL    C7611178   3.794   1.969   4.950  0.2171 -0.6509 -0.9654
   62MOL    O7711179   3.869   2.067   4.946  0.3690  0.3224  0.8749
   62MOL    O7811180   3.746   1.923   5.069 -1.1144  0.1892  0.1837
   62MOL    H7911181   3.575   1.852   4.711 -1.5204  0.2518 -0.1856
   62MOL    H8011182   3.548   1.865   4.891 -1.2367  3.9463  1.2309
   62MOL    H8111183   3.761   1.795   4.832  1.6778  0.6495  3.2000
   62MOL    H8211184   3.700   1.840   5.072  1.1634 -1.0884  0.6854
   62MOL    C8311185   3.824   1.954   4.698 -0.2745  0.3084 -0.3376
   62MOL    C8411186   3.970   1.920   4.674 -0.0180  0.4039 -0.3274
   62MOL    C8511187   4.042   2.035   4.597  0.7178 -0.5529 -0.1401
   62MOL    O8611188   3.986   2.123   4.537  0.1500  0.2506  0.6033
   62MOL    O8711189   4.176   2.026   4.600 -0.4752  0.3599  0.8358
   62MOL    H8811190   3.801   2.061   4.696  0.3325  0.4682  0.6516
   62MOL    H8911191   3.764   1.918   4.615  1.7017 -0.8891 -1.2737
   62MOL    H9011192   4.014   1.922   4.773  1.3654  2.6842 -0.9506
   62MOL    H9111193   4.218   2.090   4.544  1.3118  1.5887  3.4900
   62MOL    C9211194   3.990   1.786   4.603  0.7434  0.0819  0.7729
   62MOL    C9311195   3.991   1.661   4.681  0.2541 -0.4048 -0.2411
   62MOL    C9411196   4.093   1.654   4.796  0.3379  0.7446 -0.7218
   62MOL    O9511197   4.063   1.621   4.912  0.6068 -0.6678 -0.3227
   62MOL    O9611198   4.225   1.679   4.755 -0.0145  0.5860  0.3884
   62MOL    H9711199   4.087   1.781   4.555  0.5778  0.9074  0.3506
   62MOL    H9811200   3.916   1.776   4.524  1.1579  1.2977  0.2220
   62MOL    H9911201   3.900   1.650   4.740 -0.1861  0.0168 -0.8372
   62MOL   H10011202   4.228   1.706   4.664  0.6862 -0.4569  0.0884
   62MOL   C10111203   4.004   1.532   4.585  0.0300  0.2534 -0.1356
   62MOL   C10211204   3.888   1.430   4.611 -0.2392  0.1565  0.1005
   62MOL   C10311205   3.900   1.364   4.755  0.9488 -0.1352 -0.6025
   62MOL   O10411206   3.977   1.265   4.775 -0.0307 -0.5281  1.1910
   62MOL   O10511207   3.818   1.420   4.843 -0.2732  0.0247 -0.6138
   62MOL   H10611208   4.090   1.471   4.613  2.1607  2.9915 -0.5108
   62MOL   H10711209   4.017   1.558   4.480  1.6730 -2.8823 -0.7745
   62MOL   H10811210   3.794   1.485   4.611  0.5190  1.4689 -0.3141
   62MOL   H10911211   3.846   1.373   4.921 -4.3227  1.5962  1.9016
   62MOL   C11011212   3.895   1.318   4.508 -0.5248 -0.2022  0.3230
   62MOL   C11111213   3.766   1.218   4.503  0.0469  0.2946  0.0521
   62MOL   C11211214   3.775   1.079   4.431 -0.5933  0.3942  0.3479
   62MOL   O11311215   3.684   0.995   4.420 -0.2520  0.5009  0.1246
   62MOL   O11411216   3.896   1.052   4.372  0.2875 -0.0805  0.1374
   62MOL   H11511217   3.982   1.253   4.515 -0.3453 -0.2569 -2.1501
   62MOL   H11611218   3.897   1.371   4.413 -0.9961  1.5673  1.2795
   62MOL   H11711219   3.762   1.186   4.607 -1.3708  0.7348  0.1484
   62MOL   H11811220   3.907   0.968   4.331  1.6181 -0.1015  0.5130
   62MOL   C11911221   3.622   1.280   4.502  0.0875 -0.4314 -0.4752
   62MOL   C12011222   3.572   1.333   4.371  0.1733 -0.3640  0.2988
   62MOL   C12111223   3.632   1.466   4.331  0.3730 -0.2619 -0.1485
   62MOL   O12211224   3.710   1.480   4.237 -0.1387  0.1979  0.1812
   62MOL   O12311225   3.589   1.573   4.405 -0.0241 -0.9083 -0.7756
   62MOL   H12411226   3.605   1.356   4.578  1.0467 -0.6953  0.0122
   62MOL   H12511227   3.558   1.195   4.526 -1.7793  1.4308  1.3052
   62MOL   H12611228   3.601   1.258   4.298 -1.7349  0.1800 -1.0779
   62MOL   H12711229   3.630   1.654   4.382 -2.2912  1.3757  2.6297
   62MOL   C12811230   3.419   1.345   4.364 -0.1170  0.5149  0.2584
   62MOL   C12911231   3.338   1.221   4.367  0.1644  0.7481 -0.2812
   62MOL   C13011232   3.357   1.112   4.263  0.6609  0.1737  0.0243
   62MOL   O13111233   3.347   0.993   4.293  0.1428  0.3640 -0.4440
   62MOL   O13211234   3.376   1.169   4.141  0.2263 -0.1819  0.3915
   62MOL   H13311235   3.396   1.404   4.275  0.8063  2.2045  1.1222
   62MOL   H13411236   3.400   1.413   4.447  1.0172 -0.8241  1.6557
   62MOL   H13511237   3.363   1.171   4.461  0.7397 -0.2350 -0.9652
   62MOL   H13611238   3.382   1.100   4.077  0.3614 -0.6154  0.8690
   62MOL   C13711239   3.186   1.245   4.379  0.6936 -0.4687  0.3785
   62MOL   C13811240   3.130   1.244   4.524  1.5003 -0.0448 -0.3381
   62MOL   C13911241   3.136   1.101   4.592 -0.4004  0.1940 -0.2663
   62MOL   O14011242   3.153   1.094   4.714 -0.2544  0.5423 -0.7170
   62MOL   O14111243   3.114   0.998   4.510 -0.8331  0.0846  0.3915
   62MOL   H14211244   3.117   1.186   4.317  1.8775 -1.1106 -0.3432
   62MOL   H14311245   3.181   1.347   4.342 -0.0826 -0.8445 -0.5562
   62MOL   H14411246   3.196   1.311   4.579  0.0168  2.8512 -1.9521
   62MOL   H14511247   3.113   0.915   4.556  0.0040 -0.6753 -0.9113
   62MOL   C14611248   2.981   1.294   4.529 -0.6487  0.4562  0.3667
   62MOL   C14711249   2.951   1.440   4.558 -0.4567  0.7260  0.1066
   62MOL   C14811250   2.992   1.492   4.699  0.4754 -0.3300 -0.8757
   62MOL   O14911251   2.991   1.422   4.801 -0.8015  0.0928  0.2831
   62MOL   O15011252   3.035   1.616   4.709  0.3901 -0.6226 -0.0549
   62MOL   H15111253   2.933   1.242   4.612 -2.8642  0.4255 -0.8969
   62MOL   H15211254   2.929   1.256   4.441  0.2473 -0.0483  0.0459
   62MOL   H15311255   3.014   1.494   4.488 -1.2245  1.5793  0.0636
   62MOL   H15411256   3.062   1.633   4.798  3.0662  1.6942 -1.2242
   62MOL   C15511257   2.804   1.484   4.527 -0.2258  0.5433  0.1560
   62MOL   C15611258   2.765   1.633   4.518 -0.1434  0.1431 -0.5474
   62MOL   C15711259   2.613   1.643   4.509  0.1909 -0.0761  0.3642
   62MOL   O15811260   2.546   1.554   4.453  0.7783  0.0216 -0.1490
   62MOL   O15911261   2.566   1.748   4.581 -0.3289 -0.1231  0.6283
   62MOL   H16011262   2.732   1.445   4.599  0.3844  0.5582  0.7836
   62MOL   H16111263   2.774   1.436   4.434 -0.4104 -0.0704  0.5268
   62MOL   H16211264   2.813   1.680   4.603  1.4373 -0.9104 -0.8413
   62MOL   H16311265   2.473   1.744   4.594 -0.5360  1.2598 -0.3495
   62MOL   C16411266   2.833   1.687   4.383 -0.4005  0.7724  0.1273
   62MOL   C16511267   2.975   1.749   4.396 -0.7010 -0.8762  0.0512
   62MOL   C16611268   2.983   1.901   4.371 -0.1781 -0.5902 -0.6667
   62MOL   O16711269   3.013   1.988   4.455 -0.4814  0.0701  0.7955
   62MOL   O16811270   2.931   1.948   4.256  0.4388  0.2093  0.2673
   62MOL   H16911271   2.763   1.762   4.347 -0.4629  0.1294 -1.0989
   62MOL   H17011272   2.832   1.607   4.309 -1.2224 -1.5160  2.5119
   62MOL   H17111273   3.007   1.728   4.498  0.5791  1.6710  0.2094
   62MOL   H17211274   2.941   2.041   4.254 -1.0018  0.3550 -0.9170
   62MOL   C17311275   3.085   1.677   4.309  0.0364  0.1195 -0.1539
   62MOL   C17411276   3.236   1.716   4.348  0.6935  0.4328 -0.3691
   62MOL   C17511277   3.287   1.684   4.488 -0.0989 -0.6687 -0.6236
   62MOL   O17611278   3.372   1.756   4.544  0.1965  0.0651  0.3416
   62MOL   O17711279   3.250   1.563   4.528 -0.0086  0.1115  0.1712
   62MOL   H17811280   3.079   1.696   4.202  1.1643 -1.9244 -0.6091
   62MOL   H17911281   3.082   1.569   4.306 -0.4061  0.1692 -2.0511
   62MOL   H18011282   3.309   1.674   4.279 -0.4796 -1.7002 -0.3672
   62MOL   H18111283   3.289   1.537   4.610  0.4238 -1.4744 -0.5122
   62MOL   H18211284   3.247   1.823   4.335 -0.3433  0.6343  0.2995
   63MOL     C111285   0.381   2.534   5.924  0.2595  0.5052 -0.8110
   63MOL     C211286   0.395   2.662   6.010  0.2532  0.1717 -0.4122
   63MOL     C311287   0.545   2.677   6.059 -0.3997  0.4062  0.2104
   63MOL     O411288   0.581   2.689   6.176 -0.5675  0.0439 -0.1464
   63MOL     O511289   0.634   2.672   5.955 -0.0835  0.3385 -0.7807
   63MOL     H611290   0.462   2.522   5.853  0.0944 -0.0928 -0.8986
   63MOL     H711291   0.374   2.449   5.992 -1.1209  0.6187 -0.7916
   63MOL     H811292   0.371   2.748   5.948 -0.3428 -1.4551 -2.5134
   63MOL     H911293   0.600   2.682   5.868  1.6378  0.1049 -1.4926
   63MOL    H1011294   0.282   2.530   5.878  0.1403 -1.5223 -0.3972
   63MOL    C1111295   0.298   2.674   6.134 -0.2165 -0.5038 -0.1384
   63MOL    C1211296   0.146   2.654   6.099  0.7923 -0.0813  0.3100
   63MOL    C1311297   0.095   2.767   6.005 -0.2757  0.2012 -0.2298
   63MOL    O1411298   0.170   2.861   5.974 -0.1287  0.2514  0.1635
   63MOL    O1511299   7.824   2.740   5.953 -0.1120 -0.6862  0.8729
   63MOL    H1611300   0.317   2.770   6.182 -1.1205  0.7246 -2.1739
   63MOL    H1711301   0.329   2.602   6.209 -0.6125  1.3739  1.8853
   63MOL    H1811302   0.140   2.560   6.044 -1.0699 -1.9890  3.5423
   63MOL    H1911303   7.809   2.815   5.898 -0.6283 -0.9553  0.6412
   63MOL    C2011304   0.056   2.621   6.218  0.6317  0.4843 -0.3309
   63MOL    C2111305   0.017   2.732   6.316  0.5947 -0.0576  0.4362
   63MOL    C2211306   0.032   2.667   6.460  0.3141 -0.0180 -0.4107
   63MOL    O2311307   0.129   2.697   6.529  0.4922  0.1686 -0.0868
   63MOL    O2411308   7.791   2.576   6.498  0.1447 -0.0350  0.1817
   63MOL    H2511309   0.103   2.540   6.274  1.6154  0.9297 -0.4929
   63MOL    H2611310   7.822   2.571   6.177  0.7282  0.0197  0.0349
   63MOL    H2711311   0.087   2.812   6.296 -0.3131  0.9454  1.2390
   63MOL    H2811312   7.811   2.557   6.588 -1.3572  3.8674  1.4357
   63MOL    C2911313   7.721   2.769   6.278  0.3108 -0.4155 -0.3193
   63MOL    C3011314   7.686   2.915   6.318 -0.2713 -0.4255 -0.3608
   63MOL    C3111315   7.650   2.935   6.466  1.0629 -0.2614  0.0536
   63MOL    O3211316   7.536   2.953   6.517 -0.6484 -0.5785 -0.1530
   63MOL    O3311317   7.758   2.926   6.552  0.1911 -0.6608  0.1572
   63MOL    H3411318   7.657   2.703   6.336  0.9311 -1.6010 -0.9848
   63MOL    H3511319   7.702   2.762   6.170  3.2186  0.9607 -0.9757
   63MOL    H3611320   7.779   2.971   6.316  0.0250 -0.7331  2.5573
   63MOL    H3711321   7.741   2.926   6.644  1.4707 -0.9977  0.4051
   63MOL    C3811322   7.585   2.985   6.228  0.0307  0.0671 -0.2039
   63MOL    C3911323   7.614   3.134   6.205  0.0672 -0.1096  0.5877
   63MOL    C4011324   7.492   3.210   6.161  0.6718 -0.0350  0.2488
   63MOL    O4111325   7.466   3.232   6.039  0.7645 -0.5343  0.0904
   63MOL    O4211326   7.400   3.235   6.259 -0.4440 -0.0968 -0.0597
   63MOL    H4311327   7.484   2.979   6.268  0.5033 -0.6057  0.9034
   63MOL    H4411328   7.582   2.926   6.137 -2.1832  0.3488 -0.3440
   63MOL    H4511329   7.628   3.181   6.302 -1.3767  1.5892 -0.0057
   63MOL    H4611330   7.326   3.284   6.226 -1.3655  0.5637  2.8563
   63MOL    C4711331   7.733   3.151   6.105  0.3729  0.7668 -0.0514
   63MOL    C4811332   0.004   3.223   6.162 -0.5520  0.0544 -0.8507
   63MOL    C4911333   7.827   3.376   6.176  0.3520  0.0594  0.3321
   63MOL    O5011334   7.750   3.439   6.101  0.3338  0.0868 -0.4279
   63MOL    O5111335   0.048   3.425   6.282  0.1059  0.7774  0.5102
   63MOL    H5211336   7.708   3.196   6.009 -2.8386 -2.0524 -0.6186
   63MOL    H5311337   7.763   3.055   6.062  2.2704  2.4405 -2.6481
   63MOL    H5411338   0.019   3.178   6.260  3.4080  2.1576 -0.3863
   63MOL    H5511339   0.051   3.518   6.298  2.9576  1.2921 -2.6219
   63MOL    C5611340   0.124   3.209   6.066  1.0156 -0.2892  0.0908
   63MOL    C5711341   0.257   3.253   6.121 -0.1106  0.6717  0.3264
   63MOL    C5811342   0.306   3.384   6.054  0.5274 -0.2684  0.0936
   63MOL    O5911343   0.336   3.483   6.126  0.3080  0.1645 -0.3136
   63MOL    O6011344   0.299   3.382   5.914  0.3580 -0.1666 -0.0185
   63MOL    H6111345   0.100   3.266   5.976  2.2368  0.2954  0.1271
   63MOL    H6211346   0.126   3.109   6.023  1.3259 -0.0889 -0.3640
   63MOL    H6311347   0.234   3.269   6.226  1.6546  2.0281  0.5170
   63MOL    H6411348   0.335   3.464   5.883 -1.3574  0.5877 -0.0347
   63MOL    C6511349   0.365   3.140   6.115 -0.3777  0.2066  0.0441
   63MOL    C6611350   0.498   3.177   6.186 -0.3491 -0.5704  0.4815
   63MOL    C6711351   0.618   3.123   6.107 -0.0285 -0.5080 -0.2133
   63MOL    O6811352   0.717   3.195   6.075  0.5453 -0.1654 -0.5913
   63MOL    O6911353   0.618   2.993   6.105  0.0950 -0.1465 -0.1823
   63MOL    H7011354   0.376   3.110   6.011 -0.6058 -0.3223  0.1725
   63MOL    H7111355   0.327   3.048   6.159  1.1541 -0.9419 -0.9802
   63MOL    H7211356   0.513   3.283   6.163  0.0921 -0.9206 -0.8939
   63MOL    H7311357   0.700   2.972   6.063 -0.1352  1.1232 -1.2561
   63MOL    C7411358   0.496   3.148   6.340 -0.2067  0.0726 -0.3508
   63MOL    C7511359   0.407   3.218   6.443  0.4812  0.3143  0.1784
   63MOL    C7611360   0.423   3.374   6.443  0.1206  0.5799  0.1569
   63MOL    O7711361   0.536   3.425   6.448 -0.3630  0.3506 -0.3859
   63MOL    O7811362   0.302   3.442   6.428 -0.4858 -0.1169 -0.0848
   63MOL    H7911363   0.597   3.173   6.372 -0.2777 -2.3799  1.9611
   63MOL    H8011364   0.491   3.039   6.349 -0.9063  0.1727  0.5118
   63MOL    H8111365   0.302   3.196   6.424  0.7292  0.0304 -0.8852
   63MOL    H8211366   0.315   3.535   6.423  0.0528 -0.1402  0.7880
   63MOL    C8311367   0.432   3.166   6.583 -0.1417 -0.0542 -0.0278
   63MOL    C8411368   0.378   3.026   6.605  0.4241 -0.0821 -0.1133
   63MOL    C8511369   0.224   3.003   6.595  0.1890 -0.5058 -0.8059
   63MOL    O8611370   0.157   3.005   6.694  1.3092  0.9098 -0.0446
   63MOL    O8711371   0.170   3.002   6.469 -0.0022  0.1948 -0.0854
   63MOL    H8811372   0.376   3.234   6.647  0.2699 -0.7808  1.1057
   63MOL    H8911373   0.539   3.173   6.600 -0.1141  2.4593 -0.9237
   63MOL    H9011374   0.415   2.949   6.537  0.7334  0.3094 -0.3883
   63MOL    H9111375   0.078   2.989   6.484  0.4386 -0.8454  1.9123
   63MOL    C9211376   0.438   2.974   6.739 -1.2611 -0.6275 -0.1011
   63MOL    C9311377   0.429   2.820   6.757  0.1432  0.0260  0.4010
   63MOL    C9411378   0.428   2.786   6.906 -0.5166  0.2235 -0.2698
   63MOL    O9511379   0.506   2.840   6.987 -0.3563 -0.1031  0.2167
   63MOL    O9611380   0.346   2.684   6.942  0.2937  0.5714  0.1463
   63MOL    H9711381   0.393   3.013   6.830 -0.5958  2.3050 -1.0023
   63MOL    H9811382   0.538   3.016   6.750 -1.3837 -0.6469  1.2632
   63MOL    H9911383   0.327   2.794   6.728  0.7019 -0.2617 -1.3525
   63MOL   H10011384   0.367   2.647   7.026  1.0615 -1.2284 -0.8294
   63MOL   C10111385   0.529   2.738   6.679 -0.1792 -0.6327 -0.6167
   63MOL   C10211386   0.496   2.582   6.663 -0.2784  0.0948 -0.2851
   63MOL   C10311387   0.583   2.500   6.764  0.0690 -0.1088 -0.0990
   63MOL   O10411388   0.544   2.401   6.827  0.2098  0.2419  1.0375
   63MOL   O10511389   0.718   2.521   6.756 -0.2806  0.0456 -0.1155
   63MOL   H10611390   0.627   2.749   6.727 -1.2269 -2.5040  2.0619
   63MOL   H10711391   0.538   2.774   6.577  0.6566  0.3688 -0.1977
   63MOL   H10811392   0.389   2.572   6.682  0.0370 -0.4219  1.3328
   63MOL   H10911393   0.768   2.460   6.809 -0.3288  0.4098  0.3578
   63MOL   C11011394   0.531   2.533   6.519  0.6241  0.1041 -0.2084
   63MOL   C11111395   0.505   2.388   6.481 -0.4356 -0.1969 -0.4346
   63MOL   C11211396   0.542   2.369   6.335 -0.0842 -0.0213  0.0774
   63MOL   O11311397   0.460   2.349   6.242 -0.3420 -0.9848 -0.1143
   63MOL   O11411398   0.681   2.373   6.324 -0.0557 -0.2561  0.2932
   63MOL   H11511399   0.636   2.554   6.501  0.5158  1.7294  0.9110
   63MOL   H11611400   0.471   2.604   6.460 -1.9634 -0.3937  1.7470
   63MOL   H11711401   0.575   2.328   6.538  0.5022  1.2451 -0.0533
   63MOL   H11811402   0.719   2.354   6.239  0.8978 -1.4393  0.9664
   63MOL   C11911403   0.364   2.348   6.511 -0.1948  0.9239  0.3071
   63MOL   C12011404   0.323   2.198   6.483  0.6804  0.7659  0.0279
   63MOL   C12111405   0.168   2.178   6.512 -0.9850  0.2392  0.6895
   63MOL   O12211406   0.094   2.244   6.582 -0.2560 -0.9583  0.5525
   63MOL   O12311407   0.132   2.058   6.458 -0.4567 -0.2513 -0.2256
   63MOL   H12411408   0.296   2.411   6.452 -0.0798 -1.4483 -2.4655
   63MOL   H12511409   0.346   2.369   6.616 -1.8401 -0.8679  0.4136
   63MOL   H12611410   0.328   2.188   6.374 -0.1437 -1.4181  0.1703
   63MOL   H12711411   0.046   2.032   6.484 -0.5164 -0.9597 -1.1209
   63MOL   C12811412   0.416   2.098   6.556 -0.8152  0.2336 -0.0579
   63MOL   C12911413   0.500   2.000   6.461  0.4252 -0.2576 -0.4009
   63MOL   C13011414   0.405   1.893   6.404  0.2117  0.0960  0.0292
   63MOL   O13111415   0.342   1.815   6.476  0.4521 -0.0736  0.5903
   63MOL   O13211416   0.403   1.880   6.270  0.3267  0.0164 -0.2722
   63MOL   H13311417   0.349   2.036   6.615  0.4777 -1.8776 -0.7586
   63MOL   H13411418   0.466   2.153   6.636  2.8226  0.7002 -2.5363
   63MOL   H13511419   0.547   2.053   6.378 -1.5593 -0.5445 -1.7391
   63MOL   H13611420   0.334   1.818   6.250  0.4550 -0.1892 -0.0707
   63MOL   C13711421   0.620   1.936   6.541 -0.2570  0.4020 -0.1219
   63MOL   C13811422   0.735   1.876   6.465 -0.1491  0.3427 -0.3227
   63MOL   C13911423   0.819   1.983   6.399 -0.0386  0.4212 -0.3105
   63MOL   O14011424   0.892   1.954   6.304  0.0701 -0.6945  0.0356
   63MOL   O14111425   0.817   2.098   6.469  0.3713 -0.3206 -0.2302
   63MOL   H14211426   0.581   1.865   6.614  0.7430 -0.8489 -0.7957
   63MOL   H14311427   0.654   2.015   6.608  0.3513  1.5154 -1.7242
   63MOL   H14411428   0.808   1.840   6.537 -0.8767 -0.2523  0.1250
   63MOL   H14511429   0.867   2.173   6.442 -1.9734  1.5868  0.6112
   63MOL   C14611430   0.691   1.756   6.370  0.8182 -0.8293  1.1433
   63MOL   C14711431   0.651   1.617   6.433 -0.1605  0.1881  0.1330
   63MOL   C14811432   0.762   1.530   6.457 -1.1032 -0.2841 -0.0926
   63MOL   O14911433   0.776   1.422   6.391  0.1866 -0.3659  0.2583
   63MOL   O15011434   0.848   1.585   6.543  0.0529 -0.1249  0.5045
   63MOL   H15111435   0.771   1.733   6.299  0.8345  0.7851  0.6221
   63MOL   H15211436   0.625   1.793   6.291  0.3217 -1.4781  1.2478
   63MOL   H15311437   0.600   1.649   6.524 -0.6080  3.0036 -1.0509
   63MOL   H15411438   0.927   1.534   6.549 -1.7863 -3.3828 -1.1703
   63MOL   C15511439   0.532   1.558   6.354 -0.2411  0.1728 -0.4196
   63MOL   C15611440   0.458   1.426   6.386  0.5785  0.9191  0.6842
   63MOL   C15711441   0.330   1.420   6.297  0.0358 -0.5996  0.0591
   63MOL   O15811442   0.219   1.461   6.332 -0.6794  0.2057  0.6013
   63MOL   O15911443   0.356   1.345   6.188  0.1321 -0.6768 -0.0940
   63MOL   H16011444   0.567   1.552   6.251  2.1841 -2.8085  0.5107
   63MOL   H16111445   0.456   1.635   6.340  1.3245  1.7182 -0.7236
   63MOL   H16211446   0.522   1.344   6.355 -1.5988 -0.1911 -0.9952
   63MOL   H16311447   0.286   1.346   6.124  1.3038 -1.5603 -1.4317
   63MOL   C16411448   0.424   1.407   6.538  0.0689 -0.4802  0.5228
   63MOL   C16511449   0.506   1.302   6.603 -0.0734  0.3933  0.4513
   63MOL   C16611450   0.461   1.154   6.608  0.5474 -0.6501  0.4256
   63MOL   O16711451   0.535   1.062   6.624 -0.1485 -0.7922 -0.0383
   63MOL   O16811452   0.325   1.142   6.581 -0.4658  0.5310  0.6172
   63MOL   H16911453   0.317   1.395   6.552  0.2828 -3.4171 -0.2063
   63MOL   H17011454   0.428   1.504   6.589  0.7184 -0.8080  1.1078
   63MOL   H17111455   0.603   1.297   6.552 -0.2438 -0.7879  0.2402
   63MOL   H17211456   0.299   1.053   6.595  0.5734 -0.1898 -1.7067
   63MOL   C17311457   0.552   1.330   6.747 -0.3145  0.5209  0.3630
   63MOL   C17411458   0.432   1.354   6.847  0.3640  1.1733 -0.4060
   63MOL   C17511459   0.483   1.382   6.990 -0.1728 -0.8675 -0.2425
   63MOL   O17611460   0.604   1.386   7.024  0.0583 -0.8505  0.4675
   63MOL   O17711461   0.383   1.412   7.072 -0.1040  0.2013  0.4488
   63MOL   H17811462   0.618   1.416   6.743  0.9777 -0.2972  2.7608
   63MOL   H17911463   0.605   1.254   6.805  0.0442  0.0991 -0.5058
   63MOL   H18011464   0.378   1.443   6.814  1.3192  0.9952 -2.5572
   63MOL   H18111465   0.419   1.425   7.158  2.1986 -0.2673 -0.4094
   63MOL   H18211466   0.352   1.280   6.848  0.2630  1.2437 -1.7876
   64MOL     C111467   5.117   4.634   3.444  0.2892 -0.5155  0.2061
   64MOL     C211468   5.263   4.643   3.420 -1.4218  0.2247 -0.0992
   64MOL     C311469   5.308   4.723   3.295 -0.1339  0.7986 -0.2920
   64MOL     O411470   5.400   4.692   3.232 -0.0666  0.0258  0.2164
   64MOL     O511471   5.212   4.808   3.260 -0.0517 -1.2139 -0.4455
   64MOL     H611472   5.067   4.572   3.369 -0.9957  1.7388 -0.8498
   64MOL     H711473   5.101   4.588   3.542 -0.0453 -0.1225  0.3370
   64MOL     H811474   5.294   4.709   3.500 -0.6549  2.4773 -2.2013
   64MOL     H911475   5.218   4.834   3.169 -0.2061  2.3958  0.4907
   64MOL    H1011476   5.070   4.732   3.454  1.5412  0.3518 -2.0417
   64MOL    C1111477   5.335   4.504   3.440  0.3909 -0.6463 -0.1315
   64MOL    C1211478   5.320   4.395   3.321 -0.0526 -0.4485 -0.0969
   64MOL    C1311479   5.186   4.320   3.330  0.6831  0.2785  0.1836
   64MOL    O1411480   5.155   4.234   3.416  0.0369  0.7774 -0.2089
   64MOL    O1511481   5.106   4.355   3.224  0.1176  0.6363 -0.5563
   64MOL    H1611482   5.309   4.447   3.530  0.3950 -1.2038 -0.4786
   64MOL    H1711483   5.439   4.534   3.453  0.2403  0.7781 -2.0265
   64MOL    H1811484   5.331   4.453   3.230  0.8691  1.1822  1.0343
   64MOL    H1911485   5.018   4.320   3.225  0.4005 -0.3342  4.2529
   64MOL    C2011486   5.434   4.290   3.331  0.5265  0.5190 -0.5839
   64MOL    C2111487   5.572   4.331   3.292  0.1683 -0.8622 -0.6338
   64MOL    C2211488   5.591   4.354   3.144  0.5844  0.1340  0.1225
   64MOL    O2311489   5.511   4.330   3.054  0.1432 -0.8884  0.1853
   64MOL    O2411490   5.708   4.424   3.127 -0.0416  0.4940 -0.6414
   64MOL    H2511491   5.415   4.203   3.268 -0.4457 -0.1340  0.5813
   64MOL    H2611492   5.441   4.252   3.433 -1.2346  1.0006 -0.2697
   64MOL    H2711493   5.595   4.429   3.334 -2.2632  0.4613 -2.2401
   64MOL    H2811494   5.718   4.454   3.038 -0.7208  0.5550 -0.6979
   64MOL    C2911495   5.689   4.238   3.334  0.3712 -0.0225 -0.2746
   64MOL    C3011496   5.724   4.218   3.486 -0.2642  0.4294  0.0206
   64MOL    C3111497   5.716   4.345   3.568 -0.2537  0.5105 -0.2883
   64MOL    O3211498   5.787   4.445   3.541  0.3743  0.4556  0.6269
   64MOL    O3311499   5.613   4.345   3.663  0.0168 -0.1136  0.6373
   64MOL    H3411500   5.781   4.277   3.290  1.1655 -1.3451  0.1932
   64MOL    H3511501   5.681   4.141   3.285  0.5880 -0.8696  1.3500
   64MOL    H3611502   5.644   4.158   3.529  0.7819 -0.2248  1.0930
   64MOL    H3711503   5.608   4.421   3.718 -3.7151  0.2430 -0.0357
   64MOL    C3811504   5.863   4.138   3.503 -0.0415 -0.7278  0.2240
   64MOL    C3911505   5.924   4.146   3.647  0.4565 -0.1796  0.2191
   64MOL    C4011506   6.067   4.201   3.637  0.2864 -0.3339 -0.2103
   64MOL    O4111507   6.168   4.130   3.640 -0.3523 -0.0415  0.9460
   64MOL    O4211508   6.066   4.334   3.619  0.1819  0.4150 -0.3271
   64MOL    H4311509   5.933   4.156   3.421  0.7580 -0.3525  0.9854
   64MOL    H4411510   5.837   4.034   3.483  0.6880 -1.1153  1.2588
   64MOL    H4511511   5.867   4.213   3.711 -0.0736 -1.0274  0.6400
   64MOL    H4611512   6.154   4.369   3.622  0.0696  0.5779  2.0145
   64MOL    C4711513   5.919   4.009   3.714  0.1221  0.2511 -0.0953
   64MOL    C4811514   5.953   4.015   3.866  0.3854  0.2494  0.1180
   64MOL    C4911515   6.064   3.919   3.918 -0.0941  0.5030 -0.1129
   64MOL    O5011516   6.171   3.958   3.969  0.2667 -0.3169 -0.3073
   64MOL    O5111517   6.021   3.789   3.925  0.1905 -0.2399 -0.4403
   64MOL    H5211518   5.987   3.939   3.666  0.2421  1.0380 -1.0913
   64MOL    H5311519   5.825   3.960   3.691  0.0643  0.5229 -0.4415
   64MOL    H5411520   6.001   4.108   3.894 -0.4395  0.2890  1.4485
   64MOL    H5511521   6.093   3.747   3.970  0.1043 -1.7276 -1.6245
   64MOL    C5611522   5.819   4.012   3.945  0.7076  0.2508 -0.2638
   64MOL    C5711523   5.802   4.119   4.061  0.7905  0.3582  0.3890
   64MOL    C5811524   5.790   4.261   4.000 -0.2111 -0.3226  0.1667
   64MOL    O5911525   5.886   4.333   3.977  0.4788  0.9032  0.0017
   64MOL    O6011526   5.662   4.282   3.954  0.0366  0.6312  0.9293
   64MOL    H6111527   5.794   3.916   3.990 -0.5983  0.1131 -1.2215
   64MOL    H6211528   5.730   4.020   3.881  0.2357 -0.8310  0.2399
   64MOL    H6311529   5.704   4.094   4.102  0.9830 -1.2862 -0.0903
   64MOL    H6411530   5.664   4.360   3.901 -0.1339 -0.8343 -1.2747
   64MOL    C6511531   5.913   4.114   4.165  0.0356 -0.0873 -0.1226
   64MOL    C6611532   5.913   3.986   4.255  0.5218  0.0685 -0.0433
   64MOL    C6711533   5.812   4.012   4.368 -0.4166 -0.5973 -0.2954
   64MOL    O6811534   5.717   4.080   4.349  0.1552 -0.1725 -0.3201
   64MOL    O6911535   5.860   3.961   4.489  0.4364 -0.0074  0.3015
   64MOL    H7011536   5.894   4.197   4.233 -0.1622  0.0153 -0.3031
   64MOL    H7111537   6.005   4.118   4.106  1.4688 -2.3408  1.8587
   64MOL    H7211538   5.878   3.905   4.191  1.9325 -1.1626  0.7030
   64MOL    H7311539   5.810   3.996   4.561  2.8117  1.8299  1.1259
   64MOL    C7411540   6.059   3.952   4.303 -0.2913  0.6927  0.3275
   64MOL    C7511541   6.092   3.802   4.351  0.1228 -0.1494 -0.7906
   64MOL    C7611542   6.237   3.782   4.380 -0.7224 -0.3272 -0.0325
   64MOL    O7711543   6.329   3.857   4.346 -0.2119  0.3498 -0.2493
   64MOL    O7811544   6.254   3.660   4.436 -0.2427 -0.0851 -0.8854
   64MOL    H7911545   6.104   4.015   4.380 -1.1056  1.7268 -0.0261
   64MOL    H8011546   6.125   3.964   4.217  0.2114  1.6706  0.8370
   64MOL    H8111547   6.050   3.793   4.451  1.1712 -0.4085 -0.3674
   64MOL    H8211548   6.347   3.642   4.447 -0.4089 -0.8493 -0.6535
   64MOL    C8311549   6.036   3.691   4.266  1.3207 -0.2868  0.4198
   64MOL    C8411550   5.887   3.657   4.294 -0.9868  0.0757 -0.7250
   64MOL    C8511551   5.878   3.532   4.384  0.3529  0.3318 -0.4611
   64MOL    O8611552   5.868   3.415   4.347 -0.1402  0.4068 -0.0123
   64MOL    O8711553   5.898   3.557   4.518 -0.2982  0.4618  0.2776
   64MOL    H8811554   6.091   3.597   4.269 -2.0330 -2.2653  2.5837
   64MOL    H8911555   6.036   3.718   4.160 -2.8059 -2.7525 -0.3074
   64MOL    H9011556   5.843   3.740   4.349  1.6198  0.0070  1.5892
   64MOL    H9111557   5.900   3.482   4.576  0.3281  1.1902  1.2134
   64MOL    C9211558   5.802   3.645   4.165  0.0998 -0.3474  0.6396
   64MOL    C9311559   5.649   3.651   4.189  0.4127  0.5931 -0.9212
   64MOL    C9411560   5.588   3.622   4.052  0.4910  0.4042 -0.0708
   64MOL    O9511561   5.636   3.651   3.943 -0.3287  0.1106 -0.4888
   64MOL    O9611562   5.464   3.560   4.061 -0.4666  0.4995 -0.6253
   64MOL    H9711563   5.818   3.555   4.105  0.4379  1.2755 -1.7792
   64MOL    H9811564   5.830   3.726   4.098  1.3464 -0.6405  0.7907
   64MOL    H9911565   5.630   3.562   4.250 -0.9740  1.1698 -0.4983
   64MOL   H10011566   5.428   3.536   3.977 -1.5964  1.0359 -0.3084
   64MOL   C10111567   5.586   3.774   4.258  0.5394  0.1054 -0.1635
   64MOL   C10211568   5.433   3.770   4.276  0.1569 -0.7919 -0.4630
   64MOL   C10311569   5.375   3.909   4.301 -0.0889 -0.2289 -0.0220
   64MOL   O10411570   5.328   3.934   4.414 -1.0592  0.8305 -0.2193
   64MOL   O10511571   5.392   4.002   4.199 -0.0558  0.5294 -0.1906
   64MOL   H10611572   5.613   3.858   4.193 -1.5311  1.9379  1.2829
   64MOL   H10711573   5.632   3.803   4.352 -1.2840  0.1438  0.7276
   64MOL   H10811574   5.384   3.751   4.181 -0.0070  0.3920 -0.6254
   64MOL   H10911575   5.356   4.088   4.217  0.0642  0.0506  2.5057
   64MOL   C11011576   5.392   3.657   4.380  0.5287 -0.0611  0.1376
   64MOL   C11111577   5.262   3.589   4.336  0.4443 -0.4822 -0.2900
   64MOL   C11211578   5.140   3.669   4.383 -0.3221 -0.2984 -0.3061
   64MOL   O11311579   5.111   3.688   4.500  0.6761 -0.0719 -0.0880
   64MOL   O11411580   5.076   3.729   4.282  0.0996  1.1062  0.0361
   64MOL   H11511581   5.392   3.702   4.479  3.2404  0.1889  0.0564
   64MOL   H11611582   5.469   3.580   4.377 -0.4529 -1.0119 -1.1602
   64MOL   H11711583   5.255   3.587   4.227  1.1308 -0.6225 -0.3362
   64MOL   H11811584   5.013   3.793   4.312  0.9373  2.2183 -0.5375
   64MOL   C11911585   5.254   3.443   4.390 -0.2796  0.3441  0.0204
   64MOL   C12011586   5.340   3.339   4.309  0.0931  0.1473  0.8686
   64MOL   C12111587   5.260   3.293   4.185  0.5188  0.3718 -0.4228
   64MOL   O12211588   5.291   3.326   4.067  0.2931  0.2166 -0.6115
   64MOL   O12311589   5.157   3.214   4.224 -0.0418 -0.4795  0.0474
   64MOL   H12411590   5.149   3.414   4.384 -0.3308  0.8566 -2.0512
   64MOL   H12511591   5.282   3.443   4.495  2.1711  0.3435 -0.6219
   64MOL   H12611592   5.424   3.392   4.264 -1.8343  1.4940 -1.3019
   64MOL   H12711593   5.111   3.193   4.145  0.9695 -2.9900  0.0535
   64MOL   C12811594   5.378   3.229   4.409  0.2135  0.1231  0.6239
   64MOL   C12911595   5.488   3.128   4.368  0.2779  0.0578  0.3211
   64MOL   C13011596   5.616   3.193   4.308 -0.0114  0.6531 -0.2156
   64MOL   O13111597   5.661   3.176   4.196  0.2095 -0.0840  0.5956
   64MOL   O13211598   5.672   3.278   4.396  0.2238  0.5286  0.4869
   64MOL   H13311599   5.286   3.177   4.435  0.2312 -0.3021 -0.1232
   64MOL   H13411600   5.406   3.271   4.505 -0.1661 -0.2053  0.8812
   64MOL   H13511601   5.521   3.076   4.457  0.7578  1.9369  1.2620
   64MOL   H13611602   5.753   3.319   4.370  0.1747 -0.2404 -0.9124
   64MOL   C13711603   5.433   3.018   4.277  0.1344  0.5621 -0.0821
   64MOL   C13811604   5.318   2.937   4.333 -0.3153  0.2015 -0.1969
   64MOL   C13911605   5.359   2.872   4.470  0.6948  0.4338 -0.1314
   64MOL   O14011606   5.448   2.785   4.472 -0.6872  0.0843  0.0880
   64MOL   O14111607   5.298   2.923   4.583 -0.5248 -0.5054 -0.2285
   64MOL   H14211608   5.520   2.954   4.262 -1.5658 -2.0286  0.6871
   64MOL   H14311609   5.411   3.064   4.180  1.9442  2.0822  0.2137
   64MOL   H14411610   5.230   2.999   4.351  0.9235  1.8644  0.2082
   64MOL   H14511611   5.328   2.879   4.661  2.9933  0.4965 -0.9352
   64MOL   C14611612   5.279   2.828   4.235 -0.5964 -0.6496 -0.7759
   64MOL   C14711613   5.178   2.716   4.275  0.2586  0.3800 -0.0712
   64MOL   C14811614   5.184   2.602   4.169  0.2126 -0.1955  0.3122
   64MOL   O14911615   5.128   2.604   4.061 -0.1413  0.2838  0.7246
   64MOL   O15011616   5.286   2.517   4.190  0.4978  0.1699  0.2921
   64MOL   H15111617   5.364   2.789   4.179 -0.3834 -0.0621 -0.8630
   64MOL   H15211618   5.233   2.882   4.152 -1.8103 -0.8465 -0.2408
   64MOL   H15311619   5.221   2.672   4.365  2.3631  1.2806 -0.6072
   64MOL   H15411620   5.290   2.454   4.119  0.1491 -0.6689  1.0013
   64MOL   C15511621   5.035   2.756   4.296 -0.7899 -0.0619  0.4354
   64MOL   C15611622   4.950   2.666   4.399 -0.4751  0.1434 -0.7463
   64MOL   C15711623   4.844   2.585   4.325  0.7229 -0.0562 -0.2945
   64MOL   O15811624   4.723   2.605   4.348  0.7147 -0.3194 -0.1658
   64MOL   O15911625   4.891   2.486   4.242  0.2112 -0.1072 -0.2048
   64MOL   H16011626   4.974   2.768   4.207  2.0424  0.2726 -1.5250
   64MOL   H16111627   5.045   2.855   4.340 -1.0095 -0.3647  1.1726
   64MOL   H16211628   5.008   2.591   4.453  1.5730  1.2365 -1.3582
   64MOL   H16311629   4.816   2.451   4.197 -0.6880  1.5027  0.0242
   64MOL   C16411630   4.890   2.756   4.509 -0.3522  0.1478 -0.2047
   64MOL   C16511631   4.988   2.814   4.615  0.1158  0.7463  0.5274
   64MOL   C16611632   4.999   2.719   4.733  0.2320  0.7519 -0.1318
   64MOL   O16711633   4.943   2.608   4.733 -0.3573  0.6592 -0.1047
   64MOL   O16811634   5.079   2.769   4.832  0.3722  0.2170  0.4366
   64MOL   H16911635   4.807   2.707   4.560  0.9403 -1.1104  0.7295
   64MOL   H17011636   4.844   2.836   4.451 -1.1747 -1.5877 -2.0082
   64MOL   H17111637   5.089   2.812   4.575  0.3954  1.7085  1.1632
   64MOL   H17211638   5.074   2.705   4.901 -3.8949 -2.3552 -2.0589
   64MOL   C17311639   4.958   2.958   4.672  0.3822  0.3431  0.3200
   64MOL   C17411640   4.988   3.052   4.554  0.2802 -0.1352 -1.4703
   64MOL   C17511641   4.957   3.194   4.595  0.6445  0.2370  0.5144
   64MOL   O17611642   4.850   3.247   4.599  0.1326 -0.0034 -0.5245
   64MOL   O17711643   5.077   3.258   4.624 -0.0231 -0.2704  0.3219
   64MOL   H17811644   5.024   2.984   4.755  2.0338  1.3727 -1.2583
   64MOL   H17911645   4.856   2.975   4.704  0.6710 -0.0693  1.5008
   64MOL   H18011646   5.088   3.048   4.513  0.1032  0.6529 -1.9955
   64MOL   H18111647   5.061   3.344   4.660 -0.8166 -0.2985  0.0485
   64MOL   H18211648   4.934   3.027   4.463 -0.6364  1.1693 -1.3031
   65MOL     C111649   2.602   3.909   3.666 -0.4769  0.1391 -0.0353
   65MOL     C211650   2.505   3.778   3.654  0.3207 -0.1236  0.2278
   65MOL     C311651   2.367   3.813   3.711 -0.4483 -0.0013  0.6809
   65MOL     O411652   2.358   3.903   3.792  0.2639  0.3060  0.3736
   65MOL     O511653   2.267   3.733   3.674  0.0701  0.2810  0.3475
   65MOL     H611654   2.694   3.868   3.625 -1.0840 -1.9430  0.6245
   65MOL     H711655   2.566   3.998   3.615  1.0514  1.0107  0.3520
   65MOL     H811656   2.487   3.779   3.546 -0.8074  3.1765  0.3998
   65MOL     H911657   2.188   3.760   3.718  0.7427  2.0799  0.4992
   65MOL    H1011658   2.622   3.932   3.771 -0.5055 -2.5623  0.6044
   65MOL    C1111659   2.572   3.644   3.700 -0.0585 -0.2446 -0.3872
   65MOL    C1211660   2.565   3.616   3.849 -0.8156 -0.2549 -0.2294
   65MOL    C1311661   2.652   3.710   3.935  0.4902 -0.1168  0.7715
   65MOL    O1411662   2.759   3.750   3.899  0.4162  0.5468 -0.3539
   65MOL    O1511663   2.580   3.734   4.048 -0.6905 -0.0097 -0.2885
   65MOL    H1611664   2.675   3.649   3.664  0.3075 -4.1669 -0.0551
   65MOL    H1711665   2.535   3.561   3.640 -1.4471  0.1285 -0.0622
   65MOL    H1811666   2.466   3.638   3.888 -1.8568 -3.1446 -1.0984
   65MOL    H1911667   2.496   3.696   4.025 -0.6691 -0.4754  0.3893
   65MOL    C2011668   2.606   3.472   3.894  0.0721 -0.0678  0.3657
   65MOL    C2111669   2.494   3.364   3.874 -0.0834  0.3883  0.3296
   65MOL    C2211670   2.375   3.393   3.962 -0.1178  0.2799 -0.2006
   65MOL    O2311671   2.367   3.353   4.081  0.5169 -0.0775  0.0316
   65MOL    O2411672   2.287   3.484   3.907 -0.0408  0.0547 -0.2498
   65MOL    H2511673   2.650   3.459   3.992  1.4401 -2.2158 -0.4919
   65MOL    H2611674   2.699   3.454   3.841 -0.5496  4.0828 -2.3521
   65MOL    H2711675   2.463   3.374   3.770 -1.8354  0.5494  0.8485
   65MOL    H2811676   2.220   3.506   3.970  1.7521 -0.1035  1.7684
   65MOL    C2911677   2.546   3.225   3.916 -0.8243 -0.0923  1.3853
   65MOL    C3011678   2.629   3.137   3.814  0.4596  0.0224  0.2206
   65MOL    C3111679   2.768   3.192   3.771 -0.3698 -0.0771  0.4628
   65MOL    O3211680   2.788   3.218   3.655  0.3175  0.0967  0.5744
   65MOL    O3311681   2.850   3.217   3.881  0.2717 -0.1384 -0.0653
   65MOL    H3411682   2.464   3.159   3.945 -0.8231  0.0404  1.6912
   65MOL    H3511683   2.598   3.234   4.012 -0.5435  2.1362  1.0432
   65MOL    H3611684   2.645   3.044   3.869 -0.4144 -1.1645 -1.5239
   65MOL    H3711685   2.936   3.229   3.844  0.8182  0.0243  1.2289
   65MOL    C3811686   2.541   3.103   3.688 -0.0345  0.1217 -0.4088
   65MOL    C3911687   2.414   3.020   3.715  0.6707  0.6953  0.5259
   65MOL    C4011688   2.443   2.872   3.754  0.2308 -0.1104 -0.0590
   65MOL    O4111689   2.554   2.833   3.759  0.6626 -0.3380 -0.0162
   65MOL    O4211690   2.339   2.796   3.761  0.4863  0.0869 -0.0788
   65MOL    H4311691   2.605   3.041   3.625 -1.2111 -3.4900  1.7879
   65MOL    H4411692   2.520   3.197   3.638  1.8381  1.1297  0.6082
   65MOL    H4511693   2.367   3.062   3.803  3.8122  0.8614  2.1770
   65MOL    H4611694   2.359   2.707   3.784  0.0160 -0.3848 -1.4657
   65MOL    C4711695   2.314   3.030   3.599  0.1559  0.3474  0.1357
   65MOL    C4811696   2.356   2.963   3.464 -1.0188 -0.3659 -0.1322
   65MOL    C4911697   2.417   3.072   3.373 -0.6741 -0.0846 -0.0569
   65MOL    O5011698   2.538   3.079   3.349  0.6220  0.6033 -0.2742
   65MOL    O5111699   2.326   3.151   3.316  0.0196 -0.0698 -0.4958
   65MOL    H5211700   2.298   3.135   3.576  1.3957  0.3302 -0.8556
   65MOL    H5311701   2.221   2.990   3.640  0.5343 -2.2497 -1.4077
   65MOL    H5411702   2.438   2.898   3.493 -1.6672 -0.9108  0.4967
   65MOL    H5511703   2.367   3.202   3.247  1.7108 -2.9823 -1.7871
   65MOL    C5611704   2.242   2.885   3.398 -0.8850 -0.1680  0.1432
   65MOL    C5711705   2.276   2.795   3.274  0.1223 -0.4163  0.2371
   65MOL    C5811706   2.136   2.767   3.206  0.4828 -0.2030  0.0715
   65MOL    O5911707   2.112   2.758   3.088 -0.6667  0.5327  0.0600
   65MOL    O6011708   2.042   2.755   3.298 -0.7638 -0.7186 -0.3304
   65MOL    H6111709   2.166   2.959   3.371  0.6159  1.3401 -0.0154
   65MOL    H6211710   2.213   2.818   3.479 -1.1691  0.7403  0.8000
   65MOL    H6311711   2.340   2.852   3.207 -2.1902 -0.1872 -1.8664
   65MOL    H6411712   1.964   2.726   3.253 -1.0549  0.8472 -0.8707
   65MOL    C6511713   2.353   2.668   3.308  0.4002  0.1336 -0.3714
   65MOL    C6611714   2.401   2.579   3.182  0.3470  0.0461 -0.1434
   65MOL    C6711715   2.290   2.480   3.133  0.3897  0.0626  0.7524
   65MOL    O6811716   2.229   2.406   3.214  0.4605 -0.1907  0.3587
   65MOL    O6911717   2.273   2.477   3.000 -0.4978 -0.2363  0.3048
   65MOL    H7011718   2.290   2.611   3.376  1.0132 -1.7075 -1.2804
   65MOL    H7111719   2.427   2.706   3.378 -1.2660  2.0485  0.3945
   65MOL    H7211720   2.410   2.653   3.102  0.8265  0.5162  0.3397
   65MOL    H7311721   2.207   2.415   2.973 -0.3741 -0.9866  1.6804
   65MOL    C7411722   2.536   2.502   3.190 -0.0531 -0.0566  0.3070
   65MOL    C7511723   2.659   2.588   3.225 -0.2766  0.5943  1.2119
   65MOL    C7611724   2.647   2.737   3.187 -0.1348  0.1256 -0.0913
   65MOL    O7711725   2.649   2.779   3.073  0.0459 -0.9434  0.0896
   65MOL    O7811726   2.647   2.817   3.296  0.2808  0.3311  0.4146
   65MOL    H7911727   2.559   2.448   3.099 -1.3043 -2.3247  1.2999
   65MOL    H8011728   2.531   2.431   3.273 -2.1535 -0.0407  0.2300
   65MOL    H8111729   2.675   2.578   3.332  0.8310 -0.8935  0.9283
   65MOL    H8211730   2.644   2.907   3.267  0.4186  0.0124 -0.5976
   65MOL    C8311731   2.789   2.517   3.170  0.3688 -0.7190 -0.0932
   65MOL    C8411732   2.911   2.544   3.256  0.2579 -0.4538 -0.2708
   65MOL    C8511733   2.989   2.669   3.213  0.0671  0.5141  0.0053
   65MOL    O8611734   2.994   2.709   3.097  0.3082  0.4580 -0.1622
   65MOL    O8711735   3.041   2.720   3.332 -0.0348  0.3230  0.2636
   65MOL    H8811736   2.808   2.564   3.073 -1.2670  0.2457  0.0407
   65MOL    H8911737   2.782   2.411   3.145 -0.4303 -0.1167 -2.5305
   65MOL    H9011738   2.878   2.555   3.359  0.7227 -0.6045 -0.1050
   65MOL    H9111739   2.978   2.695   3.397  0.0161 -1.3965 -0.3330
   65MOL    C9211740   3.019   2.429   3.251 -0.4286  0.7754 -0.2230
   65MOL    C9311741   3.015   2.327   3.373 -0.3040  0.8184 -0.1402
   65MOL    C9411742   3.080   2.386   3.499  0.7818 -0.3515 -0.4593
   65MOL    O9511743   3.136   2.498   3.504 -0.0976 -0.1845 -0.1191
   65MOL    O9611744   3.074   2.300   3.604  0.3929  0.2188  0.0354
   65MOL    H9711745   3.122   2.457   3.231 -0.1049  0.0396  0.3782
   65MOL    H9811746   3.000   2.379   3.156 -0.0193 -1.4306  0.8196
   65MOL    H9911747   2.914   2.295   3.397 -0.9505  1.1480 -2.3007
   65MOL   H10011748   3.128   2.335   3.674  0.9562  0.0799 -0.3248
   65MOL   C10111749   3.109   2.201   3.331  0.2944 -0.3347 -0.6380
   65MOL   C10211750   3.042   2.064   3.309 -0.0817  0.2267  0.6616
   65MOL   C10311751   2.929   2.072   3.200 -0.1321  0.0076  0.1177
   65MOL   O10411752   2.814   2.040   3.226 -0.3773 -0.1748 -0.0606
   65MOL   O10511753   2.972   2.122   3.079  0.2585 -0.1299  0.2933
   65MOL   H10611754   3.194   2.185   3.396 -0.6419  1.2814  1.0222
   65MOL   H10711755   3.163   2.216   3.238  1.4132 -2.6259 -0.3902
   65MOL   H10811756   3.108   1.992   3.260  0.9530  1.0699  0.7952
   65MOL   H10911757   2.901   2.141   3.020  1.5082 -0.2839 -1.2991
   65MOL   C11011758   2.996   2.008   3.441  0.1367  0.2623  0.2904
   65MOL   C11111759   3.102   1.961   3.549  0.9591 -0.0692 -0.2009
   65MOL   C11211760   3.194   1.846   3.502 -0.1760  0.0359 -0.4160
   65MOL   O11311761   3.168   1.766   3.413 -0.2864  0.3001 -0.1334
   65MOL   O11411762   3.305   1.839   3.574 -0.4448 -0.1619 -0.7287
   65MOL   H11511763   2.924   1.926   3.432 -1.1752  1.4864 -0.6676
   65MOL   H11611764   2.937   2.085   3.493  0.6771  0.0177  1.2771
   65MOL   H11711765   3.150   2.055   3.574 -0.1093 -0.2097  2.5924
   65MOL   H11811766   3.352   1.762   3.545 -1.1577 -0.6055 -0.6990
   65MOL   C11911767   3.040   1.908   3.682  0.5617 -0.3978 -1.1270
   65MOL   C12011768   2.931   2.006   3.750 -0.0296  0.2504  0.1078
   65MOL   C12111769   2.935   1.995   3.899  0.6874  0.2846 -0.2259
   65MOL   O12211770   2.968   2.089   3.968 -0.1049  0.3150  0.2259
   65MOL   O12311771   2.925   1.867   3.949  0.1900 -0.0130  0.4139
   65MOL   H12411772   3.122   1.872   3.745 -0.8608 -1.1928  0.3119
   65MOL   H12511773   2.983   1.817   3.662  2.9013 -2.4676  1.0350
   65MOL   H12611774   2.970   2.105   3.725  0.0078  0.0318 -0.7276
   65MOL   H12711775   2.936   1.862   4.043 -1.0770  1.1147  0.6272
   65MOL   C12811776   2.784   1.990   3.698 -0.0706  0.0189  1.0515
   65MOL   C12911777   2.671   2.095   3.722  0.4295  1.1289 -0.2723
   65MOL   C13011778   2.533   2.041   3.676  0.8513 -0.4771 -0.2533
   65MOL   O13111779   2.511   1.989   3.562  0.2655  0.3916  0.2356
   65MOL   O13211780   2.438   2.042   3.771  0.3881 -0.1270 -0.4596
   65MOL   H13311781   2.743   1.891   3.720 -0.4477 -0.2946 -0.9521
   65MOL   H13411782   2.786   1.970   3.591 -2.7861  0.1390  0.9267
   65MOL   H13511783   2.663   2.118   3.829  1.8237  1.1737 -0.1699
   65MOL   H13611784   2.361   2.001   3.734  0.7089  0.7112 -2.0949
   65MOL   C13711785   2.694   2.228   3.649  0.1049  0.2756 -0.5482
   65MOL   C13811786   2.618   2.356   3.688  0.4418 -0.2155 -0.8558
   65MOL   C13911787   2.480   2.380   3.611  0.8224 -0.0514 -0.0786
   65MOL   O14011788   2.430   2.302   3.528 -0.4163  0.2723  0.6410
   65MOL   O14111789   2.413   2.490   3.653  0.2211 -0.6327  0.2732
   65MOL   H14211790   2.676   2.215   3.542  0.7650 -0.7155 -0.5412
   65MOL   H14311791   2.799   2.259   3.643 -0.3268  1.7270 -0.9569
   65MOL   H14411792   2.590   2.348   3.793 -0.6152  1.7119 -0.9714
   65MOL   H14511793   2.339   2.487   3.593  1.2608 -1.0166 -1.0173
   65MOL   C14611794   2.708   2.485   3.680  0.5343  0.5738 -0.1729
   65MOL   C14711795   2.798   2.497   3.805  0.3335  0.3470  0.0298
   65MOL   C14811796   2.740   2.508   3.948 -0.0849  0.1629 -0.2182
   65MOL   O14911797   2.618   2.519   3.966 -0.6792  0.1878  0.1265
   65MOL   O15011798   2.839   2.503   4.047  0.3205  0.5303 -0.1658
   65MOL   H15111799   2.648   2.576   3.674 -0.2030  0.1748  1.0390
   65MOL   H15211800   2.771   2.475   3.592 -0.4765  1.5633 -1.0249
   65MOL   H15311801   2.865   2.412   3.817  0.6113  0.5409 -0.1601
   65MOL   H15411802   2.924   2.493   4.008  0.6148 -1.8014  0.9479
   65MOL   C15511803   2.915   2.597   3.778 -0.1072 -0.1414  0.1846
   65MOL   C15611804   2.879   2.744   3.768  0.5523 -0.7273 -0.1816
   65MOL   C15711805   2.838   2.790   3.623  0.1473 -0.3891  0.6218
   65MOL   O15811806   2.828   2.717   3.532 -0.5509  0.4651  0.1442
   65MOL   O15911807   2.823   2.919   3.608 -0.3526  0.1361 -0.0280
   65MOL   H16011808   2.958   2.561   3.684 -0.4689 -1.4711  0.5192
   65MOL   H16111809   2.980   2.586   3.864  0.1563  0.5449  0.0763
   65MOL   H16211810   2.788   2.763   3.827  0.5847  0.5088 -0.5204
   65MOL   H16311811   2.800   2.943   3.519  1.5639 -0.3487 -0.6897
   65MOL   C16411812   3.002   2.827   3.817 -0.9793 -0.3149  0.0209
   65MOL   C16511813   3.129   2.808   3.728  0.1031 -0.4366  0.6795
   65MOL   C16611814   3.245   2.730   3.795  0.0856  0.5490  0.0576
   65MOL   O16711815   3.274   2.732   3.914 -0.6041 -0.5880  0.5465
   65MOL   O16811816   3.328   2.665   3.707 -0.3446  0.4880  0.4893
   65MOL   H16911817   3.025   2.809   3.923  0.5811  1.2469 -0.0338
   65MOL   H17011818   2.983   2.934   3.811 -0.4621 -0.2426 -0.3544
   65MOL   H17111819   3.093   2.744   3.647 -0.1144 -0.5129  0.8348
   65MOL   H17211820   3.390   2.620   3.762 -0.7675 -1.4132 -0.5522
   65MOL   C17311821   3.181   2.945   3.667  0.6843 -0.4888  0.3422
   65MOL   C17411822   3.228   3.047   3.767  0.1704  0.1218 -0.7641
   65MOL   C17511823   3.228   3.188   3.708 -0.5362 -0.6391 -0.2463
   65MOL   O17611824   3.331   3.250   3.689 -0.3952  0.0259 -0.6099
   65MOL   O17711825   3.107   3.246   3.698  0.2873  0.3051 -0.5073
   65MOL   H17811826   3.098   2.990   3.613 -1.7089 -3.3965  1.4708
   65MOL   H17911827   3.258   2.928   3.591  1.5367  0.6093  0.9495
   65MOL   H18011828   3.165   3.043   3.856  2.9859  2.4087  1.4547
   65MOL   H18111829   3.112   3.332   3.658 -1.5573  0.2532 -0.8910
   65MOL   H18211830   3.325   3.021   3.810  0.6457 -0.0716 -1.9311
   66MOL     C111831   3.825   6.611   4.270 -0.2579 -0.5267  0.4665
   66MOL     C211832   3.777   6.469   4.298  0.4333  0.4143  0.6160
   66MOL     C311833   3.893   6.367   4.309  0.4818 -0.2803 -0.6256
   66MOL     O411834   3.878   6.245   4.285 -0.7315 -0.1772 -0.5306
   66MOL     O511835   4.008   6.419   4.365  0.3087 -0.1344 -0.1166
   66MOL     H611836   3.898   6.611   4.190  0.1135  2.1680  0.7424
   66MOL     H711837   3.758   6.696   4.252  1.3363  0.6226 -0.1423
   66MOL     H811838   3.717   6.460   4.389  1.6383  2.9191  1.7143
   66MOL     H911839   4.073   6.354   4.388  0.6656 -0.1553 -1.1347
   66MOL    H1011840   3.870   6.653   4.360  1.2138  0.7193 -0.8208
   66MOL    C1111841   3.684   6.420   4.184 -0.6331 -0.4699  0.7945
   66MOL    C1211842   3.543   6.490   4.180 -0.3739 -0.4062 -0.2844
   66MOL    C1311843   3.450   6.437   4.287  0.5154 -0.5158 -0.0937
   66MOL    O1411844   3.475   6.351   4.372 -0.2955  0.3247 -0.4186
   66MOL    O1511845   3.338   6.514   4.289 -0.5199 -0.2565 -0.1144
   66MOL    H1611846   3.660   6.314   4.186 -1.2803 -0.3548 -0.4528
   66MOL    H1711847   3.727   6.403   4.086  0.1975  1.1729  0.8500
   66MOL    H1811848   3.563   6.592   4.213  1.1839 -0.9389  0.4552
   66MOL    H1911849   3.354   6.587   4.231 -0.1315 -0.7469 -0.6264
   66MOL    C2011850   3.482   6.479   4.037 -0.0047  0.1315  0.0868
   66MOL    C2111851   3.516   6.598   3.945 -0.2292 -0.4117  0.2705
   66MOL    C2211852   3.480   6.736   3.996 -0.6342 -0.0127  0.1802
   66MOL    O2311853   3.571   6.821   4.012  0.7417  0.5557 -0.2869
   66MOL    O2411854   3.351   6.768   4.016  0.0467 -0.0421 -0.1346
   66MOL    H2511855   3.373   6.475   4.032  0.0476  0.5523 -1.5364
   66MOL    H2611856   3.501   6.379   3.998  0.0162  0.6491 -1.2381
   66MOL    H2711857   3.624   6.587   3.948 -0.4148 -1.9943  1.3041
   66MOL    H2811858   3.329   6.859   4.030  1.4085 -0.0953  2.6042
   66MOL    C2911859   3.469   6.577   3.802 -0.3016  0.0971 -0.2610
   66MOL    C3011860   3.525   6.673   3.688 -0.1992 -0.6194 -0.0017
   66MOL    C3111861   3.464   6.641   3.555 -0.5610  0.1639 -0.5362
   66MOL    O3211862   3.410   6.724   3.485  0.3135  0.1204 -0.1494
   66MOL    O3311863   3.477   6.510   3.517  0.0742 -0.5858 -0.1652
   66MOL    H3411864   3.361   6.562   3.804  0.0250 -2.5122 -0.4689
   66MOL    H3511865   3.500   6.475   3.779 -1.0226 -0.1426 -0.1526
   66MOL    H3611866   3.487   6.770   3.721 -0.8544 -0.6008 -0.7996
   66MOL    H3711867   3.439   6.490   3.433  2.7471 -3.9587 -0.6741
   66MOL    C3811868   3.683   6.676   3.670 -0.4431 -0.0708 -0.8291
   66MOL    C3911869   3.755   6.807   3.633  0.1875  0.0208  0.5410
   66MOL    C4011870   3.753   6.818   3.480 -0.0347 -0.6161  0.3170
   66MOL    O4111871   3.793   6.726   3.405 -0.2153  0.2284 -0.6428
   66MOL    O4211872   3.693   6.928   3.439  0.6355  1.1297 -0.8914
   66MOL    H4311873   3.719   6.604   3.597  0.3284  0.9292 -1.4315
   66MOL    H4411874   3.720   6.645   3.768 -1.5530  2.4740  0.4356
   66MOL    H4511875   3.697   6.884   3.684 -1.3672 -0.3727 -0.6050
   66MOL    H4611876   3.694   6.928   3.344 -1.3682 -0.5421 -0.9477
   66MOL    C4711877   3.903   6.817   3.689  0.1762 -0.7651  0.3192
   66MOL    C4811878   3.965   6.956   3.718  0.4305  0.2071  0.4517
   66MOL    C4911879   4.097   6.936   3.794 -1.0941  0.3662 -0.5360
   66MOL    O5011880   4.139   6.835   3.854 -0.2856  0.4059 -0.8165
   66MOL    O5111881   4.155   7.057   3.808  0.3518 -0.1968  0.7466
   66MOL    H5211882   3.965   6.752   3.626 -1.4893 -2.2734  0.1968
   66MOL    H5311883   3.902   6.769   3.787  1.8958 -0.4739  0.4887
   66MOL    H5411884   3.992   6.997   3.621 -1.0145  1.8462  0.7178
   66MOL    H5511885   4.237   7.061   3.854 -0.4384 -1.0950  2.2565
   66MOL    C5611886   3.869   7.055   3.788  0.1156  0.2501  0.2800
   66MOL    C5711887   3.802   7.157   3.690 -0.7059  0.2545 -0.8321
   66MOL    C5811888   3.899   7.275   3.649 -0.3028  0.6371  0.5208
   66MOL    O5911889   3.892   7.390   3.693  0.0892  0.1461  0.2021
   66MOL    O6011890   3.995   7.240   3.564  0.6507 -0.0247  0.4958
   66MOL    H6111891   3.912   7.123   3.862 -0.7553  1.2781 -0.1375
   66MOL    H6211892   3.794   6.994   3.839 -1.3452 -1.6381 -3.9371
   66MOL    H6311893   3.766   7.096   3.607  2.0955 -2.0584 -0.4174
   66MOL    H6411894   4.050   7.317   3.561 -2.5180  2.4081  1.7556
   66MOL    C6511895   3.672   7.219   3.753  0.0719  0.1954  0.1124
   66MOL    C6611896   3.563   7.254   3.654  0.1435  0.0681 -0.4933
   66MOL    C6711897   3.592   7.369   3.559 -0.3621 -0.0266  0.5440
   66MOL    O6811898   3.590   7.485   3.586  0.2473 -0.0604 -0.4600
   66MOL    O6911899   3.629   7.317   3.436  0.4858 -0.6350 -0.0138
   66MOL    H7011900   3.704   7.295   3.824  0.6068  0.9004 -0.8918
   66MOL    H7111901   3.630   7.141   3.817  1.2364 -1.1092 -0.6704
   66MOL    H7211902   3.553   7.167   3.589  0.2429  0.5416 -1.1411
   66MOL    H7311903   3.655   7.396   3.392 -0.7288 -0.4260 -0.3665
   66MOL    C7411904   3.422   7.285   3.717  0.0904 -0.1404 -0.2444
   66MOL    C7511905   3.340   7.158   3.764 -0.3103 -0.3396 -0.0380
   66MOL    C7611906   3.292   7.071   3.646 -0.2300  0.1352 -0.0076
   66MOL    O7711907   3.367   6.994   3.585  0.3957  0.1960  0.4294
   66MOL    O7811908   3.159   7.087   3.620 -0.0370  0.5312  0.0484
   66MOL    H7911909   3.360   7.338   3.644 -0.9879 -0.9330  0.0820
   66MOL    H8011910   3.437   7.354   3.800  2.2308 -0.8244 -0.0392
   66MOL    H8111911   3.401   7.098   3.831  0.5980  3.4401  2.6757
   66MOL    H8211912   3.134   7.018   3.560  0.2353 -0.3070  0.8745
   66MOL    C8311913   3.215   7.207   3.844  0.1897  0.4439  0.5523
   66MOL    C8411914   3.249   7.275   3.974 -0.0574  0.5281 -0.6099
   66MOL    C8511915   3.356   7.208   4.061 -0.3259  0.2742 -0.3647
   66MOL    O8611916   3.452   7.262   4.111 -0.1858 -0.4787  0.1662
   66MOL    O8711917   3.323   7.076   4.083 -0.7671 -0.3185  0.4281
   66MOL    H8811918   3.158   7.115   3.856 -0.1141  0.4969 -0.4638
   66MOL    H8911919   3.163   7.275   3.778 -1.1884 -0.7612  0.3889
   66MOL    H9011920   3.276   7.376   3.943 -1.3746  1.9118  2.5567
   66MOL    H9111921   3.402   7.048   4.127  0.7197  0.8393 -1.4784
   66MOL    C9211922   3.125   7.334   4.056  0.4350 -0.1334 -0.7763
   66MOL    C9311923   3.155   7.457   4.140 -0.0115 -0.6756 -0.0814
   66MOL    C9411924   3.219   7.424   4.278 -0.0570  0.6140  0.0030
   66MOL    O9511925   3.194   7.325   4.342 -0.0297  0.1863  0.3091
   66MOL    O9611926   3.315   7.510   4.308  0.0013  0.3036 -0.1229
   66MOL    H9711927   3.077   7.258   4.118  1.0085  0.6846  0.7075
   66MOL    H9811928   3.054   7.366   3.980 -2.4888 -0.9146  1.5086
   66MOL    H9911929   3.227   7.512   4.080  0.6078 -0.5907  0.7403
   66MOL   H10011930   3.356   7.481   4.388 -0.0631  1.9331  0.5209
   66MOL   C10111931   3.041   7.557   4.163 -0.2843  0.0177 -0.3352
   66MOL   C10211932   3.075   7.703   4.195 -0.0314  0.3589 -0.3543
   66MOL   C10311933   2.970   7.761   4.295 -0.5104  0.2266 -0.5386
   66MOL   O10411934   2.936   0.024   4.288  0.0287 -0.6288 -0.0192
   66MOL   O10511935   2.923   7.679   4.392  0.6340  0.0109 -0.0232
   66MOL   H10611936   2.993   7.502   4.244  0.9012 -2.4136 -1.2313
   66MOL   H10711937   2.975   7.544   4.077  1.1915 -0.1667 -1.4612
   66MOL   H10811938   3.167   7.713   4.252 -0.0136  1.6784 -0.6028
   66MOL   H10911939   2.875   7.718   4.463 -0.5480 -0.1352 -0.7087
   66MOL   C11011940   3.092   7.799   4.070  0.8814 -0.6343  0.9575
   66MOL   C11111941   3.242   7.817   4.031  0.2250 -0.3847 -0.0191
   66MOL   C11211942   3.327   0.041   4.140  0.0894  0.0657  0.2628
   66MOL   O11311943   3.420   7.837   4.194 -0.3863  0.1691  0.6343
   66MOL   O11411944   3.293   0.171   4.159  0.0093 -0.1251 -0.3905
   66MOL   H11511945   3.047   0.045   4.077  0.4001 -0.9551  2.6106
   66MOL   H11611946   3.047   7.747   3.985 -2.9017  0.0856  2.4437
   66MOL   H11711947   3.278   7.714   4.026  0.4283 -0.2803 -0.7858
   66MOL   H11811948   3.354   0.225   4.207 -0.5163 -0.7847  1.0099
   66MOL   C11911949   3.255   0.029   3.892  0.0758 -0.1581 -0.6083
   66MOL   C12011950   3.217   7.807   3.763  0.2465  0.7557  0.6154
   66MOL   C12111951   3.299   7.679   3.742 -0.5305  0.5188  0.2548
   66MOL   O12211952   3.256   7.564   3.745  0.3778  0.2206 -0.5130
   66MOL   O12311953   3.427   7.703   3.714  0.1218 -0.2435  0.0429
   66MOL   H12411954   3.358   0.059   3.876 -0.3312  2.0530  0.6643
   66MOL   H12511955   3.210   0.129   3.898  0.8454  0.2387 -1.3542
   66MOL   H12611956   3.118   7.762   3.770 -0.7768  2.9240  0.8029
   66MOL   H12711957   3.482   7.627   3.699 -1.9559 -1.3899 -2.0271
   66MOL   C12811958   3.229   0.055   3.636 -0.1952 -0.2747 -0.3463
   66MOL   C12911959   3.117   0.164   3.626 -0.6899 -0.0883  0.0192
   66MOL   C13011960   3.004   0.135   3.523  0.6899 -0.5590 -1.3822
   66MOL   O13111961   2.979   0.198   3.417 -0.3456  0.2509  0.2112
   66MOL   O13211962   2.930   0.035   3.574 -0.2159  0.2805 -0.4360
   66MOL   H13311963   3.215   7.850   3.545 -2.7726  2.1496 -1.5838
   66MOL   H13411964   3.328   0.100   3.637 -0.7187  0.9047  1.1602
   66MOL   H13511965   3.064   0.155   3.721 -0.5152  1.3101  0.2593
   66MOL   H13611966   2.856   0.017   3.518  0.2282  1.3263 -1.3912
   66MOL   C13711967   3.168   0.316   3.601  0.4147 -0.1693  0.4513
   66MOL   C13811968   3.201   0.387   3.725  0.1514 -0.1866 -1.1668
   66MOL   C13911969   3.335   0.339   3.793 -0.3186 -0.2623  0.2344
   66MOL   O14011970   3.351   0.327   3.913  0.7661 -0.1764 -0.0179
   66MOL   O14111971   3.443   0.328   3.710  0.0350  0.4303  0.2544
   66MOL   H14211972   3.097   0.382   3.553  0.5858  1.5609  2.4842
   66MOL   H14311973   3.256   0.303   3.538  0.9841 -1.5687  1.4824
   66MOL   H14411974   3.221   0.488   3.690 -0.9093  0.6605  0.5908
   66MOL   H14511975   3.507   0.301   3.775 -1.2060 -0.9046  0.9347
   66MOL   C14611976   3.084   0.399   3.822  0.3178  0.3384 -0.4685
   66MOL   C14711977   3.040   0.536   3.882 -0.1135 -0.3594  0.1216
   66MOL   C14811978   2.977   0.629   3.771 -0.6246 -0.0883 -0.6961
   66MOL   O14911979   3.002   0.614   3.650 -0.1050  0.3307 -0.2541
   66MOL   O15011980   2.901   0.726   3.827 -0.1120  0.3014  0.0865
   66MOL   H15111981   3.089   0.318   3.895 -1.0511 -0.0844 -0.8339
   66MOL   H15211982   2.990   0.377   3.771 -0.1041  0.4108  0.2730
   66MOL   H15311983   2.949   0.521   3.941 -0.6197  0.5373 -0.4063
   66MOL   H15411984   2.855   0.784   3.768 -0.5926  0.3961  0.5414
   66MOL   C15511985   3.147   0.594   3.974  0.2979  0.1998 -0.3014
   66MOL   C15611986   3.106   0.627   4.120  0.2458  0.1741 -0.4963
   66MOL   C15711987   3.205   0.727   4.190 -0.1754 -0.2371  0.4566
   66MOL   O15811988   3.324   0.703   4.205  0.4521  0.7092  0.2352
   66MOL   O15911989   3.143   0.837   4.241 -0.3326  0.6116  0.5424
   66MOL   H16011990   3.181   0.687   3.928 -1.7174  1.4061  0.5715
   66MOL   H16111991   3.241   0.540   3.982 -0.1065 -0.3124  1.0569
   66MOL   H16211992   3.007   0.673   4.111  0.8684  1.3974 -1.1901
   66MOL   H16311993   3.216   0.892   4.265 -0.3921  0.4961  0.9979
   66MOL   C16411994   3.090   0.486   4.199 -0.1956 -0.5423  0.4040
   66MOL   C16511995   2.991   0.478   4.314 -0.8324  0.3896 -0.9354
   66MOL   C16611996   2.842   0.471   4.274  0.1354  0.3859  0.5713
   66MOL   O16711997   2.760   0.392   4.330  0.0983 -0.0216  0.9398
   66MOL   O16811998   2.804   0.549   4.175  0.0417  0.3877 -0.2921
   66MOL   H16911999   3.191   0.455   4.225 -0.6786 -2.7979 -0.3090
   66MOL   H17012000   3.050   0.417   4.125 -0.0611  1.1845 -1.3410
   66MOL   H17112001   2.998   0.381   4.362  0.1898  0.2803 -1.3015
   66MOL   H17212002   2.724   0.503   4.154  0.5854 -0.9794  0.5205
   66MOL   C17312003   3.021   0.586   4.426 -0.3237  0.4647 -0.1706
   66MOL   C17412004   2.965   0.552   4.567 -0.1677  0.0388 -0.2118
   66MOL   C17512005   2.992   0.659   4.672  0.0790  0.0205  0.1270
   66MOL   O17612006   3.018   0.772   4.635 -0.0683  0.8294  0.5237
   66MOL   O17712007   2.989   0.611   4.797  0.1649  0.3216 -0.5783
   66MOL   H17812008   2.969   0.674   4.387 -1.4061 -0.3600 -0.6185
   66MOL   H17912009   3.125   0.617   4.432 -0.2429  0.0778  0.4461
   66MOL   H18012010   2.857   0.541   4.566 -0.1521 -0.1417 -2.0315
   66MOL   H18112011   3.025   0.675   4.857 -1.2547  1.5382 -0.9838
   66MOL   H18212012   3.007   0.456   4.597 -0.3763 -0.0353 -0.1607
   67MOL     C112013   4.942   7.586   4.218 -0.4886  0.1620  0.2880
   67MOL     C212014   4.866   7.456   4.206  0.5290 -0.0981  0.4958
   67MOL     C312015   4.737   7.486   4.122 -0.2871  0.5625 -0.3300
   67MOL     O412016   4.669   7.585   4.121 -0.1519 -0.4958 -0.0972
   67MOL     O512017   4.707   7.376   4.047 -0.0128 -0.7883  0.3537
   67MOL     H612018   5.032   7.566   4.277  0.5423 -0.4754 -1.4545
   67MOL     H712019   4.980   7.629   4.125 -1.7013  0.9024  0.1224
   67MOL     H812020   4.923   7.379   4.154 -1.1213 -0.8522 -0.2334
   67MOL     H912021   4.624   7.405   4.013  0.1545 -0.6965  0.0229
   67MOL    H1012022   4.881   7.664   4.263 -0.0301  0.7522 -0.0939
   67MOL    C1112023   4.843   7.399   4.350  0.2995 -0.1542 -0.0431
   67MOL    C1212024   4.744   7.280   4.374 -0.1272 -0.6339  0.2995
   67MOL    C1312025   4.756   7.161   4.282  0.3752  0.5393  0.4647
   67MOL    O1412026   4.676   7.117   4.200  0.2774 -0.1908 -0.1394
   67MOL    O1512027   4.884   7.114   4.289  0.5585 -0.5648 -0.1171
   67MOL    H1612028   4.814   7.480   4.417 -1.0066  0.4596 -1.3052
   67MOL    H1712029   4.940   7.371   4.391  1.3490  0.0446 -2.2834
   67MOL    H1812030   4.777   7.248   4.473 -1.2107 -1.1131  0.5126
   67MOL    H1912031   4.909   7.045   4.230 -0.7720 -1.1580 -0.0054
   67MOL    C2012032   4.601   7.338   4.389 -0.2058 -0.1116 -0.3666
   67MOL    C2112033   4.503   7.245   4.466 -0.4223  0.5952 -0.5374
   67MOL    C2212034   4.372   7.310   4.497  0.7389  0.3145 -0.0408
   67MOL    O2312035   4.339   7.411   4.448 -0.1153  0.0129  0.4696
   67MOL    O2412036   4.289   7.231   4.574  0.0143 -0.8710 -0.2309
   67MOL    H2512037   4.560   7.341   4.288 -1.4360 -1.1627  0.0787
   67MOL    H2612038   4.603   7.441   4.423  0.1438 -0.1170 -0.3744
   67MOL    H2712039   4.467   7.175   4.391 -0.9500  0.6266 -0.3237
   67MOL    H2812040   4.202   7.266   4.571 -0.0012 -0.8864  0.0089
   67MOL    C2912041   4.559   7.183   4.595  0.5929 -0.4234  0.5509
   67MOL    C3012042   4.627   7.271   4.702 -0.3474 -0.9110  0.0004
   67MOL    C3112043   4.740   7.202   4.778 -0.2058 -0.1676  0.5762
   67MOL    O3212044   4.859   7.226   4.750  0.1850  0.4329 -0.5573
   67MOL    O3312045   4.696   7.115   4.873 -0.0651  1.0123 -0.3500
   67MOL    H3412046   4.629   7.103   4.570  2.2124  1.0081  0.3890
   67MOL    H3512047   4.481   7.117   4.635  0.0726  0.3472  0.8054
   67MOL    H3612048   4.667   7.356   4.646 -0.9020 -0.7269 -0.1190
   67MOL    H3712049   4.770   7.074   4.914 -1.7015 -3.0159 -1.2118
   67MOL    C3812050   4.525   7.332   4.797  0.0945  0.2308 -0.0845
   67MOL    C3912051   4.581   7.440   4.902  0.1940  0.1989 -0.3945
   67MOL    C4012052   4.587   7.366   5.034 -0.1595 -0.4521  0.4334
   67MOL    O4112053   4.692   7.347   5.089  0.0799 -0.3846  0.3106
   67MOL    O4212054   4.467   7.335   5.082 -0.0947  0.7535 -0.2386
   67MOL    H4312055   4.467   7.249   4.836  1.8008 -1.2322 -0.6237
   67MOL    H4412056   4.461   7.387   4.728  0.4744  0.1539 -0.5065
   67MOL    H4512057   4.683   7.469   4.877 -0.1222 -0.3498 -2.4282
   67MOL    H4612058   4.467   7.281   5.160  0.8368  0.2170 -0.6214
   67MOL    C4712059   4.492   7.568   4.924  0.0332 -0.0166 -0.1350
   67MOL    C4812060   4.535   7.697   4.846  0.2383  0.6422  0.1060
   67MOL    C4912061   4.539   7.660   4.698  0.1607 -0.8313  0.4289
   67MOL    O5012062   4.647   7.656   4.631  0.1398  0.2297  0.9218
   67MOL    O5112063   4.418   7.642   4.641 -0.5557 -0.1220  0.1814
   67MOL    H5212064   4.479   7.583   5.031 -2.5660 -0.1793 -0.3854
   67MOL    H5312065   4.392   7.553   4.883  0.6350 -2.0682 -0.8612
   67MOL    H5412066   4.452   7.764   4.870 -0.6571 -0.6937  0.7882
   67MOL    H5512067   4.409   7.637   4.547  0.6505  0.6000  0.0058
   67MOL    C5612068   4.669   7.756   4.902 -0.7845 -0.7331 -0.7856
   67MOL    C5712069   4.701   0.044   4.850 -0.3681 -0.0705 -0.0144
   67MOL    C5812070   4.840   0.079   4.902 -0.3602 -0.0196 -0.2483
   67MOL    O5912071   4.867   0.147   4.997  0.0680  0.7354  0.2315
   67MOL    O6012072   4.933   0.019   4.823 -0.4678 -0.0603 -0.5261
   67MOL    H6112073   4.755   7.691   4.888 -0.9063 -0.8637 -0.9204
   67MOL    H6212074   4.663   7.765   5.011 -2.8251  2.3731 -1.0800
   67MOL    H6312075   4.701   0.050   4.741  1.4781 -1.4373 -0.0994
   67MOL    H6412076   5.018   0.041   4.857 -0.9600  0.6055  0.3092
   67MOL    C6512077   4.598   0.148   4.900 -0.2625  0.3027  0.0637
   67MOL    C6612078   4.608   0.299   4.867  0.7301  1.3688 -0.1143
   67MOL    C6712079   4.502   0.380   4.946  0.2341  0.7444  0.5138
   67MOL    O6812080   4.405   0.324   4.998  0.0334 -0.5671  0.6335
   67MOL    O6912081   4.522   0.512   4.937 -0.5043 -1.2645 -0.0650
   67MOL    H7012082   4.600   0.139   5.009  0.6355 -0.7826 -0.0373
   67MOL    H7112083   4.494   0.115   4.889 -0.9188  2.1203  0.6878
   67MOL    H7212084   4.702   0.339   4.903  1.2017 -0.3863  0.6654
   67MOL    H7312085   4.596   0.528   4.880 -1.0554 -1.3582 -0.8149
   67MOL    C7412086   4.598   0.328   4.716 -0.3944  0.1559  0.2297
   67MOL    C7512087   4.738   0.316   4.643  0.0245  0.2634  0.2569
   67MOL    C7612088   4.842   0.420   4.678  0.7021  0.2043 -0.0254
   67MOL    O7712089   4.813   0.531   4.720  0.2961  0.0290  0.1239
   67MOL    O7812090   4.957   0.388   4.631 -0.2729  0.4352  0.4660
   67MOL    H7912091   4.556   0.423   4.682  1.7617  0.5371 -1.4384
   67MOL    H8012092   4.533   0.249   4.678 -0.0901  0.1684 -0.3244
   67MOL    H8112093   4.795   0.231   4.679  0.5580 -0.0472 -1.2793
   67MOL    H8212094   5.024   0.455   4.636  1.9708 -1.5807 -1.4314
   67MOL    C8312095   4.714   0.304   4.491  0.3102  0.1440  0.1575
   67MOL    C8412096   4.719   0.158   4.426  0.1214 -0.8862 -0.0990
   67MOL    C8512097   4.864   0.109   4.405  0.0624  0.7548  0.4624
   67MOL    O8612098   4.940   0.165   4.335 -0.3597  0.1530 -0.2015
   67MOL    O8712099   4.893   7.852   4.467 -0.0669 -0.1116 -0.2477
   67MOL    H8812100   4.785   0.369   4.442 -1.2574  1.8552  0.0954
   67MOL    H8912101   4.615   0.346   4.471 -0.4854 -2.2571 -1.1497
   67MOL    H9012102   4.662   0.096   4.495  0.3432 -1.4949 -0.4540
   67MOL    H9112103   4.981   7.818   4.462 -0.0525 -0.8170  3.3224
   67MOL    C9212104   4.639   0.152   4.291  0.0541  0.2407 -0.3995
   67MOL    C9312105   4.483   0.155   4.304 -0.0950 -0.4464 -0.5600
   67MOL    C9412106   4.435   0.049   4.402 -0.0271 -0.1901  0.2929
   67MOL    O9512107   4.383   0.074   4.511  0.4157  0.1387  0.5074
   67MOL    O9612108   4.465   7.780   4.350  0.1900 -0.3444 -0.4713
   67MOL    H9712109   4.658   0.064   4.230 -0.6711  0.8072 -1.4712
   67MOL    H9812110   4.668   0.241   4.235  0.5946  0.7473  0.6797
   67MOL    H9912111   4.451   0.247   4.354  0.2150 -1.1979  1.0575
   67MOL   H10012112   4.496   7.775   4.261  0.4269  0.6962 -0.4536
   67MOL   C10112113   4.412   0.171   4.166 -0.2711  0.4971 -0.1350
   67MOL   C10212114   4.256   0.186   4.157  0.1385  0.3804 -0.1897
   67MOL   C10312115   4.181   0.063   4.199 -0.1543  0.6847 -0.1119
   67MOL   O10412116   4.097   0.061   4.283 -0.7527 -0.5839  0.0415
   67MOL   O10512117   4.217   7.809   4.120 -0.9975  0.2193 -0.1480
   67MOL   H10612118   4.435   0.080   4.112 -2.7463 -0.0719 -0.3147
   67MOL   H10712119   4.449   0.245   4.096 -0.7824  0.7635 -0.1236
   67MOL   H10812120   4.241   0.260   4.236  1.1795 -0.4369  0.7942
   67MOL   H10912121   4.158   7.743   4.153 -0.3329 -0.1902  0.2302
   67MOL   C11012122   4.196   0.249   4.022  0.1178 -0.0002 -0.2101
   67MOL   C11112123   4.121   0.387   4.046 -0.5089  0.8011 -0.2996
   67MOL   C11212124   3.993   0.379   4.134 -0.3305  0.2657  0.2837
   67MOL   O11312125   3.921   0.282   4.151  0.3570  0.3548  0.1828
   67MOL   O11412126   3.971   0.497   4.192 -0.2626 -0.8078 -0.3438
   67MOL   H11512127   4.139   0.180   3.960 -0.6459 -0.8292  1.3837
   67MOL   H11612128   4.285   0.272   3.963  0.9264  0.1348  1.0259
   67MOL   H11712129   4.183   0.455   4.104 -1.2776  1.9417 -0.8083
   67MOL   H11812130   3.901   0.482   4.254 -0.8265  3.1040  0.0543
   67MOL   C11912131   4.070   0.455   3.914 -0.2105 -0.1240  0.1842
   67MOL   C12012132   4.165   0.558   3.837  0.4819  0.1277  0.2167
   67MOL   C12112133   4.267   0.475   3.750  0.0494 -0.3606 -0.0503
   67MOL   O12212134   4.240   0.368   3.701 -0.5078 -0.3426 -0.1521
   67MOL   O12312135   4.382   0.546   3.723  0.0532 -0.2832 -0.3097
   67MOL   H12412136   3.968   0.496   3.915  0.3056  1.2263 -0.8672
   67MOL   H12512137   4.047   0.370   3.851  1.0934 -1.9092  2.0730
   67MOL   H12612138   4.098   0.592   3.758  0.3470  1.8967  1.0679
   67MOL   H12712139   4.445   0.507   3.665  0.3887 -1.2701  0.7047
   67MOL   C12812140   4.224   0.684   3.910 -0.4591  0.2938  0.3560
   67MOL   C12912141   4.125   0.772   3.980  0.2507 -0.3451  0.0506
   67MOL   C13012142   4.058   0.868   3.880 -0.0490  0.1618 -0.6532
   67MOL   O13112143   4.098   0.979   3.856 -0.9920 -0.1003  0.3963
   67MOL   O13212144   3.947   0.814   3.829  0.2848 -0.2570  0.3669
   67MOL   H13312145   4.284   0.745   3.843  2.2484  0.6140  2.9699
   67MOL   H13412146   4.297   0.643   3.980  0.5136 -0.9688 -1.3622
   67MOL   H13512147   4.045   0.709   4.018  2.5524 -2.2561  1.9126
   67MOL   H13612148   3.911   0.886   3.779 -1.3754 -0.3559  1.3665
   67MOL   C13712149   4.185   0.857   4.095 -0.2335 -0.2926 -0.1870
   67MOL   C13812150   4.213   0.774   4.230  0.3565  0.1661  0.6190
   67MOL   C13912151   4.080   0.770   4.315 -0.1195  0.4470  0.2764
   67MOL   O14012152   3.970   0.812   4.286  0.2187 -0.1035 -0.2708
   67MOL   O14112153   4.098   0.701   4.435  0.1115 -0.0695 -0.2209
   67MOL   H14212154   4.116   0.936   4.125 -0.5966 -0.6518 -0.0758
   67MOL   H14312155   4.270   0.914   4.057 -0.3869 -1.5718 -2.5181
   67MOL   H14412156   4.242   0.670   4.218 -2.6237 -0.5997 -0.1662
   67MOL   H14512157   4.016   0.713   4.480  0.6257  0.3272  0.6067
   67MOL   C14612158   4.323   0.830   4.321 -0.6141 -0.5262 -0.2341
   67MOL   C14712159   4.471   0.798   4.294 -0.4267  0.5110 -0.3006
   67MOL   C14812160   4.511   0.646   4.295  0.4421 -0.0307 -0.3553
   67MOL   O14912161   4.450   0.561   4.351  0.3810 -0.6257  0.0501
   67MOL   O15012162   4.636   0.623   4.239  0.6730  0.8824 -0.3931
   67MOL   H15112163   4.312   0.813   4.428 -1.1956 -0.2374 -0.2491
   67MOL   H15212164   4.309   0.938   4.325 -3.0448 -0.8671  1.0745
   67MOL   H15312165   4.492   0.823   4.190 -0.0635 -0.9829 -0.6001
   67MOL   H15412166   4.660   0.533   4.255 -0.5913 -0.0500 -3.3081
   67MOL   C15512167   4.567   0.877   4.395  0.2420  0.0975  0.2017
   67MOL   C15612168   4.612   0.810   4.528  1.0699 -0.3857 -0.0519
   67MOL   C15712169   4.495   0.801   4.619 -0.3773 -0.0783  0.5370
   67MOL   O15812170   4.439   0.902   4.669  0.0126 -0.3086 -0.5207
   67MOL   O15912171   4.448   0.672   4.637 -0.2958 -0.1377 -0.6377
   67MOL   H16012172   4.509   0.962   4.432 -1.4929  0.0763 -2.3147
   67MOL   H16112173   4.647   0.923   4.337 -0.1263 -0.4707 -0.7639
   67MOL   H16212174   4.663   0.715   4.511  1.8942 -0.1300  0.9437
   67MOL   H16312175   4.380   0.682   4.703 -0.6395  2.9963 -1.4052
   67MOL   C16412176   4.718   0.899   4.601 -0.4803  0.3461 -0.1822
   67MOL   C16512177   4.861   0.905   4.529 -0.6172 -0.6995  0.3520
   67MOL   C16612178   4.939   0.775   4.557 -0.1992  0.4753 -0.3433
   67MOL   O16712179   4.972   0.695   4.472 -0.2294  0.2552 -0.4975
   67MOL   O16812180   4.970   0.759   4.692  0.3594  0.2999 -0.1484
   67MOL   H16912181   4.734   0.870   4.705 -1.1180 -2.0021 -0.7011
   67MOL   H17012182   4.688   1.003   4.608  1.3732  0.8196  0.9713
   67MOL   H17112183   4.851   0.908   4.420 -0.6788 -0.3809  0.3653
   67MOL   H17212184   5.021   0.680   4.694 -2.1690 -1.3670  1.0455
   67MOL   C17312185   4.949   1.026   4.562  0.1678  0.1174  0.3201
   67MOL   C17412186   4.893   1.162   4.513  0.1742  0.6008 -0.4970
   67MOL   C17512187   4.875   1.179   4.367 -0.8109  0.1815 -0.3131
   67MOL   O17612188   4.957   1.134   4.292 -0.2503 -0.5402  0.4224
   67MOL   O17712189   4.774   1.260   4.334  0.2102 -0.7452 -0.1165
   67MOL   H17812190   5.048   1.012   4.518 -0.9415  1.3747 -2.7031
   67MOL   H17912191   4.957   1.039   4.670  3.3544 -1.8841  0.4135
   67MOL   H18012192   4.812   1.175   4.586 -1.9342 -1.1631 -2.4476
   67MOL   H18112193   4.779   1.288   4.245  0.3845 -0.6420 -0.0737
   67MOL   H18212194   4.976   1.230   4.530 -0.7587  1.3936  1.0753
   68MOL     C112195   7.547   3.337   6.873  0.2969 -0.3077 -0.5339
   68MOL     C212196   7.564   3.256   6.738 -0.1126  0.8094 -0.1719
   68MOL     C312197   7.707   3.220   6.708  0.3443 -0.7334 -0.1643
   68MOL     O412198   7.761   3.229   6.600 -0.0691 -0.0140 -0.1953
   68MOL     O512199   7.783   3.171   6.810 -0.3353  0.5605  0.2554
   68MOL     H612200   7.564   3.281   6.965  2.4439  3.4742  1.5023
   68MOL     H712201   7.624   3.414   6.883  2.1539 -2.3323  1.3646
   68MOL     H812202   7.527   3.157   6.763 -2.1040  1.0421 -1.9801
   68MOL     H912203   0.019   3.184   6.779 -0.9343 -1.8417 -2.8197
   68MOL    H1012204   7.454   3.393   6.882  0.2821 -0.4580  0.2782
   68MOL    C1112205   7.488   3.324   6.616  0.4417  0.1524 -0.0329
   68MOL    C1212206   7.519   3.472   6.589 -0.1472 -0.5354 -0.4324
   68MOL    C1312207   7.390   3.559   6.575 -0.1224  0.4187  0.5509
   68MOL    O1412208   7.367   3.621   6.471  0.7262 -0.1411  0.1702
   68MOL    O1512209   7.312   3.552   6.686 -1.0299 -0.1619 -0.3204
   68MOL    H1612210   7.380   3.315   6.630  0.4337  1.7771  1.0123
   68MOL    H1712211   7.516   3.271   6.524 -0.9481 -1.3522  0.3906
   68MOL    H1812212   7.554   3.514   6.683 -2.1127  0.4863 -0.1136
   68MOL    H1912213   7.232   3.600   6.670 -0.7559  1.0723  1.8750
   68MOL    C2012214   7.631   3.507   6.489  0.1237  0.7125  0.7695
   68MOL    C2112215   7.724   3.624   6.538 -0.1855  0.1810  0.2703
   68MOL    C2212216   7.793   3.698   6.420  0.1339 -0.2969 -0.0100
   68MOL    O2312217   0.061   3.697   6.396  0.3166  0.1225  0.0372
   68MOL    O2412218   7.703   3.771   6.348  0.5379  0.3388  0.1836
   68MOL    H2512219   7.585   3.534   6.394  0.7600  1.7011  0.7339
   68MOL    H2612220   7.700   3.424   6.469  0.7071  0.9553  1.7373
   68MOL    H2712221   7.660   3.693   6.592  0.0055  0.2802  0.3682
   68MOL    H2812222   7.753   3.829   6.293  1.8746  1.3409  2.3424
   68MOL    C2912223   7.823   3.567   6.647 -0.2998 -0.0433 -1.1272
   68MOL    C3012224   0.039   3.669   6.740 -0.2695 -0.1465  0.4833
   68MOL    C3112225   0.190   3.679   6.726  0.1348  0.6082  0.2483
   68MOL    O3212226   0.242   3.775   6.669 -0.4668 -0.0661  0.4520
   68MOL    O3312227   0.254   3.578   6.789 -0.5955  0.3147  0.3835
   68MOL    H3412228   0.050   3.511   6.599 -0.8341 -2.4545  0.6928
   68MOL    H3512229   7.769   3.497   6.711 -1.8063  1.6997 -0.4364
   68MOL    H3612230   0.015   3.770   6.706 -1.5369 -0.4344  0.5093
   68MOL    H3712231   0.347   3.587   6.775 -0.7370  2.5700  0.7325
   68MOL    C3812232   7.838   3.667   6.888 -0.3047  0.4260 -0.1830
   68MOL    C3912233   0.056   3.761   6.996  0.3448 -0.0466  0.1853
   68MOL    C4012234   0.021   3.720   7.141  0.1974  0.5180  0.0669
   68MOL    O4112235   7.784   3.644   7.167  0.6154 -0.4154  0.1178
   68MOL    O4212236   0.114   3.779   7.226  0.5928 -0.2540 -0.3895
   68MOL    H4312237   7.848   3.568   6.932 -0.9037  0.2819 -0.3720
   68MOL    H4412238   7.737   3.707   6.877 -0.7827  0.3311  3.2809
   68MOL    H4512239   0.162   3.742   6.983  0.6425  2.1948 -0.7478
   68MOL    H4612240   0.097   3.759   7.317  0.1891  1.3448 -0.1107
   68MOL    C4712241   0.046   3.918   6.982 -0.1041 -0.3263 -0.0241
   68MOL    C4812242   7.750   3.970   6.964 -0.3412  0.0416  0.2198
   68MOL    C4912243   7.723   3.994   6.815  0.0990  0.5123 -0.0195
   68MOL    O5012244   7.641   3.934   6.745  0.1066 -0.8131 -0.0069
   68MOL    O5112245   7.805   4.087   6.765 -0.4427  0.3589  0.7781
   68MOL    H5212246   0.116   3.948   6.904 -0.5370  0.7984  0.0098
   68MOL    H5312247   0.090   3.968   7.068 -0.3491  1.0561 -0.6836
   68MOL    H5412248   7.685   3.891   7.001  1.7102 -1.7540  0.1076
   68MOL    H5512249   7.788   4.116   6.677 -0.3034  0.7107  0.8666
   68MOL    C5612250   7.715   4.098   7.044 -0.3107  0.2451  0.5643
   68MOL    C5712251   7.711   4.085   7.195 -0.0201  0.1243 -0.1460
   68MOL    C5812252   7.581   4.010   7.239 -0.0551 -0.4162 -0.2903
   68MOL    O5912253   7.470   4.042   7.191  0.4302  0.3354 -0.1777
   68MOL    O6012254   7.614   3.934   7.346  0.5692  0.1562  0.1604
   68MOL    H6112255   7.620   4.127   6.998  0.4268  0.3335 -0.9403
   68MOL    H6212256   7.779   4.182   7.019  0.5499 -0.2739  1.0150
   68MOL    H6312257   7.803   4.043   7.235 -0.7013 -0.9474  0.3083
   68MOL    H6412258   7.539   3.898   7.392 -2.6767  1.4987 -3.8390
   68MOL    C6512259   7.707   4.224   7.256 -0.0461  0.2905  0.0325
   68MOL    C6612260   7.682   4.246   7.408 -0.3456 -0.2760 -0.4816
   68MOL    C6712261   7.632   4.388   7.444 -0.4189  0.5125  0.3858
   68MOL    O6812262   7.617   4.485   7.369 -0.2318 -0.7178 -0.0030
   68MOL    O6912263   7.599   4.387   7.572 -0.1357  0.3532 -0.1024
   68MOL    H7012264   7.635   4.279   7.194 -0.8586 -0.4837  0.2744
   68MOL    H7112265   7.805   4.265   7.231 -0.3728  0.7959 -0.4317
   68MOL    H7212266   7.595   4.188   7.436  1.4082 -3.1224 -0.7352
   68MOL    H7312267   7.598   4.474   7.609  1.0917 -0.2912  1.5129
   68MOL    C7412268   7.810   4.205   7.493  0.3021  0.1234  0.4128
   68MOL    C7512269   0.092   4.290   7.476  0.3223  0.6374  0.0740
   68MOL    C7612270   0.216   4.213   7.426 -0.5530 -0.2693 -0.3132
   68MOL    O7712271   0.329   4.260   7.438 -0.1545 -0.4051 -0.1076
   68MOL    O7812272   0.192   4.094   7.364  0.5810  0.6395 -0.9606
   68MOL    H7912273   7.822   4.097   7.485 -0.8081 -0.1334  1.9014
   68MOL    H8012274   7.780   4.218   7.597 -2.0852 -0.9433 -0.1141
   68MOL    H8112275   0.077   4.356   7.391 -1.2824  0.0029 -0.1447
   68MOL    H8212276   0.272   4.050   7.339 -0.3778 -1.4035 -0.5517
   68MOL    C8312277   0.114   4.392   7.593  0.1687  0.4676 -0.5475
   68MOL    C8412278   0.166   4.534   7.547 -0.3017  0.1819  0.1538
   68MOL    C8512279   0.293   4.585   7.620  0.6167 -0.1836 -0.0313
   68MOL    O8612280   0.355   4.514   7.692 -0.2562  0.3696 -0.1534
   68MOL    O8712281   0.334   4.711   7.584 -0.8458 -0.2724 -0.3055
   68MOL    H8812282   0.178   4.347   7.669  1.4578  4.1796  0.7125
   68MOL    H8912283   0.027   4.401   7.657  1.2320 -2.9112  1.4882
   68MOL    H9012284   0.208   4.524   7.447  2.2133 -0.8152  1.2379
   68MOL    H9112285   0.409   4.742   7.632 -0.9263  1.4987 -1.3002
   68MOL    C9212286   0.052   4.638   7.526  0.2152  0.2207 -0.1702
   68MOL    C9312287   0.021   4.726   7.649 -0.4548 -0.3315 -0.1077
   68MOL    C9412288   7.751   4.684   7.733  0.0522 -0.4061 -0.5458
   68MOL    O9512289   7.671   4.616   7.680 -0.7607  0.7824 -0.1896
   68MOL    O9612290   7.730   4.750   7.848  0.4529 -0.6854  0.2112
   68MOL    H9712291   7.816   4.581   7.497  0.1667  0.1882  0.0448
   68MOL    H9812292   0.085   4.696   7.440  0.3665  0.2741 -0.0768
   68MOL    H9912293   0.104   4.713   7.718 -0.5201 -0.4280 -0.0468
   68MOL   H10012294   7.660   4.702   0.037  0.3611  0.5273  1.4675
   68MOL   C10112295   0.026   4.880   7.621 -0.1026 -0.0587 -0.0050
   68MOL   C10212296   7.755   4.943   7.555 -0.3441  0.5153 -0.1174
   68MOL   C10312297   7.747   4.922   7.404 -0.2169  0.4175 -0.0085
   68MOL   O10412298   7.842   4.919   7.329  0.0158 -0.1553 -0.3697
   68MOL   O10512299   7.617   4.904   7.361  0.5215  0.1477 -0.5062
   68MOL   H10612300   0.118   4.911   7.573 -0.1273  2.5321  1.5284
   68MOL   H10712301   0.057   4.921   7.717 -1.6212 -1.0238  0.9236
   68MOL   H10812302   7.665   4.900   7.600 -0.2628  1.9736  1.4961
   68MOL   H10912303   7.612   4.858   7.279 -1.9107 -0.5586 -0.0087
   68MOL   C11012304   7.753   5.092   7.587 -0.0377  0.4022 -0.8806
   68MOL   C11112305   7.642   5.185   7.527 -0.0280  0.1276  0.3231
   68MOL   C11212306   7.698   5.332   7.533  0.1869  0.6565 -0.2632
   68MOL   O11312307   7.770   5.369   7.622 -0.0964  0.6420 -0.4683
   68MOL   O11412308   7.672   5.395   7.417 -0.1818  0.3247  0.5566
   68MOL   H11512309   7.850   5.135   7.562 -1.2980  2.3804 -2.5737
   68MOL   H11612310   7.741   5.095   7.696  2.2197  0.5746 -0.6119
   68MOL   H11712311   7.634   5.168   7.420 -1.3787 -1.2640  0.6329
   68MOL   H11812312   7.726   5.472   7.427  0.3547  0.1622 -0.9417
   68MOL   C11912313   7.507   5.160   7.600 -0.3767 -0.1123  0.0649
   68MOL   C12012314   7.399   5.244   7.541 -0.0483 -0.3916  0.5048
   68MOL   C12112315   7.277   5.238   7.630 -0.1981  0.6821  0.7584
   68MOL   O12212316   7.260   5.159   7.724  0.6216  0.1623 -0.3543
   68MOL   O12312317   7.196   5.351   7.611 -0.3228  0.5605 -0.2997
   68MOL   H12412318   7.524   5.166   7.707 -1.0085  3.1057  0.0290
   68MOL   H12512319   7.472   5.057   7.588  0.0599 -0.3605  0.9079
   68MOL   H12612320   7.434   5.347   7.544  4.7160 -1.7710 -2.1103
   68MOL   H12712321   7.122   5.339   7.669  0.4763  0.5155  0.7337
   68MOL   C12812322   7.369   5.193   7.395  0.1220  0.1550  0.6335
   68MOL   C12912323   7.358   5.300   7.286  0.0288  0.3228  0.7325
   68MOL   C13012324   7.244   5.399   7.315 -0.3716 -0.3576  0.4096
   68MOL   O13112325   7.127   5.379   7.299 -0.1345 -0.0673 -0.3290
   68MOL   O13212326   7.311   5.507   7.368  0.6444 -0.3696  0.0582
   68MOL   H13312327   7.273   5.141   7.403 -0.0261 -0.4457 -3.6177
   68MOL   H13412328   7.434   5.116   7.355 -1.4556 -1.0216  0.2615
   68MOL   H13512329   7.452   5.352   7.267  0.7272 -1.6898 -1.5461
   68MOL   H13612330   7.248   5.577   7.378  0.6893 -0.1081 -1.3256
   68MOL   C13712331   7.327   5.226   7.151  0.1186  0.4552  0.4920
   68MOL   C13812332   7.441   5.150   7.089  0.2231 -0.4362  0.1514
   68MOL   C13912333   7.580   5.212   7.104  0.3633  0.3746 -0.1247
   68MOL   O14012334   7.675   5.162   7.167 -0.3107 -0.0755  0.2232
   68MOL   O14112335   7.584   5.330   7.037 -0.3372 -0.1843 -0.4841
   68MOL   H14212336   7.281   5.288   7.075 -0.0055  0.0111  0.2048
   68MOL   H14312337   7.244   5.157   7.165  1.0842 -1.0197 -0.8712
   68MOL   H14412338   7.446   5.059   7.149 -0.0034 -0.3434  0.3115
   68MOL   H14512339   7.669   5.371   7.040 -0.0515 -0.8013  0.0914
   68MOL   C14612340   7.407   5.109   6.944 -0.2640  0.0122  0.4480
   68MOL   C14712341   7.473   4.976   6.900  0.0315  0.0065 -0.3618
   68MOL   C14812342   7.479   4.982   6.741  0.2053  0.6122 -0.1231
   68MOL   O14912343   7.386   4.996   6.668 -0.2670 -0.5976 -0.3571
   68MOL   O15012344   7.604   4.969   6.686 -0.1082 -0.2923  0.2321
   68MOL   H15112345   7.448   5.186   6.879  2.0813 -3.1995 -2.0316
   68MOL   H15212346   7.298   5.103   6.938 -0.5645  2.7902  2.0402
   68MOL   H15312347   7.575   4.970   6.938 -0.9909 -0.6037  2.4192
   68MOL   H15412348   7.591   4.967   6.592  0.0106  0.2445  0.2023
   68MOL   C15512349   7.389   4.851   6.952  0.0591 -0.2453 -0.0165
   68MOL   C15612350   7.458   4.706   6.953 -0.2728  0.0774 -0.1769
   68MOL   C15712351   7.550   4.692   7.072 -0.3835 -0.2241  0.4259
   68MOL   O15812352   7.619   4.777   7.121  0.6394  0.4311 -0.0668
   68MOL   O15912353   7.539   4.567   7.127  0.3321  0.5100  0.0606
   68MOL   H16012354   7.300   4.852   6.889 -0.4998  0.0043  0.7600
   68MOL   H16112355   7.353   4.878   7.052 -0.2111  1.4990 -0.5506
   68MOL   H16212356   7.375   4.636   6.966  0.1380 -0.3601  0.1212
   68MOL   H16312357   7.584   4.565   7.210  1.6506  0.6083 -0.6311
   68MOL   C16412358   7.525   4.669   6.818  0.2851 -0.4417 -0.1218
   68MOL   C16512359   7.582   4.526   6.802  0.5275 -0.0370  0.2938
   68MOL   C16612360   7.693   4.525   6.693 -0.1559  0.1731  0.3047
   68MOL   O16712361   7.679   4.509   6.571 -0.0216 -0.0728 -0.0946
   68MOL   O16812362   7.811   4.540   6.756  0.0566  0.1973  0.3513
   68MOL   H16912363   7.608   4.737   6.799 -1.0638  0.8106 -1.6656
   68MOL   H17012364   7.453   4.692   6.739  0.9052 -0.3918 -0.6779
   68MOL   H17112365   7.622   4.493   6.897  1.6524  1.2470  0.2787
   68MOL   H17212366   0.031   4.540   6.695  0.9454  2.1495  1.3572
   68MOL   C17312367   7.471   4.431   6.769  0.5363  0.1656 -0.0861
   68MOL   C17412368   7.500   4.286   6.796  0.4936  0.2813  0.0677
   68MOL   C17512369   7.440   4.211   6.676 -0.3235  0.9609 -0.3121
   68MOL   O17612370   7.320   4.187   6.676  0.1867 -0.1820 -0.2346
   68MOL   O17712371   7.526   4.182   6.574  0.2202 -0.5913  0.4557
   68MOL   H17812372   7.452   4.445   6.662 -1.0401  0.1513  0.1891
   68MOL   H17912373   7.384   4.462   6.825 -1.2676  1.9978 -3.7167
   68MOL   H18012374   7.605   4.262   6.809  0.3995 -0.1313  0.0958
   68MOL   H18112375   7.474   4.134   6.512 -0.5958 -0.1052  0.7548
   68MOL   H18212376   7.441   4.248   6.879  0.1592  0.8073  0.0721
   69MOL     C112377   6.126   2.003   2.239  0.2808 -0.4140  0.6622
   69MOL     C212378   6.036   2.074   2.139 -0.3430 -0.6122 -0.3863
   69MOL     C312379   6.101   2.209   2.109  0.2066 -0.5247 -0.2175
   69MOL     O412380   6.082   2.311   2.172  0.1870  0.3758 -0.2747
   69MOL     O512381   6.178   2.200   1.998 -0.2327 -0.0546 -0.1543
   69MOL     H612382   6.140   2.045   2.339 -0.8728  1.9648 -0.1486
   69MOL     H712383   6.082   1.903   2.250  0.6822 -0.8749 -1.6429
   69MOL     H812384   6.031   2.027   2.040 -0.1136 -0.6664 -0.3732
   69MOL     H912385   6.220   2.282   1.979 -2.6578  1.5472  1.1499
   69MOL    H1012386   6.227   1.983   2.205 -0.3770 -2.2372 -0.3192
   69MOL    C1112387   5.888   2.090   2.183  0.4087  0.2211  0.0574
   69MOL    C1212388   5.793   2.131   2.079  0.5324  0.2593  0.0217
   69MOL    C1312389   5.806   2.285   2.040 -1.1202  0.0783  0.2243
   69MOL    O1412390   5.746   2.375   2.094  0.0186  0.1841 -0.0903
   69MOL    O1512391   5.881   2.302   1.924  0.5356  0.2861  0.0842
   69MOL    H1612392   5.879   2.159   2.266 -1.7404  0.1349 -0.0768
   69MOL    H1712393   5.854   1.994   2.222 -1.4466  0.9020  0.1226
   69MOL    H1812394   5.823   2.084   1.985 -0.2259 -0.0644 -0.0607
   69MOL    H1912395   5.876   2.394   1.907 -0.1839  0.4944  1.3403
   69MOL    C2012396   5.647   2.085   2.106  0.8150  0.2425 -0.1883
   69MOL    C2112397   5.551   2.161   2.203 -0.4543  0.0835 -0.3475
   69MOL    C2212398   5.582   2.109   2.341  0.2440  0.0972  0.5428
   69MOL    O2312399   5.513   2.019   2.398 -0.8278 -0.3048  0.0398
   69MOL    O2412400   5.688   2.174   2.398  0.5820 -0.3299  0.2225
   69MOL    H2512401   5.639   1.978   2.125  0.7009  0.3097  0.1561
   69MOL    H2612402   5.604   2.086   2.006  1.5085  2.2011 -0.4880
   69MOL    H2712403   5.553   2.269   2.218  1.8323  0.0176  0.0196
   69MOL    H2812404   5.714   2.129   2.477  1.3066  2.0571  1.4036
   69MOL    C2912405   5.407   2.124   2.176  0.0150  0.2447 -0.6380
   69MOL    C3012406   5.283   2.174   2.265 -0.1152  0.7473  0.0752
   69MOL    C3112407   5.157   2.088   2.224 -0.1401 -0.0920  0.2787
   69MOL    O3212408   5.144   2.009   2.130  0.5274  0.0316  0.0023
   69MOL    O3312409   5.054   2.104   2.315 -0.5029 -0.2145  0.1395
   69MOL    H3412410   5.407   2.015   2.186  2.3389  0.0835 -1.9372
   69MOL    H3512411   5.376   2.138   2.072 -1.4750 -2.5196 -0.6185
   69MOL    H3612412   5.300   2.144   2.368  0.9701 -0.9142 -0.5565
   69MOL    H3712413   5.080   2.159   2.387 -1.8723 -0.2381  0.6609
   69MOL    C3812414   5.270   2.324   2.244  0.1137 -0.8092  0.4598
   69MOL    C3912415   5.284   2.419   2.365 -0.5758 -0.8723 -0.2342
   69MOL    C4012416   5.167   2.410   2.465 -1.2959  0.5738 -0.3211
   69MOL    O4112417   5.119   2.299   2.490  0.0944  0.4106  0.1604
   69MOL    O4212418   5.144   2.526   2.538 -0.0902 -0.1055 -0.3729
   69MOL    H4312419   5.175   2.355   2.198  0.4532 -1.0025 -0.3918
   69MOL    H4412420   5.349   2.363   2.180 -0.1504  0.9598  1.1716
   69MOL    H4512421   5.376   2.380   2.410 -0.6755 -1.7649 -0.7867
   69MOL    H4612422   5.093   2.510   2.615 -0.0296  2.9303  0.3538
   69MOL    C4712423   5.302   2.570   2.318  0.3434  0.6297 -0.2721
   69MOL    C4812424   5.431   2.646   2.362 -0.2288 -0.8730  0.3499
   69MOL    C4912425   5.557   2.569   2.328  0.3853  0.0456 -0.6438
   69MOL    O5012426   5.639   2.533   2.412 -0.7129 -0.5640  0.0591
   69MOL    O5112427   5.564   2.543   2.196 -0.0201  0.1544 -0.1974
   69MOL    H5212428   5.209   2.625   2.335 -0.8130 -1.4265  0.2943
   69MOL    H5312429   5.295   2.567   2.209  0.3403 -1.7687 -0.2325
   69MOL    H5412430   5.450   2.731   2.297  1.7403 -1.4375  0.1488
   69MOL    H5512431   5.640   2.498   2.164  1.2282  1.9725  0.1235
   69MOL    C5612432   5.414   2.695   2.518 -0.0339 -0.2910 -0.0843
   69MOL    C5712433   5.326   2.819   2.538  0.8572 -0.5006 -0.1838
   69MOL    C5812434   5.405   2.951   2.489 -0.3392  0.1499 -0.6330
   69MOL    O5912435   5.388   3.010   2.384 -0.4015 -0.2065  0.1052
   69MOL    O6012436   5.513   2.966   2.561 -0.5938  0.1607 -0.1672
   69MOL    H6112437   5.514   2.720   2.554  0.5433 -1.2525 -1.0331
   69MOL    H6212438   5.380   2.606   2.570 -0.9808  0.3437  0.4122
   69MOL    H6312439   5.244   2.809   2.467  0.6716  2.5700 -0.4638
   69MOL    H6412440   5.536   2.898   2.623  0.6241  0.8598  0.1730
   69MOL    C6512441   5.266   2.829   2.680 -0.3721  0.4898 -0.1891
   69MOL    C6612442   5.167   2.946   2.700 -0.3297 -0.0153  0.3225
   69MOL    C6712443   5.116   2.936   2.845 -0.2391  0.3282 -0.4032
   69MOL    O6812444   5.058   2.839   2.886 -0.4958  0.4781  0.4779
   69MOL    O6912445   5.130   3.054   2.913  0.3055  0.2330 -0.0050
   69MOL    H7012446   5.348   2.841   2.751 -0.5133 -1.0706  0.2598
   69MOL    H7112447   5.217   2.733   2.697 -0.9347  0.9134  0.6261
   69MOL    H7212448   5.220   3.041   2.689  0.4508 -0.5259 -0.4091
   69MOL    H7312449   5.080   3.049   2.993  0.8058  1.3787  0.3935
   69MOL    C7412450   5.046   2.946   2.605 -0.5867  0.1603 -0.1960
   69MOL    C7512451   4.954   3.072   2.614  0.6497 -1.0692  0.5556
   69MOL    C7612452   4.856   3.067   2.735 -0.2037 -0.4844  0.5442
   69MOL    O7712453   4.773   2.977   2.742  0.5086 -0.5360 -0.0934
   69MOL    O7812454   4.878   3.165   2.825  0.3304  0.1853  0.4199
   69MOL    H7912455   4.985   2.856   2.606  1.2267 -1.0758  1.8321
   69MOL    H8012456   5.100   2.951   2.510 -0.0454 -2.3553 -0.0476
   69MOL    H8112457   5.014   3.163   2.619  2.9597 -2.5394  0.3484
   69MOL    H8212458   4.938   3.226   2.786 -0.3400  0.7164  0.2060
   69MOL    C8312459   4.866   3.072   2.485 -0.0468  0.0066 -0.5562
   69MOL    C8412460   4.934   3.106   2.347  0.2502  0.4330  0.3685
   69MOL    C8512461   5.012   3.238   2.341 -0.3490  0.0418 -0.1752
   69MOL    O8612462   5.004   3.325   2.428  0.0481  0.4124 -0.3520
   69MOL    O8712463   5.082   3.251   2.224 -0.2115  0.1300  0.3958
   69MOL    H8812464   4.782   3.140   2.499 -2.0734 -2.6676  0.7099
   69MOL    H8912465   4.819   2.974   2.475 -0.8676  0.4930 -1.5670
   69MOL    H9012466   5.007   3.026   2.337 -0.6382 -0.4961  1.1203
   69MOL    H9112467   5.135   3.329   2.218  0.1227 -0.0451  1.1168
   69MOL    C9212468   4.829   3.096   2.240  0.2248 -0.2653  0.4064
   69MOL    C9312469   4.709   3.194   2.235 -0.2403 -0.2389 -0.4427
   69MOL    C9412470   4.576   3.120   2.262  0.4940  0.3976  0.6737
   69MOL    O9512471   4.543   3.025   2.191 -0.0652 -0.3735 -0.8573
   69MOL    O9612472   4.502   3.173   2.365  0.8245  0.2161  0.1571
   69MOL    H9712473   4.792   2.994   2.241  0.3444 -0.3035  0.8174
   69MOL    H9812474   4.873   3.098   2.140 -1.3240  1.9399 -0.2902
   69MOL    H9912475   4.717   3.259   2.322  0.8411  0.4234 -1.0265
   69MOL   H10012476   4.423   3.121   2.368  0.9966 -0.0547  0.0390
   69MOL   C10112477   4.709   3.282   2.109 -0.2961 -0.4332  0.1299
   69MOL   C10212478   4.741   3.430   2.135 -0.4336 -0.0287  0.1009
   69MOL   C10312479   4.615   3.498   2.195  0.4530 -0.0991  0.9274
   69MOL   O10412480   4.595   3.512   2.311  0.5729 -0.0315  0.6154
   69MOL   O10512481   4.534   3.547   2.100 -0.3795 -0.3427  0.5180
   69MOL   H10612482   4.624   3.269   2.042 -0.0855 -0.0873 -0.2087
   69MOL   H10712483   4.788   3.247   2.043  1.2160 -1.3858  2.3991
   69MOL   H10812484   4.816   3.423   2.214 -1.3058 -0.4133  0.9083
   69MOL   H10912485   4.463   3.593   2.143  1.1803  1.7610  0.9326
   69MOL   C11012486   4.805   3.506   2.018  0.6498 -0.1867 -0.5812
   69MOL   C11112487   4.960   3.523   1.995  0.5889 -0.2123 -0.4554
   69MOL   C11212488   5.018   3.615   2.106  0.3841 -0.4131  1.4012
   69MOL   O11312489   5.065   3.723   2.080 -0.3166  0.3210 -0.3270
   69MOL   O11412490   4.998   3.576   2.233 -0.0472 -0.4234  0.3318
   69MOL   H11512491   4.768   3.608   2.027 -0.3325 -0.6489  0.7258
   69MOL   H11612492   4.755   3.480   1.924 -0.5848 -0.8036  0.2370
   69MOL   H11712493   5.005   3.425   2.009  1.0138 -0.0873 -0.9428
   69MOL   H11812494   5.038   3.644   2.285  2.8259 -1.3935 -0.4998
   69MOL   C11912495   5.000   3.561   1.854 -0.1607  0.5489 -0.3709
   69MOL   C12012496   5.141   3.511   1.797 -0.7839 -0.2223  0.2131
   69MOL   C12112497   5.255   3.552   1.894  0.3134  0.4468 -0.3877
   69MOL   O12212498   5.317   3.662   1.885 -0.2299 -0.4115 -0.3940
   69MOL   O12312499   5.276   3.464   1.993 -0.4739  0.2536 -0.2076
   69MOL   H12412500   4.986   3.668   1.843 -3.3750  0.3666  1.3776
   69MOL   H12512501   4.922   3.523   1.788  1.0150 -0.0819 -1.4266
   69MOL   H12612502   5.139   3.406   1.827  2.4755 -0.3154  0.3270
   69MOL   H12712503   5.345   3.495   2.049 -1.6724  0.9627  0.8956
   69MOL   C12812504   5.165   3.524   1.648  0.5345  0.3956  0.6613
   69MOL   C12912505   5.175   3.670   1.589  0.5731  0.3203 -0.5352
   69MOL   C13012506   5.040   3.742   1.563  0.9509 -0.4379  0.8377
   69MOL   O13112507   4.928   3.698   1.587 -0.9438 -0.3808 -0.1412
   69MOL   O13212508   5.059   3.864   1.498 -0.4489  0.0803 -0.0979
   69MOL   H13312509   5.080   3.469   1.610  0.1068  1.4921  0.0021
   69MOL   H13412510   5.250   3.463   1.617  1.4002  1.9276 -0.0656
   69MOL   H13512511   5.239   3.731   1.652  0.9019  1.2193 -1.7391
   69MOL   H13612512   4.978   3.901   1.467 -0.1008 -0.2845 -1.4904
   69MOL   C13712513   5.246   3.650   1.450 -0.1989  0.1471 -0.2454
   69MOL   C13812514   5.404   3.622   1.459 -0.6193 -0.2296  0.2013
   69MOL   C13912515   5.478   3.736   1.530  0.0391 -0.7459  0.4047
   69MOL   O14012516   5.466   3.851   1.487 -0.1898 -0.5732  0.7377
   69MOL   O14112517   5.560   3.699   1.625 -0.6678 -0.2960 -0.2550
   69MOL   H14212518   5.235   3.733   1.381  0.3463 -2.2461 -3.3370
   69MOL   H14312519   5.202   3.571   1.388  0.1979  0.4808 -0.9626
   69MOL   H14412520   5.423   3.527   1.509 -2.8012 -0.8666 -0.1104
   69MOL   H14512521   5.583   3.777   1.674  1.4755 -1.1365  0.1564
   69MOL   C14612522   5.460   3.599   1.312 -0.2341  0.3958  0.1862
   69MOL   C14712523   5.602   3.544   1.309 -0.6916  0.7667 -0.2720
   69MOL   C14812524   5.658   3.564   1.165  0.3733  0.4254 -0.4432
   69MOL   O14912525   5.594   3.604   1.072 -0.1384  0.1200 -0.2055
   69MOL   O15012526   5.792   3.549   1.159  0.0328 -0.2216  0.3350
   69MOL   H15112527   5.466   3.692   1.256 -1.0350  0.2771 -0.1087
   69MOL   H15212528   5.392   3.530   1.262 -1.3533  0.7655  1.1608
   69MOL   H15312529   5.663   3.597   1.383 -2.4215 -1.0222  2.5063
   69MOL   H15412530   5.811   3.555   1.066  0.7204 -3.2203  0.2434
   69MOL   C15512531   5.617   3.392   1.348  0.5649 -0.0082 -0.6561
   69MOL   C15612532   5.709   3.365   1.467 -0.7564  0.2888 -0.3105
   69MOL   C15712533   5.856   3.374   1.418 -0.3043  0.1003  0.0647
   69MOL   O15812534   5.916   3.477   1.442  0.2249 -0.6293 -0.4266
   69MOL   O15912535   5.898   3.272   1.344 -0.4986  0.4692  0.4373
   69MOL   H16012536   5.660   3.333   1.267 -0.0468 -1.8577  0.3388
   69MOL   H16112537   5.516   3.350   1.356  0.1242  1.2407  0.4353
   69MOL   H16212538   5.687   3.445   1.538  1.4358  0.1507  0.5798
   69MOL   H16312539   5.985   3.284   1.311  0.4299 -0.9126  2.2911
   69MOL   C16412540   5.681   3.226   1.521 -0.3708  0.6848  0.0071
   69MOL   C16512541   5.621   3.214   1.663  0.1221 -0.2825  1.2588
   69MOL   C16612542   5.469   3.224   1.656  0.6216  0.0994  0.0150
   69MOL   O16712543   5.403   3.259   1.559  0.0772  0.2916  0.0224
   69MOL   O16812544   5.402   3.162   1.753 -0.1612  0.1598 -0.9680
   69MOL   H16912545   5.777   3.176   1.532 -0.7879 -0.1418 -0.0362
   69MOL   H17012546   5.626   3.161   1.452 -0.4486  1.2277 -0.4467
   69MOL   H17112547   5.634   3.115   1.706 -0.8205 -0.1062  1.9513
   69MOL   H17212548   5.310   3.151   1.738 -0.1246 -2.3991  0.4594
   69MOL   C17312549   5.680   3.307   1.771 -0.3709  0.0472 -0.6632
   69MOL   C17412550   5.833   3.296   1.792 -0.4611  0.2609 -0.1313
   69MOL   C17512551   5.883   3.399   1.898  0.1901 -0.3875  0.4092
   69MOL   O17612552   5.805   3.494   1.932  0.3128 -0.4904  0.4111
   69MOL   O17712553   6.013   3.388   1.931 -0.1947 -0.4728 -0.2289
   69MOL   H17812554   5.631   3.277   1.864 -0.0439 -0.2415 -0.5822
   69MOL   H17912555   5.651   3.409   1.749  1.7955  1.8077  3.9847
   69MOL   H18012556   5.848   3.197   1.835 -0.2565 -0.1483 -1.1382
   69MOL   H18112557   6.037   3.457   1.991  0.0228 -0.3555 -0.4501
   69MOL   H18212558   5.885   3.314   1.698 -0.8853 -1.5158 -0.7149
   70MOL     C112559   6.380   1.623   7.358 -0.0704 -0.1540  0.1056
   70MOL     C212560   6.332   1.542   7.477  0.2304 -0.2850 -0.2232
   70MOL     C312561   6.203   1.470   7.458  0.1853 -0.1211  0.4515
   70MOL     O412562   6.114   1.469   7.539  0.3700 -0.3080  0.5119
   70MOL     O512563   6.200   1.408   7.330  0.0716 -0.5838 -0.4314
   70MOL     H612564   6.470   1.682   7.376 -0.4424  0.7188 -0.8714
   70MOL     H712565   6.397   1.561   7.270 -0.0035  1.1914 -0.8384
   70MOL     H812566   6.407   1.463   7.479  1.8020  1.1769  0.2736
   70MOL     H912567   6.118   1.380   7.293 -1.6117  0.2123  2.5503
   70MOL    H1012568   6.300   1.688   7.323  1.4516  1.0949 -1.1584
   70MOL    C1112569   6.342   1.605   7.620 -0.4536 -0.3470  0.2699
   70MOL    C1212570   6.271   1.739   7.655 -1.0846  0.3192  0.0451
   70MOL    C1312571   6.339   1.862   7.594  1.2473 -0.5741  1.0538
   70MOL    O1412572   6.451   1.892   7.613 -0.2515 -0.0423  0.0786
   70MOL    O1512573   6.246   1.935   7.522 -0.2080  0.5963 -0.9215
   70MOL    H1612574   6.446   1.606   7.653 -0.1480 -2.2104 -0.5555
   70MOL    H1712575   6.300   1.531   7.688 -0.6900 -0.8280 -0.3942
   70MOL    H1812576   6.174   1.740   7.606  0.9293 -1.2779 -4.2164
   70MOL    H1912577   6.287   2.012   7.485  1.6220  0.7698  1.3029
   70MOL    C2012578   6.253   1.758   7.810 -0.5032  0.0902  0.0880
   70MOL    C2112579   6.167   1.887   0.005 -0.0865 -0.2178 -0.0461
   70MOL    C2212580   6.168   1.872   0.159  0.6702  0.3277  0.3057
   70MOL    O2312581   6.073   1.830   0.228 -0.0650 -0.4790 -0.3943
   70MOL    O2412582   6.286   1.913   0.216 -0.4067  0.4567  0.3664
   70MOL    H2512583   6.349   1.756   0.009 -1.0157 -2.3453  1.0136
   70MOL    H2612584   6.202   1.669   7.847 -1.8698  0.8962  0.1945
   70MOL    H2712585   6.212   1.982   7.828 -0.7773 -0.6030 -2.4896
   70MOL    H2812586   6.282   1.898   0.309 -0.4846  1.5710  0.5505
   70MOL    C2912587   6.029   1.895   7.796  0.5439 -0.7863  0.5384
   70MOL    C3012588   5.926   2.001   7.838 -0.5123  0.3055 -0.2828
   70MOL    C3112589   5.788   1.963   7.791  0.1478  0.0792 -0.4593
   70MOL    O3212590   5.772   1.939   7.675  0.0383 -0.1148  0.3313
   70MOL    O3312591   5.686   1.983   0.035  0.4472  0.2226 -0.0841
   70MOL    H3412592   5.982   1.797   7.808  1.4357 -1.0034  2.3811
   70MOL    H3512593   6.041   1.899   7.688  0.4148 -0.6105  0.5296
   70MOL    H3612594   5.921   2.003   0.094 -1.5450  1.4158 -0.3383
   70MOL    H3712595   5.608   1.953   7.846  0.0798  2.2271 -0.9081
   70MOL    C3812596   5.958   2.143   7.777  0.5480 -0.3728  0.3794
   70MOL    C3912597   5.982   2.259   0.036  0.1027  0.4476 -0.0109
   70MOL    C4012598   6.115   2.238   0.106 -0.0785 -0.9208  0.2295
   70MOL    O4112599   6.216   2.301   0.071  0.1408  0.1301 -0.1799
   70MOL    O4212600   6.116   2.154   0.209 -0.2383  0.2470 -0.3639
   70MOL    H4312601   5.882   2.185   7.711  2.2055 -1.1121 -2.0916
   70MOL    H4412602   6.045   2.141   7.711 -1.5379  1.3736 -2.5101
   70MOL    H4512603   5.998   2.347   7.826 -1.4061  1.1336  0.5465
   70MOL    H4612604   6.197   2.146   0.257 -3.2748 -1.2638  4.9448
   70MOL    C4712605   5.861   2.279   0.133 -0.2538 -0.5438 -0.1539
   70MOL    C4812606   5.891   2.389   0.244  0.6834  0.7317 -0.4219
   70MOL    C4912607   5.812   2.355   0.373  0.3812 -0.4706  0.0338
   70MOL    O5012608   5.706   2.294   0.383 -0.3904  0.7992 -0.2423
   70MOL    O5112609   5.857   2.420   0.483  0.5730 -0.4469 -0.4845
   70MOL    H5212610   5.832   2.187   0.184 -0.3793  0.8647  2.3444
   70MOL    H5312611   5.773   2.310   0.077  0.2295 -0.4714 -0.8973
   70MOL    H5412612   5.993   2.384   0.283  0.0038 -1.3986  1.2194
   70MOL    H5512613   5.792   2.400   0.548 -0.2997  1.2838 -0.7698
   70MOL    C5612614   5.863   2.540   0.208 -0.2139  0.1028 -0.1846
   70MOL    C5712615   5.980   2.621   0.148  0.0983 -0.4723 -0.4782
   70MOL    C5812616   6.094   2.644   0.248  0.6558  0.4236  0.1216
   70MOL    O5912617   6.088   2.617   0.368  0.6275 -0.0221 -0.4874
   70MOL    O6012618   6.203   2.705   0.196 -0.1860  0.0800  0.0268
   70MOL    H6112619   5.816   2.592   0.292  0.3405 -1.8286  1.3442
   70MOL    H6212620   5.782   2.534   0.136 -0.4380  0.8222 -0.0029
   70MOL    H6312621   6.020   2.567   0.062  0.5330  0.3075 -0.7621
   70MOL    H6412622   6.254   2.723   0.274  1.4685 -0.3855 -0.9343
   70MOL    C6512623   5.915   2.757   0.089  0.0191 -0.1625 -0.4871
   70MOL    C6612624   5.983   2.830   7.817 -0.5285  0.2991  0.1900
   70MOL    C6712625   5.948   2.974   7.799  0.4652  0.0836  0.0478
   70MOL    O6812626   5.853   3.028   0.000  0.6408  0.0517  0.0310
   70MOL    O6912627   6.039   3.043   7.716  0.4908 -0.6767 -0.1602
   70MOL    H7012628   5.904   2.827   0.172  1.7675  0.9284 -1.1444
   70MOL    H7112629   5.808   2.742   0.072 -0.3866  0.5123  1.3960
   70MOL    H7212630   6.088   2.843   7.843 -0.3661  1.3133 -0.8708
   70MOL    H7312631   6.114   2.992   7.691  0.3116 -1.0723  0.1011
   70MOL    C7412632   5.969   2.744   7.688  0.3595  0.3588 -0.0266
   70MOL    C7512633   5.825   2.711   7.642 -0.0832 -0.2751 -0.8554
   70MOL    C7612634   5.789   2.563   7.665  0.4098 -0.0197 -0.0663
   70MOL    O7712635   5.708   2.528   7.746 -0.1334 -0.2036  0.1824
   70MOL    O7812636   5.869   2.484   7.585  0.1106  0.1511 -0.3671
   70MOL    H7912637   6.027   2.652   7.699  0.2743  0.2389 -0.5528
   70MOL    H8012638   6.013   2.789   7.599 -1.9636 -2.5023 -2.7287
   70MOL    H8112639   5.757   2.774   7.699 -0.9722 -1.3632 -0.7046
   70MOL    H8212640   5.834   2.396   7.583 -0.3644  0.2087  2.8737
   70MOL    C8312641   5.803   2.748   7.499  0.9154 -0.3309 -0.7820
   70MOL    C8412642   5.658   2.730   7.455 -0.5440 -0.5225 -0.3428
   70MOL    C8512643   5.656   2.729   7.299 -0.3695  0.3462 -0.1685
   70MOL    O8612644   5.593   2.647   7.233  0.9880  0.4205  0.3944
   70MOL    O8712645   5.720   2.835   7.250 -0.6469 -0.2880 -0.1500
   70MOL    H8812646   5.863   2.686   7.433 -1.0025 -1.4404 -1.5108
   70MOL    H8912647   5.821   2.855   7.488 -0.8783  0.0693  0.0940
   70MOL    H9012648   5.621   2.634   7.492  1.3885 -1.2167 -0.1641
   70MOL    H9112649   5.717   2.839   7.156  0.3865  1.7313 -0.1233
   70MOL    C9212650   5.559   2.833   7.507 -0.4010  0.0478  0.7244
   70MOL    C9312651   5.424   2.777   7.554  0.8461  0.4360  0.6589
   70MOL    C9412652   5.336   2.751   7.431  0.2263  0.5107 -0.2616
   70MOL    O9512653   5.337   2.818   7.328 -0.1994 -0.1151  0.3693
   70MOL    O9612654   5.244   2.658   7.460  0.0932 -0.3984  0.6806
   70MOL    H9712655   5.537   2.916   7.440  0.8552 -1.2891 -1.3839
   70MOL    H9812656   5.614   2.881   7.587  1.4569  0.7988 -0.9685
   70MOL    H9912657   5.441   2.683   7.606  1.2646  0.0976 -0.0820
   70MOL   H10012658   5.185   2.649   7.388  0.4659 -0.9690  0.4422
   70MOL   C10112659   5.351   2.874   7.647  0.8313 -0.6817 -0.2231
   70MOL   C10212660   5.402   2.885   7.797 -0.5191  0.9584 -0.7948
   70MOL   C10312661   5.522   2.974   7.820  0.0765 -0.0405  0.3117
   70MOL   O10412662   5.556   3.068   7.747 -0.0599  0.2093  0.3864
   70MOL   O10512663   5.599   2.938   0.073  0.2223 -0.3846 -0.1091
   70MOL   H10612664   5.247   2.841   7.644  1.1722 -1.6771 -2.2938
   70MOL   H10712665   5.348   2.971   7.598 -3.3208 -0.2100  0.7490
   70MOL   H10812666   5.323   2.930   0.004 -0.4680  0.8836 -0.6714
   70MOL   H10912667   5.660   3.009   0.079  0.1815 -0.3884  0.3476
   70MOL   C11012668   5.406   2.748   0.015  0.9776 -0.0099  0.2316
   70MOL   C11112669   5.275   2.678   0.070 -0.5421  0.3382  0.9529
   70MOL   C11212670   5.171   2.654   7.815  0.4616 -0.2991  0.3275
   70MOL   O11312671   5.060   2.705   7.806 -0.4332  0.0382  0.2364
   70MOL   O11412672   5.211   2.547   7.733 -0.3105 -0.3199 -0.3661
   70MOL   H11512673   5.458   2.754   0.110  0.7781  0.0417  0.3375
   70MOL   H11612674   5.464   2.675   7.812 -1.1987 -1.3522 -0.3273
   70MOL   H11712675   5.305   2.577   0.098  0.8153  0.7377  0.9909
   70MOL   H11812676   5.140   2.518   7.677  0.0320 -0.6399 -0.6408
   70MOL   C11912677   5.209   2.749   0.193 -0.5765  0.2803  0.1369
   70MOL   C12012678   5.140   2.663   0.300 -0.5876 -0.6253 -0.4826
   70MOL   C12112679   4.983   2.688   0.283 -0.2320  0.0152 -0.2677
   70MOL   O12212680   4.928   2.795   0.291  0.2348  0.5108 -0.1285
   70MOL   O12312681   4.920   2.580   0.241  0.2010 -0.1227 -0.3355
   70MOL   H12412682   5.144   2.829   0.156  1.2105  2.8433  2.3509
   70MOL   H12512683   5.287   2.812   0.235 -0.5684  1.2053 -1.2236
   70MOL   H12612684   5.161   2.563   0.263  0.2164  0.0193 -1.8148
   70MOL   H12712685   4.829   2.590   0.218 -0.7156 -2.7659  1.8269
   70MOL   C12812686   5.189   2.706   0.451 -0.3906  0.3378  0.4834
   70MOL   C12912687   5.143   2.602   0.553 -0.4134 -0.7404  0.0532
   70MOL   C13012688   5.174   2.664   0.700 -0.2104  0.7953  0.7388
   70MOL   O13112689   5.273   2.739   0.722 -0.1027 -0.7047  0.3346
   70MOL   O13212690   5.100   2.605   0.800  0.4570  0.2523  0.2269
   70MOL   H13312691   5.146   2.805   0.465  0.8815  0.9952 -0.1763
   70MOL   H13412692   5.298   2.710   0.457 -0.3204 -0.5142 -0.1293
   70MOL   H13512693   5.036   2.584   0.540 -0.5274  1.7008 -2.8999
   70MOL   H13612694   5.027   2.561   0.760 -0.0607  2.9629 -1.9429
   70MOL   C13712695   5.195   2.464   0.533 -0.4580 -0.2655 -0.0566
   70MOL   C13812696   5.352   2.439   0.562  0.9049  0.9599  0.4512
   70MOL   C13912697   5.439   2.490   0.451 -0.2207 -0.4635  0.0361
   70MOL   O14012698   5.412   2.477   0.330 -0.3303  0.7965  0.1705
   70MOL   O14112699   5.543   2.555   0.510 -0.0407 -0.1498 -0.3152
   70MOL   H14212700   5.173   2.432   0.432 -0.3755  2.7873 -1.0833
   70MOL   H14312701   5.135   2.393   0.591  0.4600 -0.1330  1.0873
   70MOL   H14412702   5.382   2.490   0.654  1.7702  1.0983  0.0993
   70MOL   H14512703   5.541   2.549   0.604  0.2560  0.7390 -0.2496
   70MOL   C14612704   5.375   2.285   0.576 -0.2645  0.3009  0.8800
   70MOL   C14712705   5.283   2.210   0.678 -0.4347  0.3886  0.1391
   70MOL   C14812706   5.276   2.289   0.807 -0.6290 -0.6423  0.2988
   70MOL   O14912707   5.373   2.322   0.872  0.1956  0.3033 -0.0438
   70MOL   O15012708   5.141   2.302   0.843  0.8396  0.0782  0.0694
   70MOL   H15112709   5.479   2.263   0.603  0.1250  1.9066  0.7518
   70MOL   H15212710   5.354   2.244   0.478  1.9618  0.0398  0.4914
   70MOL   H15312711   5.185   2.190   0.635 -0.2221 -0.8215  0.1915
   70MOL   H15412712   5.139   2.323   0.935 -1.6062  0.8454 -0.1222
   70MOL   C15512713   5.351   2.070   0.713  0.5794  0.2384 -0.5365
   70MOL   C15612714   5.248   1.970   0.776 -0.0174  0.1916  0.3666
   70MOL   C15712715   5.304   1.920   0.909  0.2251  0.0153 -0.4984
   70MOL   O15812716   5.337   1.803   0.929  0.0878 -0.2007 -0.1102
   70MOL   O15912717   5.315   2.016   0.998 -0.4006  0.4716 -0.0517
   70MOL   H16012718   5.443   2.095   0.765 -0.5719  0.9002  1.2426
   70MOL   H16112719   5.392   2.037   0.618 -0.4267  0.1010 -0.9258
   70MOL   H16212720   5.148   2.013   0.786 -0.4768 -0.8843  0.4369
   70MOL   H16312721   5.348   1.980   1.079  1.0705  0.2590 -0.7322
   70MOL   C16412722   5.237   1.860   0.668 -0.0601  0.1476 -0.2620
   70MOL   C16512723   5.134   1.748   0.691  0.0720  0.2807  0.1332
   70MOL   C16612724   5.182   1.614   0.629 -0.4464 -0.0241 -0.7041
   70MOL   O16712725   5.288   1.604   0.564  0.2402 -0.3481  0.0716
   70MOL   O16812726   5.097   1.508   0.644 -1.1973  0.0497 -0.4621
   70MOL   H16912727   5.337   1.825   0.644 -0.2609  0.8707 -2.2856
   70MOL   H17012728   5.215   1.915   0.576  0.2841 -0.4404 -0.6960
   70MOL   H17112729   5.118   1.731   0.797 -1.5469 -1.3364 -0.3278
   70MOL   H17212730   5.146   1.435   0.609  0.7936  0.8201  0.6496
   70MOL   C17312731   4.995   1.792   0.646  0.1180  0.1614  0.3800
   70MOL   C17412732   4.876   1.725   0.729  1.1912  0.1631 -0.2433
   70MOL   C17512733   4.876   1.781   0.879 -0.0634 -0.7239  0.1620
   70MOL   O17612734   4.847   1.897   0.904  0.6063 -0.1264 -0.5633
   70MOL   O17712735   4.935   1.697   0.966  0.2003 -0.1312  0.6014
   70MOL   H17812736   4.994   1.776   0.538  0.0796  1.4868  0.1798
   70MOL   H17912737   4.983   1.900   0.640 -1.7435 -0.0032  0.6931
   70MOL   H18012738   4.780   1.761   0.689  1.3012 -0.4920 -1.1095
   70MOL   H18112739   4.966   1.614   0.933 -1.2006 -0.9123  1.2157
   70MOL   H18212740   4.871   1.617   0.719  0.6338  0.0599  1.0866
   71MOL     C112741   2.259   2.390   0.893  0.2403  0.2258  0.0536
   71MOL     C212742   2.225   2.243   0.927 -0.4130 -0.7595 -0.8026
   71MOL     C312743   2.130   2.248   1.047  0.2810  0.2858 -0.0068
   71MOL     O412744   2.168   2.234   1.161 -0.0494 -0.2449  0.5257
   71MOL     O512745   2.002   2.262   1.004  0.2393  0.2034 -0.4470
   71MOL     H612746   2.171   2.454   0.902  0.3770  0.5538 -0.8981
   71MOL     H712747   2.340   2.423   0.957 -0.9434 -3.1896  3.5528
   71MOL     H812748   2.170   2.205   0.841  1.8628 -2.6913 -1.4707
   71MOL     H912749   1.932   2.250   1.067 -0.3951  2.6011 -0.6328
   71MOL    H1012750   2.313   2.398   0.799  2.2582  0.9999  1.2658
   71MOL    C1112751   2.362   2.181   0.949  0.1230  0.2447 -0.1674
   71MOL    C1212752   2.350   2.021   0.948 -0.1123 -0.2401  0.1207
   71MOL    C1312753   2.307   1.971   1.084 -0.0030 -0.2649  0.5236
   71MOL    O1412754   2.209   1.901   1.105  0.5151  0.1114 -0.4713
   71MOL    O1512755   2.393   2.011   1.182 -0.1505  0.8013  0.1484
   71MOL    H1612756   2.416   2.222   1.034  0.1543  0.3207 -0.2237
   71MOL    H1712757   2.428   2.215   0.868 -0.1491  1.9759  0.3147
   71MOL    H1812758   2.266   1.994   0.884 -0.7363  1.4131  0.2279
   71MOL    H1912759   2.380   1.973   1.267 -0.5934  0.2151 -0.1821
   71MOL    C2012760   2.494   1.960   0.903  0.3474 -0.2051 -0.3454
   71MOL    C2112761   2.528   1.974   0.752  0.2628 -0.2678 -0.2118
   71MOL    C2212762   2.424   1.909   0.658 -0.0993 -0.0858 -0.2817
   71MOL    O2312763   2.332   1.841   0.695  0.5948 -0.0072 -0.4641
   71MOL    O2412764   2.435   1.943   0.536 -1.0332  0.5058  0.2743
   71MOL    H2512765   2.497   1.856   0.934 -0.8400 -0.4535 -1.0319
   71MOL    H2612766   2.576   2.006   0.959 -1.3940  0.0109  2.1354
   71MOL    H2712767   2.534   2.081   0.734 -0.5390  0.0562  1.3947
   71MOL    H2812768   2.360   1.908   0.489  0.1030 -0.3918 -0.9050
   71MOL    C2912769   2.671   1.921   0.708  0.4222  0.5899  0.2363
   71MOL    C3012770   2.789   2.006   0.750  0.6346  0.0389  0.3738
   71MOL    C3112771   2.805   2.120   0.653 -0.3042  0.6854 -0.6206
   71MOL    O3212772   2.855   2.115   0.544  0.4294  0.3542 -0.7467
   71MOL    O3312773   2.738   2.228   0.704  0.0356 -0.3273  0.4813
   71MOL    H3412774   2.670   1.896   0.602 -3.2105 -1.3022  0.6370
   71MOL    H3512775   2.688   1.827   0.760  2.2672  0.6819 -0.1613
   71MOL    H3612776   2.761   2.054   0.843  1.7626 -0.2880  0.8990
   71MOL    H3712777   2.729   2.302   0.646  1.0465 -0.0953  0.6179
   71MOL    C3812778   2.917   1.919   0.762 -0.2166 -0.1396  0.3160
   71MOL    C3912779   3.040   1.998   0.815  0.2967  0.1568 -0.8169
   71MOL    C4012780   3.177   1.927   0.781  0.0255 -0.9625 -0.1299
   71MOL    O4112781   3.278   1.943   0.847  0.3208  0.5339 -0.6573
   71MOL    O4212782   3.174   1.851   0.670 -0.3916  0.0219  0.1061
   71MOL    H4312783   2.934   1.883   0.660 -0.2348 -1.2933  0.7116
   71MOL    H4412784   2.907   1.827   0.820 -0.9037  0.3974  1.0560
   71MOL    H4512785   3.059   2.093   0.764  1.6232 -0.4934 -1.5676
   71MOL    H4612786   3.264   1.824   0.659  0.2198  1.6346  0.9495
   71MOL    C4712787   3.025   2.021   0.966 -0.5647 -0.1005 -0.0601
   71MOL    C4812788   3.131   2.121   1.028  0.5680 -0.2381 -0.2375
   71MOL    C4912789   3.216   2.053   1.140  0.6905 -0.2899 -0.3918
   71MOL    O5012790   3.192   1.934   1.174 -0.3020  0.6079  0.1038
   71MOL    O5112791   3.308   2.132   1.196 -0.9797  0.4618  0.1473
   71MOL    H5212792   3.021   1.918   1.001  0.9092 -0.1342  0.0351
   71MOL    H5312793   2.925   2.055   0.993 -0.2415  1.2270 -0.4984
   71MOL    H5412794   3.210   2.148   0.957  0.5489  0.9268  0.1655
   71MOL    H5512795   3.359   2.086   1.260  0.1801  1.9503  0.3296
   71MOL    C5612796   3.068   2.250   1.078 -0.1801  0.1807  0.1710
   71MOL    C5712797   3.006   2.337   0.969 -0.6278  0.5912  0.1247
   71MOL    C5812798   3.110   2.396   0.875  0.3273  1.0681  0.0251
   71MOL    O5912799   3.226   2.399   0.895 -0.5461 -0.2566 -0.0018
   71MOL    O6012800   3.057   2.453   0.766 -0.2971 -0.0780 -0.4987
   71MOL    H6112801   3.136   2.306   1.143 -0.9833 -0.4078  1.5330
   71MOL    H6212802   2.989   2.219   1.146  1.1650  0.0892  1.7132
   71MOL    H6312803   2.930   2.286   0.909  0.0630 -1.9432  1.3736
   71MOL    H6412804   3.117   2.496   0.708  0.6679  1.2476  1.4170
   71MOL    C6512805   2.934   2.457   1.044 -0.8837  0.6994  0.5791
   71MOL    C6612806   2.779   2.454   1.038 -0.4642 -0.0522 -0.0264
   71MOL    C6712807   2.727   2.314   1.086 -0.4042 -0.2984  0.2804
   71MOL    O6812808   2.670   2.230   1.018  0.2619  0.7153  0.3178
   71MOL    O6912809   2.737   2.307   1.217  0.1405  0.4313  0.2070
   71MOL    H7012810   2.972   2.558   1.025 -0.9400  0.8276  1.1563
   71MOL    H7112811   2.958   2.449   1.150 -0.8419 -0.0335  0.5156
   71MOL    H7212812   2.741   2.525   1.111  0.5502  1.1821 -0.6877
   71MOL    H7312813   2.784   2.382   1.252 -2.1526  1.8076  0.4411
   71MOL    C7412814   2.713   2.493   0.901 -0.0329 -0.0690 -0.2322
   71MOL    C7512815   2.765   2.625   0.833  0.8357  0.0227 -0.1108
   71MOL    C7612816   2.759   2.751   0.924 -0.1020  0.2920  0.6621
   71MOL    O7712817   2.854   2.815   0.965 -0.6754  0.2084  0.6260
   71MOL    O7812818   2.632   2.776   0.954  0.4191  0.1959 -0.0599
   71MOL    H7912819   2.604   2.490   0.900 -0.0627  1.0142 -1.1241
   71MOL    H8012820   2.735   2.409   0.835  0.0195 -0.3027  0.0849
   71MOL    H8112821   2.868   2.603   0.808  1.0929 -1.3172  2.0405
   71MOL    H8212822   2.632   2.836   1.027 -1.7296 -1.3856  1.3204
   71MOL    C8312823   2.701   2.643   0.687  0.3504  0.8825  0.2253
   71MOL    C8412824   2.764   2.739   0.581  1.0971 -0.0879  0.2827
   71MOL    C8512825   2.895   2.676   0.537 -0.5734 -0.1356  0.5925
   71MOL    O8612826   3.013   2.715   0.548 -0.2787  0.3643 -0.0541
   71MOL    O8712827   2.878   2.550   0.493 -0.6232 -0.5471 -0.1188
   71MOL    H8812828   2.601   2.679   0.711  0.0533 -0.3163  0.8828
   71MOL    H8912829   2.683   2.541   0.651 -0.5488  1.3748 -0.7425
   71MOL    H9012830   2.693   2.731   0.499  3.3135 -0.1113 -1.6607
   71MOL    H9112831   2.949   2.493   0.469 -0.9139 -1.0659  0.2286
   71MOL    C9212832   2.783   2.889   0.623  0.0246  0.2630 -0.4605
   71MOL    C9312833   2.726   3.003   0.536  0.4007 -0.4387  0.5462
   71MOL    C9412834   2.828   3.038   0.425  0.0527 -0.2636 -0.3000
   71MOL    O9512835   2.872   2.959   0.339  0.4764  0.0921  0.1315
   71MOL    O9612836   2.866   3.168   0.437 -0.7810 -0.2300  0.4831
   71MOL    H9712837   2.885   2.913   0.651  0.0985 -0.7311  0.0989
   71MOL    H9812838   2.728   2.898   0.716  0.1271 -0.9909 -0.2748
   71MOL    H9912839   2.640   2.971   0.478 -0.4534  3.1729 -0.3021
   71MOL   H10012840   2.919   3.194   0.364  0.3241 -1.4267  0.8438
   71MOL   C10112841   2.676   3.125   0.623  0.3200  0.1840  0.2425
   71MOL   C10212842   2.529   3.113   0.684 -0.2789 -0.1229 -0.0596
   71MOL   C10312843   2.427   3.121   0.566 -0.2863  0.1718 -0.2574
   71MOL   O10412844   2.444   3.191   0.469 -0.3164 -0.5186  0.0269
   71MOL   O10512845   2.323   3.032   0.568 -1.3122  0.2751  0.7541
   71MOL   H10612846   2.671   3.223   0.574  0.6698 -0.5025 -1.1971
   71MOL   H10712847   2.747   3.145   0.702 -0.3056  0.4252  0.7490
   71MOL   H10812848   2.519   3.019   0.737  0.2957 -2.0795 -3.2545
   71MOL   H10912849   2.279   3.055   0.488 -0.8595 -1.0520  0.1084
   71MOL   C11012850   2.500   3.225   0.781 -0.1937 -0.0318 -0.0568
   71MOL   C11112851   2.498   3.190   0.930  0.7185 -0.9620 -0.2060
   71MOL   C11212852   2.641   3.189   0.991  0.4970 -0.5607 -0.2564
   71MOL   O11312853   2.681   3.284   1.051  0.8135  0.1465 -0.8526
   71MOL   O11412854   2.700   3.072   0.967  0.5433 -0.2411 -0.4231
   71MOL   H11512855   2.409   3.273   0.746  1.4314  1.2721 -2.6932
   71MOL   H11612856   2.577   3.300   0.768  0.4722 -0.9306 -1.4655
   71MOL   H11712857   2.447   3.266   0.989  2.1186 -0.5146  0.4466
   71MOL   H11812858   2.794   3.082   0.975  0.7710 -1.7097 -1.1691
   71MOL   C11912859   2.420   3.060   0.981  0.2331  0.1046  0.5878
   71MOL   C12012860   2.266   3.052   0.960 -0.1901 -0.0768  0.2988
   71MOL   C12112861   2.194   3.179   0.995 -0.0567 -0.0131  0.3125
   71MOL   O12212862   2.136   3.251   0.913  0.4072 -0.3893  0.5190
   71MOL   O12312863   2.197   3.203   1.125  0.1157  0.0112  0.2343
   71MOL   H12412864   2.437   3.038   1.086 -1.1099  0.2865  0.8525
   71MOL   H12512865   2.464   2.968   0.943 -0.2992 -0.1182  0.5103
   71MOL   H12612866   2.254   3.032   0.854  0.4834 -3.1184  0.7518
   71MOL   H12712867   2.166   3.291   1.140 -0.6821 -0.3740  0.8938
   71MOL   C12812868   2.200   2.924   1.025 -0.2460 -0.6337 -0.3635
   71MOL   C12912869   2.166   2.813   0.930 -0.0873  0.0002  0.4871
   71MOL   C13012870   2.300   2.756   0.865  0.3601  0.2355 -0.2039
   71MOL   O13112871   2.345   2.767   0.753 -0.0429  0.6402 -0.1877
   71MOL   O13212872   2.354   2.680   0.959 -0.2420 -0.3223 -0.0907
   71MOL   H13312873   2.109   2.958   1.074  0.8096  1.8481 -0.0192
   71MOL   H13412874   2.260   2.886   1.107  0.5932  0.4860 -0.4349
   71MOL   H13512875   2.131   2.730   0.991 -0.6113 -0.5402 -0.5502
   71MOL   H13612876   2.439   2.646   0.937 -0.2419 -3.4442  3.9320
   71MOL   C13712877   2.059   2.848   0.820  0.5540  0.1948  0.9110
   71MOL   C13812878   1.917   2.886   0.877 -0.2657  0.2080 -0.4985
   71MOL   C13912879   1.843   2.781   0.967  0.1363  0.1836  0.0375
   71MOL   O14012880   1.789   2.809   1.070 -0.5634 -0.2094 -0.4463
   71MOL   O14112881   1.856   2.655   0.919  0.1057 -0.7124 -0.0199
   71MOL   H14212882   2.058   2.768   0.745  0.7734  0.0899  1.0194
   71MOL   H14312883   2.094   2.932   0.761  1.8777 -1.6421 -1.0077
   71MOL   H14412884   1.946   2.976   0.932 -2.6359  1.4741 -1.2732
   71MOL   H14512885   1.820   2.597   0.984 -0.0255  0.9518  1.4235
   71MOL   C14612886   1.816   2.934   0.771 -0.0115 -1.0854  0.2274
   71MOL   C14712887   1.744   3.071   0.802  0.4343 -0.3681  0.1389
   71MOL   C14812888   1.666   3.078   0.939 -0.1313  0.0443 -0.4961
   71MOL   O14912889   1.710   3.113   1.046  0.0081  0.0718 -0.6586
   71MOL   O15012890   1.542   3.015   0.919  0.1498 -0.3254 -0.2402
   71MOL   H15112891   1.739   2.857   0.759 -1.4349  0.0897  1.5636
   71MOL   H15212892   1.863   2.934   0.673 -2.6721  1.5758 -1.1224
   71MOL   H15312893   1.815   3.154   0.800  0.7536 -0.5984  1.8457
   71MOL   H15412894   1.508   2.997   1.006 -2.6304 -0.7217 -1.3671
   71MOL   C15512895   1.671   3.105   0.674  0.4621 -0.4852 -0.2067
   71MOL   C15612896   1.586   3.236   0.673  0.0260 -0.2892 -0.1275
   71MOL   C15712897   1.501   3.247   0.543  0.5436  0.0713 -0.6388
   71MOL   O15812898   1.528   3.191   0.437 -0.2862 -0.0336  0.1509
   71MOL   O15912899   1.392   3.329   0.568  0.0064 -0.2452  0.3290
   71MOL   H16012900   1.603   3.027   0.639 -0.8176 -0.6826  2.5804
   71MOL   H16112901   1.742   3.112   0.592 -0.3628  2.0889 -0.7443
   71MOL   H16212902   1.506   3.231   0.746  0.8121  0.2479  0.7723
   71MOL   H16312903   1.339   3.337   0.490  0.1572 -0.2241  0.2284
   71MOL   C16412904   1.670   3.366   0.705  0.0231 -0.3052  0.0584
   71MOL   C16512905   1.784   3.392   0.599  0.2201 -0.5564  0.2635
   71MOL   C16612906   1.917   3.336   0.648 -0.0818 -0.3212 -0.0950
   71MOL   O16712907   1.994   3.259   0.592  0.5962  0.4095  0.2085
   71MOL   O16812908   1.939   3.381   0.777  0.0408 -0.8442 -0.2439
   71MOL   H16912909   1.695   3.348   0.810 -5.1564 -0.6195  1.3668
   71MOL   H17012910   1.603   3.451   0.700 -0.8439 -0.7861  2.4650
   71MOL   H17112911   1.759   3.340   0.507 -3.5341  1.1816  0.2235
   71MOL   H17212912   2.014   3.342   0.818 -0.5328 -0.4462  1.2186
   71MOL   C17312913   1.782   3.547   0.566  0.1865 -0.3893 -0.6583
   71MOL   C17412914   1.906   3.585   0.492 -0.4332  0.1971 -0.2277
   71MOL   C17512915   1.892   3.725   0.424  0.0303 -0.2888  0.6500
   71MOL   O17612916   1.835   3.736   0.312  0.1940 -0.1995  0.1218
   71MOL   O17712917   1.935   3.823   0.505  0.0537 -0.2852 -0.3712
   71MOL   H17812918   1.774   3.606   0.657  1.1850  0.4352 -1.0950
   71MOL   H17912919   1.693   3.560   0.506  0.5657 -1.6729 -1.5136
   71MOL   H18012920   1.996   3.584   0.553  0.3849  0.4408 -1.4183
   71MOL   H18112921   1.918   3.910   0.470  1.3198  0.8774  1.7808
   71MOL   H18212922   1.943   3.515   0.418  0.0516  0.1961  0.0131
   72MOL     C112923   6.621   2.781   7.716  0.0830  0.2023 -0.2947
   72MOL     C212924   6.486   2.807   7.647  0.5794  0.3473  1.1240
   72MOL     C312925   6.415   2.919   7.716  0.8447  0.0909 -0.7583
   72MOL     O412926   6.324   2.899   7.796  0.0998  0.3395  0.0508
   72MOL     O512927   6.457   3.045   7.689 -0.7279  0.3601  0.1229
   72MOL     H612928   6.605   2.762   7.822  0.7428  0.6183 -0.1245
   72MOL     H712929   6.688   2.712   7.664  0.5499 -0.6161  1.3540
   72MOL     H812930   6.501   2.847   7.546  0.6310 -2.7586 -0.1672
   72MOL     H912931   6.424   3.115   7.743 -0.1374  0.6999  0.0477
   72MOL    H1012932   6.673   2.876   7.721 -0.5669  0.4444  2.3948
   72MOL    C1112933   6.404   2.677   7.648 -0.0417 -0.5795  0.0316
   72MOL    C1212934   6.425   2.582   7.532  0.3443 -0.7492 -0.6047
   72MOL    C1312935   6.334   2.625   7.418 -0.2351  0.3436  0.1578
   72MOL    O1412936   6.375   2.650   7.307  0.0089 -0.5802  0.4404
   72MOL    O1512937   6.206   2.624   7.458 -0.0420  0.2432 -0.0156
   72MOL    H1612938   6.301   2.690   7.682 -0.7297  1.2421 -2.5402
   72MOL    H1712939   6.435   2.622   7.737 -2.0191  0.1651  1.2249
   72MOL    H1812940   6.527   2.600   7.500  1.0740 -0.0264  2.0343
   72MOL    H1912941   6.139   2.636   7.392 -0.7746  0.8646  0.8362
   72MOL    C2012942   6.409   2.430   7.570 -0.4676  0.2836 -0.2089
   72MOL    C2112943   6.490   2.341   7.470 -0.5158  0.4777  0.3323
   72MOL    C2212944   6.455   2.194   7.502 -0.2139  0.2803 -0.2233
   72MOL    O2312945   6.392   2.126   7.419 -0.7316 -0.4098  0.2321
   72MOL    O2412946   6.512   2.145   7.617 -0.4238 -0.0145 -0.3521
   72MOL    H2512947   6.302   2.413   7.568 -0.5489  0.8164 -0.4407
   72MOL    H2612948   6.451   2.414   7.670 -1.1138 -0.4658 -0.0564
   72MOL    H2712949   6.438   2.357   7.375  0.1859  0.2734 -0.0859
   72MOL    H2812950   6.503   2.051   7.620  3.0197 -0.3890 -0.6096
   72MOL    C2912951   6.641   2.376   7.454 -0.0600  0.2543 -0.5550
   72MOL    C3012952   6.673   2.443   7.318 -0.1932  0.0730 -0.3637
   72MOL    C3112953   6.661   2.333   7.215  0.0175 -0.5188  0.8122
   72MOL    O3212954   6.751   2.261   7.194  0.4650 -0.2330  0.1160
   72MOL    O3312955   6.535   2.310   7.172 -0.0561  0.0519 -0.1599
   72MOL    H3412956   6.701   2.285   7.454  1.1880  1.0811 -0.7715
   72MOL    H3512957   6.676   2.434   7.539 -3.7350 -0.4833  1.5875
   72MOL    H3612958   6.604   2.525   7.301  0.1573  0.9960  2.3988
   72MOL    H3712959   6.554   2.246   7.106 -1.2226 -1.0365  0.5435
   72MOL    C3812960   6.826   2.488   7.315  0.4721  0.4494  0.4256
   72MOL    C3912961   6.855   2.624   7.377  0.1220 -0.7480  0.0266
   72MOL    C4012962   6.768   2.744   7.331  0.4720 -0.0297 -0.2837
   72MOL    O4112963   6.717   2.819   7.414  0.0031  0.0749  0.0847
   72MOL    O4212964   6.754   2.756   7.200  0.0776 -0.1966  0.5856
   72MOL    H4312965   6.854   2.499   7.210  1.6377 -0.8222  0.5937
   72MOL    H4412966   6.898   2.415   7.351  1.7364  1.9938  1.0677
   72MOL    H4512967   6.833   2.608   7.483  2.2344  0.1559  0.6407
   72MOL    H4612968   6.680   2.811   7.180 -0.3445  0.7182  4.2351
   72MOL    C4712969   7.009   2.649   7.362  0.1526  0.3350 -0.6979
   72MOL    C4812970   7.088   2.730   7.469  0.5888 -0.0437 -0.2380
   72MOL    C4912971   7.048   2.877   7.468  0.4241  0.3300 -0.7771
   72MOL    O5012972   6.983   2.934   7.557 -0.1992  0.3463 -0.2255
   72MOL    O5112973   7.094   2.938   7.359  0.3666  0.1763  0.1117
   72MOL    H5212974   7.023   2.697   7.266  0.1143  2.1208  0.1706
   72MOL    H5312975   7.056   2.551   7.356 -0.7879 -0.2055  0.6327
   72MOL    H5412976   7.057   2.689   7.565 -0.1966 -2.8003 -1.5871
   72MOL    H5512977   7.085   3.032   7.358 -0.9580  0.1084  2.2822
   72MOL    C5612978   7.240   2.718   7.447 -0.0751 -0.2445 -0.1290
   72MOL    C5712979   7.330   2.781   7.556  0.5243 -0.0686  0.5033
   72MOL    C5812980   7.471   2.803   7.501  0.1398  0.4166 -0.0286
   72MOL    O5912981   7.535   2.902   7.520 -0.6249  0.0649  0.1993
   72MOL    O6012982   7.521   2.697   7.437 -0.1433  0.0683 -0.4056
   72MOL    H6112983   7.271   2.761   7.352  3.0600 -1.0489  0.4677
   72MOL    H6212984   7.264   2.612   7.450  0.3546 -0.1895 -1.2235
   72MOL    H6312985   7.306   2.887   7.561  1.7910  0.2564  0.0567
   72MOL    H6412986   7.614   2.708   7.435 -0.1782  0.7289  1.0677
   72MOL    C6512987   7.339   2.723   7.696  0.1711  0.0930 -0.0950
   72MOL    C6612988   7.401   2.583   7.723  0.5353  0.3553 -0.2347
   72MOL    C6712989   7.316   2.454   7.719  0.7326  0.4424  0.1494
   72MOL    O6812990   7.309   2.372   7.818 -0.0780 -0.1361  0.4764
   72MOL    O6912991   7.230   2.441   7.618 -0.3795  0.0890  0.3233
   72MOL    H7012992   7.243   2.724   7.747  0.1648 -1.3707 -0.0794
   72MOL    H7112993   7.383   2.804   7.755 -1.4804  1.4316 -0.6574
   72MOL    H7212994   7.466   2.566   7.637 -0.7016 -0.0018 -1.1197
   72MOL    H7312995   7.167   2.371   7.625 -1.4601  1.0177  0.1058
   72MOL    C7412996   7.483   2.589   0.008  0.6057  0.1672  0.0061
   72MOL    C7512997   7.625   2.514   0.011  0.1601  0.2264  0.9159
   72MOL    C7612998   7.718   2.557   7.743 -0.1308  0.3342  1.0198
   72MOL    O7712999   7.716   2.499   7.632  0.2022  0.6090  0.5337
   72MOL    O7813000   7.792   2.669   7.760  0.5719 -0.2566 -0.0798
   72MOL    H7913001   7.427   2.567   0.099 -0.1722  0.3833 -0.4197
   72MOL    H8013002   7.514   2.692   0.022 -2.8568  1.3106 -0.2320
   72MOL    H8113003   7.674   2.556   0.099  0.2847 -0.7355  1.3118
   72MOL    H8213004   7.834   2.682   7.677 -0.9190 -4.0776 -1.5335
   72MOL    C8313005   7.627   2.355   0.028  0.3826 -0.1617  0.1193
   72MOL    C8413006   7.587   2.304   0.163  0.0132  0.0331  0.5371
   72MOL    C8513007   7.707   2.312   0.258 -0.4656  0.5527 -0.1175
   72MOL    O8613008   7.719   2.406   0.332 -0.1235  0.7803 -0.9072
   72MOL    O8713009   7.790   2.202   0.254  0.3185 -0.5843 -0.7586
   72MOL    H8813010   7.723   2.313   7.851  1.5233  1.6425  1.1538
   72MOL    H8913011   7.562   2.308   7.807  1.3298 -3.1608  1.1369
   72MOL    H9013012   7.511   2.372   0.201  0.0012  0.7501 -0.7647
   72MOL    H9113013   0.009   2.209   0.316  0.8464 -1.2248 -1.2895
   72MOL    C9213014   7.530   2.156   0.168  0.3488  0.0112 -0.4684
   72MOL    C9313015   7.596   2.047   0.080 -0.1489 -0.6728  0.9412
   72MOL    C9413016   7.517   2.044   7.793 -0.5842 -0.2620  0.8909
   72MOL    O9513017   7.405   1.999   7.774 -0.1542 -0.2861  0.2528
   72MOL    O9613018   7.602   2.080   7.687 -0.1681 -0.2577  0.2922
   72MOL    H9713019   7.426   2.164   0.136 -0.1499  0.7726  1.3021
   72MOL    H9813020   7.536   2.120   0.270 -0.5929 -1.5982 -0.9524
   72MOL    H9913021   7.700   2.069   0.055 -0.7756  1.1275 -0.1209
   72MOL   H10013022   7.549   2.066   7.610 -0.5307  1.0003  0.3145
   72MOL   C10113023   7.593   1.908   0.155  0.0054  0.4961  0.0059
   72MOL   C10213024   7.716   1.813   0.132 -0.0832  0.7983  0.2396
   72MOL   C10313025   7.840   1.867   0.197 -0.1824  0.0327  0.0890
   72MOL   O10413026   0.082   1.910   0.130  0.5020  0.3135  0.5715
   72MOL   O10513027   7.837   1.862   0.337 -0.9459  0.4152  0.2700
   72MOL   H10613028   7.500   1.856   0.131 -0.5092  1.3827  0.0581
   72MOL   H10713029   7.599   1.916   0.263  1.4419 -0.1983 -0.0070
   72MOL   H10813030   7.683   1.720   0.180 -1.7647  0.1201 -2.1308
   72MOL   H10913031   0.067   1.881   0.378 -0.7364 -1.9723  1.0026
   72MOL   C11013032   7.749   1.783   7.831 -0.2486  0.0773 -0.0139
   72MOL   C11113033   7.642   1.699   7.767 -0.1536 -0.5634  0.2335
   72MOL   C11213034   7.631   1.559   7.836  0.0473  1.0179  0.4426
   72MOL   O11313035   7.722   1.505   0.049 -0.0971 -0.6027 -0.3193
   72MOL   O11413036   7.523   1.490   7.784  0.3520 -0.0724 -0.6630
   72MOL   H11513037   7.844   1.732   7.815 -0.2658 -0.0687  0.3492
   72MOL   H11613038   7.763   1.876   7.777  0.0671  0.5255  0.8422
   72MOL   H11713039   7.546   1.749   7.777  0.8787  1.2887  1.1736
   72MOL   H11813040   7.536   1.400   7.810 -1.2869 -0.3238 -0.6535
   72MOL   C11913041   7.658   1.698   7.613  0.1643  0.2738 -0.2410
   72MOL   C12013042   7.536   1.636   7.529  1.0709 -0.3433  0.5945
   72MOL   C12113043   7.577   1.621   7.383 -0.0725 -0.2069  0.2535
   72MOL   O12213044   7.596   1.510   7.330  0.0318 -0.2768 -0.5262
   72MOL   O12313045   7.582   1.743   7.312  0.1861  0.0303 -0.5033
   72MOL   H12413046   7.749   1.652   7.573 -0.3264 -0.4587 -0.5315
   72MOL   H12513047   7.658   1.804   7.587  1.4945  0.4359  0.3742
   72MOL   H12613048   7.509   1.533   7.551  0.4235 -0.2555  0.2158
   72MOL   H12713049   7.606   1.732   7.221  1.0124 -1.0243 -0.1719
   72MOL   C12813050   7.402   1.720   7.521  0.2753  0.3992 -0.3186
   72MOL   C12913051   7.281   1.698   7.622  0.8571 -0.1259 -0.3145
   72MOL   C13013052   7.225   1.549   7.616 -0.6245 -0.2408  0.4311
   72MOL   O13113053   7.192   1.494   7.515  0.7371 -0.7607 -0.1893
   72MOL   O13213054   7.195   1.501   7.739  0.2800 -0.4560 -0.0599
   72MOL   H13313055   7.356   1.705   7.424 -0.7348 -0.5062  0.2968
   72MOL   H13413056   7.410   1.829   7.521  0.5890  0.4142  2.8179
   72MOL   H13513057   7.311   1.713   7.726 -0.3228 -0.3393  0.0709
   72MOL   H13613058   7.159   1.414   7.725 -0.4792  0.0783 -1.4736
   72MOL   C13713059   7.173   1.811   7.614 -0.5678  0.1739 -0.4290
   72MOL   C13813060   7.055   1.809   7.712 -0.0505 -0.0547 -0.1809
   72MOL   C13913061   7.096   1.787   0.008 -0.9879 -0.2561 -0.8843
   72MOL   O14013062   7.086   1.681   0.066  0.0818  0.7847  0.1992
   72MOL   O14113063   7.163   1.894   0.066 -0.4469  0.0910 -0.6293
   72MOL   H14213064   7.130   1.814   7.514  0.9430  0.8634 -1.0806
   72MOL   H14313065   7.205   1.914   7.629 -3.0673  0.7378  1.3627
   72MOL   H14413066   7.021   1.911   7.729  0.2601 -0.6355  4.9676
   72MOL   H14513067   7.205   1.856   0.141 -1.6369  0.5128  0.2704
   72MOL   C14613068   6.936   1.728   7.664  0.0005  1.0745 -0.9641
   72MOL   C14713069   6.810   1.805   7.623 -0.1465  1.0145  0.5850
   72MOL   C14813070   6.715   1.817   7.742  0.1828 -0.5081 -0.2760
   72MOL   O14913071   6.693   1.924   7.790  0.1555 -0.1999  0.7567
   72MOL   O15013072   6.664   1.697   7.779  0.0372  0.3817 -0.2696
   72MOL   H15113073   6.912   1.653   7.740  1.7738 -0.4855 -1.9082
   72MOL   H15213074   6.977   1.677   7.577  0.9100  1.7956 -0.9709
   72MOL   H15313075   6.845   1.907   7.606  0.6186  0.4460 -1.4530
   72MOL   H15413076   6.706   1.630   7.727  2.7453  1.3457  0.5959
   72MOL   C15513077   6.742   1.760   7.489 -0.5543 -0.7178 -0.2148
   72MOL   C15613078   6.802   1.817   7.359 -0.4554 -0.1053  0.1539
   72MOL   C15713079   6.750   1.962   7.325 -0.6177 -0.8395  0.4089
   72MOL   O15813080   6.633   2.000   7.334  0.3094 -0.2167  0.4793
   72MOL   O15913081   6.854   2.039   7.275  0.3412 -0.2176 -0.0491
   72MOL   H16013082   6.635   1.779   7.496 -0.3116 -0.0531  2.7312
   72MOL   H16113083   6.745   1.651   7.477  0.1204 -0.9071  1.4729
   72MOL   H16213084   6.910   1.820   7.376 -0.0222  3.8205 -2.5457
   72MOL   H16313085   6.819   2.124   7.257 -0.1729 -0.3605  0.2570
   72MOL   C16413086   6.779   1.724   7.231  0.1938  0.0414  0.0397
   72MOL   C16513087   6.858   1.582   7.225  0.4164  0.0370 -0.3200
   72MOL   C16613088   6.998   1.576   7.281 -0.2667  0.7602  0.6348
   72MOL   O16713089   7.079   1.666   7.288  0.1929  0.1723  0.2576
   72MOL   O16813090   7.019   1.452   7.338 -0.2656 -0.2837  0.0732
   72MOL   H16913091   6.797   1.784   7.142  0.1141 -0.2689 -0.1851
   72MOL   H17013092   6.671   1.716   7.233  0.2644 -0.9537  0.1813
   72MOL   H17113093   6.797   1.512   7.281 -2.7138  0.9946 -2.4151
   72MOL   H17213094   7.092   1.462   7.396 -2.0597  2.1276  2.0179
   72MOL   C17313095   6.860   1.538   7.081  0.0912  0.1898 -0.3769
   72MOL   C17413096   6.885   1.387   7.048 -0.4067 -0.1834  0.1389
   72MOL   C17513097   6.756   1.307   7.017 -0.4058 -0.4025  0.4568
   72MOL   O17613098   6.652   1.316   7.083 -0.4786  0.5034  0.5123
   72MOL   O17713099   6.775   1.229   6.907  0.7355 -0.2113  0.5962
   72MOL   H17813100   6.934   1.598   7.028 -1.1201  2.1805  0.1444
   72MOL   H17913101   6.765   1.564   7.035 -0.8262 -1.7500  0.3440
   72MOL   H18013102   6.956   1.388   6.965  1.2586 -1.0711  1.5177
   72MOL   H18113103   6.860   1.234   6.868  0.0924 -0.2387 -0.8320
   72MOL   H18213104   6.932   1.334   7.131 -0.1524 -3.0298 -1.7251
   73MOL     C113105   5.685   3.661   2.626 -0.0441  0.4512 -0.1613
   73MOL     C213106   5.740   3.809   2.638 -0.1939 -0.0805 -0.4358
   73MOL     C313107   5.890   3.812   2.638  0.1013 -0.2511 -0.3061
   73MOL     O413108   5.966   3.844   2.727  0.1205  0.2345 -0.1336
   73MOL     O513109   5.936   3.770   2.512 -0.3675 -0.0223  0.5235
   73MOL     H613110   5.694   3.606   2.720  0.3502 -0.7147 -0.8681
   73MOL     H713111   5.577   3.659   2.611 -0.1787  1.5194  0.6634
   73MOL     H813112   5.707   3.864   2.550  0.3579 -0.6287 -0.9856
   73MOL     H913113   6.031   3.776   2.507 -0.4971  0.6299 -1.4847
   73MOL    H1013114   5.725   3.613   2.536  0.3597 -2.7344  1.6293
   73MOL    C1113115   5.690   3.883   2.766  0.4737  0.7236 -0.3860
   73MOL    C1213116   5.737   4.032   2.774  0.1181  0.5389  0.4326
   73MOL    C1313117   5.793   4.064   2.914  0.6829  0.1279  0.1031
   73MOL    O1413118   5.810   3.979   3.005 -0.7020  0.2164  0.4615
   73MOL    O1513119   5.812   4.196   2.925 -0.0583  0.1094  0.4983
   73MOL    H1613120   5.719   3.817   2.848  0.3766 -0.8524 -1.5929
   73MOL    H1713121   5.582   3.895   2.763  0.2130 -1.5712 -1.7032
   73MOL    H1813122   5.828   4.034   2.715  0.9530  0.0557  1.6746
   73MOL    H1913123   5.877   4.209   2.992 -0.2464  0.6745  0.5696
   73MOL    C2013124   5.632   4.129   2.708 -0.9112  0.5508  0.7972
   73MOL    C2113125   5.657   4.154   2.557  0.0169 -0.1665  0.5588
   73MOL    C2213126   5.795   4.214   2.522 -0.0950 -0.4585  0.6861
   73MOL    O2313127   5.833   4.329   2.552 -0.1021 -0.4965 -0.4792
   73MOL    O2413128   5.868   4.125   2.451  0.1872  0.2054  0.4949
   73MOL    H2513129   5.615   4.223   2.760 -0.7925 -0.4052  2.6352
   73MOL    H2613130   5.536   4.078   2.713 -1.1679  1.1769  2.5841
   73MOL    H2713131   5.654   4.055   2.514  1.0000  0.0876 -0.1153
   73MOL    H2813132   5.956   4.159   2.443  0.4055  0.0360  1.9899
   73MOL    C2913133   5.544   4.232   2.487 -0.4894  0.8947 -0.1487
   73MOL    C3013134   5.517   4.189   2.336 -0.9423  0.5646 -0.1213
   73MOL    C3113135   5.431   4.294   2.256 -0.2209  0.8121 -0.1628
   73MOL    O3213136   5.318   4.268   2.215 -0.0737  0.1451 -0.7582
   73MOL    O3313137   5.493   4.413   2.245 -0.5318 -0.0039 -0.8114
   73MOL    H3413138   5.552   4.339   2.501 -1.6078  1.1462 -1.2937
   73MOL    H3513139   5.446   4.202   2.526 -0.0731 -1.1156 -0.5571
   73MOL    H3613140   5.616   4.181   2.291 -0.3389  1.8996  0.9117
   73MOL    H3713141   5.434   4.469   2.197 -2.3280 -0.1215  1.1997
   73MOL    C3813142   5.446   4.052   2.326  0.5584  0.4102  0.0464
   73MOL    C3913143   5.476   3.976   2.194  0.4455  0.2810  0.3873
   73MOL    C4013144   5.358   3.878   2.154  0.9989 -0.0587  0.4482
   73MOL    O4113145   5.366   3.755   2.157  0.2394 -0.3610 -0.3474
   73MOL    O4213146   5.240   3.944   2.124 -0.1966 -0.3611 -0.4632
   73MOL    H4313147   5.340   4.067   2.347  0.2729 -1.6862  0.1891
   73MOL    H4413148   5.491   3.993   2.405 -3.4423  0.7739  2.7378
   73MOL    H4513149   5.475   4.053   2.117  0.9090  0.1577  0.2550
   73MOL    H4613150   5.176   3.883   2.093  0.1176 -1.7955  1.6064
   73MOL    C4713151   5.617   3.908   2.199  0.0293 -0.4937  0.4972
   73MOL    C4813152   5.701   3.896   2.063  1.2572  0.1632  0.9602
   73MOL    C4913153   5.637   3.825   1.951 -0.1047 -0.0291 -0.5777
   73MOL    O5013154   5.614   3.871   1.840 -0.0097  0.2246 -1.0065
   73MOL    O5113155   5.597   3.699   1.983 -0.6063  0.4390 -0.8239
   73MOL    H5213156   5.610   3.806   2.238 -1.8789 -0.4474  0.3348
   73MOL    H5313157   5.675   3.963   2.273  1.8275 -1.4157 -0.2046
   73MOL    H5413158   5.706   3.999   2.027 -2.8085 -0.0046 -0.2792
   73MOL    H5513159   5.559   3.664   1.904 -0.4910  0.7749 -1.0298
   73MOL    C5613160   5.846   3.840   2.094 -0.0044  0.2572 -0.0760
   73MOL    C5713161   5.939   3.944   2.156  0.6475 -0.3907  0.4275
   73MOL    C5813162   5.953   4.064   2.064  0.1636  0.2326 -0.2008
   73MOL    O5913163   5.923   4.070   1.945  0.3235 -0.8417 -0.5948
   73MOL    O6013164   5.986   4.179   2.127 -0.1103 -0.4379 -0.1462
   73MOL    H6113165   5.882   3.797   2.001  1.1201 -0.9155  0.8745
   73MOL    H6213166   5.833   3.754   2.160 -1.7129  1.1802  0.8557
   73MOL    H6313167   5.886   3.985   2.242 -0.0892  0.4255 -0.4045
   73MOL    H6413168   5.991   4.243   2.058 -0.7549 -1.5218 -1.2268
   73MOL    C6513169   6.083   3.892   2.210  0.1850  0.0023  0.0454
   73MOL    C6613170   6.193   3.873   2.109  0.1466  0.2378 -0.4060
   73MOL    C6713171   6.191   3.728   2.040  0.2614 -0.2942  0.7624
   73MOL    O6813172   6.117   3.636   2.069  0.4231  0.1898  0.6725
   73MOL    O6913173   6.277   3.718   1.930 -0.0553 -0.6882 -0.5394
   73MOL    H7013174   6.070   3.794   2.254  0.2095 -0.9987 -2.1019
   73MOL    H7113175   6.117   3.967   2.281  0.8025  0.0136 -0.2599
   73MOL    H7213176   6.188   3.940   2.023 -0.1145  0.3884 -0.2748
   73MOL    H7313177   6.253   3.645   1.875  0.5184 -2.3127  1.3254
   73MOL    C7413178   6.330   3.898   2.175 -0.6269 -0.0900 -0.3187
   73MOL    C7513179   6.363   3.801   2.296 -0.2602  0.3074  0.0162
   73MOL    C7613180   6.303   3.846   2.429 -0.1154  0.5414  0.0994
   73MOL    O7713181   6.215   3.782   2.482  0.1661 -0.3692  0.1190
   73MOL    O7813182   6.350   3.966   2.480  0.2475 -0.2841  0.0824
   73MOL    H7913183   6.327   3.997   2.220  0.2949  0.0647 -0.5998
   73MOL    H8013184   6.418   3.901   2.111 -1.9238 -0.8460 -2.1825
   73MOL    H8113185   6.316   3.704   2.279  0.8662 -0.1223 -0.7414
   73MOL    H8213186   6.305   3.990   2.560  0.6466  1.1877 -0.1251
   73MOL    C8313187   6.509   3.768   2.310 -0.0309 -0.1650  0.0526
   73MOL    C8413188   6.582   3.681   2.204  0.1964  0.1145  0.1515
   73MOL    C8513189   6.529   3.541   2.195 -0.8395 -0.8932  0.9569
   73MOL    O8613190   6.527   3.466   2.297  0.3172  0.1286 -0.6114
   73MOL    O8713191   6.500   3.514   2.071 -0.4571  0.2245 -0.0315
   73MOL    H8813192   6.522   3.728   2.410  0.7557  1.6288  0.6854
   73MOL    H8913193   6.569   3.859   2.315  0.1925 -0.3115  0.0320
   73MOL    H9013194   6.553   3.730   2.110  2.5695 -1.3703 -1.3980
   73MOL    H9113195   6.471   3.426   2.052 -0.7433  0.7662 -2.1896
   73MOL    C9213196   6.740   3.679   2.225 -0.2280 -0.1510 -0.1455
   73MOL    C9313197   6.832   3.623   2.114 -0.2036 -0.0847  0.7536
   73MOL    C9413198   6.803   3.696   1.980 -0.1184 -0.0669  0.2620
   73MOL    O9513199   6.784   3.635   1.875  0.4147 -0.0163 -0.0878
   73MOL    O9613200   6.781   3.829   1.999  0.5763 -0.3304 -0.2693
   73MOL    H9713201   6.753   3.629   2.321  0.2804  2.4963  1.2126
   73MOL    H9813202   6.789   3.775   2.239 -2.3488  1.0321 -0.6888
   73MOL    H9913203   6.932   3.663   2.131 -0.1560  0.9165 -1.6604
   73MOL   H10013204   6.744   3.859   1.917 -0.1743 -0.6139 -0.0383
   73MOL   C10113205   6.833   3.464   2.093  0.2911 -0.3589  0.4640
   73MOL   C10213206   6.961   3.411   2.018 -0.2769  0.6111  0.4050
   73MOL   C10313207   6.910   3.286   1.945  0.0511 -0.4051 -0.4582
   73MOL   O10413208   6.873   3.186   1.999 -0.0654 -0.2281 -0.1300
   73MOL   O10513209   6.919   3.298   1.809  0.2754 -0.2747  0.0344
   73MOL   H10613210   6.741   3.429   2.046 -0.1379 -0.2288  1.1945
   73MOL   H10713211   6.826   3.433   2.197  1.5858 -3.3432 -0.2833
   73MOL   H10813212   6.977   3.478   1.934  0.2322 -0.3561 -0.2795
   73MOL   H10913213   6.891   3.217   1.769  0.1641  0.4504 -1.3810
   73MOL   C11013214   7.091   3.400   2.085  0.0680  0.4399 -0.3499
   73MOL   C11113215   7.099   3.341   2.228  0.0495  0.5245 -0.4504
   73MOL   C11213216   7.066   3.438   2.339 -0.2783 -0.8549 -0.2984
   73MOL   O11313217   7.079   3.555   2.333 -0.0131 -0.7031  0.3394
   73MOL   O11413218   7.015   3.378   2.452  0.1701 -0.3364 -0.4642
   73MOL   H11513219   7.152   3.490   2.097  3.6857 -1.8949 -0.2861
   73MOL   H11613220   7.150   3.336   2.019  1.4255 -0.0879  1.3095
   73MOL   H11713221   7.028   3.259   2.231 -1.5893  1.8861 -1.5019
   73MOL   H11813222   6.989   3.444   2.515  1.5699 -0.3260  0.1085
   73MOL   C11913223   7.240   3.278   2.253 -0.6679  0.3779  0.1110
   73MOL   C12013224   7.247   3.168   2.365 -0.8122  0.3863 -1.2391
   73MOL   C12113225   7.396   3.131   2.405  0.4057 -0.2842 -0.5619
   73MOL   O12213226   7.452   3.024   2.388 -0.6782 -0.1101  0.3511
   73MOL   O12313227   7.452   3.241   2.455  0.1247 -0.6059 -0.5165
   73MOL   H12413228   7.315   3.353   2.277  1.8219 -1.9357 -0.1486
   73MOL   H12513229   7.272   3.226   2.162  0.3962  0.4307  0.4512
   73MOL   H12613230   7.200   3.211   2.454 -1.0984  0.6541 -1.5189
   73MOL   H12713231   7.535   3.209   2.488 -1.3850 -1.4476  2.6561
   73MOL   C12813232   7.163   3.038   2.325  0.3081  0.5422  0.6019
   73MOL   C12913233   7.202   2.962   2.191  0.4070  0.3249  0.5216
   73MOL   C13013234   7.125   2.998   2.066  0.8468  0.2565 -0.4380
   73MOL   O13113235   7.181   3.037   1.963  0.0068  0.5305 -0.1320
   73MOL   O13213236   6.993   2.975   2.077  0.1275  0.5544  0.4603
   73MOL   H13313237   7.061   3.078   2.321  1.0914  2.4083 -1.6671
   73MOL   H13413238   7.169   2.960   2.401  0.9211 -2.0607 -2.0260
   73MOL   H13513239   7.304   2.997   2.174  0.8174 -1.1466 -0.1426
   73MOL   H13613240   6.937   3.022   2.018 -0.1105  0.1852  0.3910
   73MOL   C13713241   7.229   2.806   2.207  0.0078 -0.5192  0.1575
   73MOL   C13813242   7.120   2.695   2.213 -0.8634  0.5968  0.2789
   73MOL   C13913243   7.016   2.729   2.317 -0.0173 -0.0591  0.3504
   73MOL   O14013244   7.042   2.748   2.433 -0.1437 -0.3982  0.1592
   73MOL   O14113245   6.890   2.735   2.261 -0.1636 -0.0404  0.0431
   73MOL   H14213246   7.289   2.797   2.298 -0.2472 -0.3620  0.3422
   73MOL   H14313247   7.294   2.781   2.123  0.3047 -0.8353  0.4765
   73MOL   H14413248   7.072   2.681   2.116  1.2920 -1.3278 -0.5416
   73MOL   H14513249   6.809   2.735   2.309 -0.2297 -0.8357 -0.0516
   73MOL   C14613250   7.183   2.558   2.251 -0.9860  0.5361  0.5051
   73MOL   C14713251   7.112   2.424   2.235  0.1257  0.1656 -0.3692
   73MOL   C14813252   7.035   2.411   2.099  0.5534  0.0207 -0.2672
   73MOL   O14913253   6.921   2.446   2.080  0.3178 -0.0980 -0.2901
   73MOL   O15013254   7.114   2.334   2.011 -0.3337  0.3000 -0.1473
   73MOL   H15113255   7.229   2.561   2.350 -2.3623  3.9438  1.1269
   73MOL   H15213256   7.274   2.557   2.192  0.7516  2.5859  3.0363
   73MOL   H15313257   7.189   2.346   2.231  0.7170  0.5648  2.4333
   73MOL   H15413258   7.075   2.273   1.951 -0.6290 -1.6082  1.9339
   73MOL   C15513259   7.028   2.390   2.356 -0.5013 -0.4077 -0.0069
   73MOL   C15613260   6.974   2.247   2.369 -0.3115 -0.1531  0.2993
   73MOL   C15713261   6.865   2.243   2.476 -0.4751 -0.0531 -0.0278
   73MOL   O15813262   6.756   2.200   2.461  0.1249  0.0226  0.4222
   73MOL   O15913263   6.901   2.300   2.595 -0.2570 -0.0639 -0.1093
   73MOL   H16013264   6.947   2.463   2.360  0.2111  0.3188  1.8080
   73MOL   H16113265   7.088   2.406   2.446  0.6832  1.8598 -1.1762
   73MOL   H16213266   6.918   2.219   2.280 -1.8503  1.2028  0.8183
   73MOL   H16313267   6.848   2.272   2.668  0.0028 -0.1273  0.0552
   73MOL   C16413268   7.082   2.139   2.403  0.6169 -0.2947 -0.0304
   73MOL   C16513269   7.042   1.999   2.359 -0.3833 -0.0253  0.7045
   73MOL   C16613270   7.130   1.892   2.429  0.3152 -0.3497 -0.4170
   73MOL   O16713271   7.249   1.907   2.450  0.4882 -0.3402 -0.0332
   73MOL   O16813272   7.061   1.777   2.466 -0.4092 -0.3877 -0.2734
   73MOL   H16913273   7.110   2.129   2.508  1.1257  1.8938  0.0832
   73MOL   H17013274   7.178   2.160   2.355  0.9957 -0.5238  0.6271
   73MOL   H17113275   6.937   1.977   2.382  0.2082 -1.1072  2.4515
   73MOL   H17213276   6.968   1.785   2.448  0.0872  2.2472 -1.9190
   73MOL   C17313277   7.069   1.995   2.205  0.4477  0.0523 -0.2593
   73MOL   C17413278   6.997   1.879   2.134  0.0869  0.6080 -0.2126
   73MOL   C17513279   6.862   1.920   2.072 -0.0692  0.0727 -0.6993
   73MOL   O17613280   6.787   2.000   2.128  0.2809 -0.2799 -0.0903
   73MOL   O17713281   6.833   1.853   1.953 -0.3580 -0.4619 -0.4773
   73MOL   H17813282   7.175   1.986   2.179  0.3920 -1.7996  0.0192
   73MOL   H17913283   7.044   2.081   2.143 -0.7501 -1.2582 -1.6289
   73MOL   H18013284   7.066   1.840   2.060  1.7596  2.2840  0.4259
   73MOL   H18113285   6.753   1.887   1.915  0.4148  1.5977 -0.3506
   73MOL   H18213286   6.973   1.800   2.205  0.7734 -0.9559 -1.6808
   74MOL     C113287   7.049   6.800   4.284 -0.4926 -0.2229  0.1173
   74MOL     C213288   7.064   6.661   4.345 -0.1287  0.1165  0.6641
   74MOL     C313289   6.941   6.573   4.309  0.2000 -0.6019  0.0234
   74MOL     O413290   6.873   6.523   4.396 -0.3800 -0.4958  0.1194
   74MOL     O513291   6.930   6.549   4.178 -0.3300 -0.1141  0.5445
   74MOL     H613292   7.140   6.857   4.268  0.6712 -2.0272  0.1822
   74MOL     H713293   7.015   6.784   4.181  1.5403  3.5371 -1.2361
   74MOL     H813294   7.147   6.616   4.290 -2.6009 -1.8439 -1.6001
   74MOL     H913295   6.860   6.489   4.159 -1.3406  1.3046 -0.2659
   74MOL    H1013296   6.984   6.863   4.344 -0.3244  0.2788 -0.2234
   74MOL    C1113297   7.110   6.677   4.491  0.1965  0.5445  0.4169
   74MOL    C1213298   7.132   6.552   4.576 -0.0358 -0.1080 -0.5712
   74MOL    C1313299   7.176   6.597   4.717 -0.1909  0.8340 -0.0547
   74MOL    O1413300   7.106   6.601   4.814 -0.0849 -0.3590 -0.3285
   74MOL    O1513301   7.312   6.633   4.725 -0.4145 -0.0153  0.1205
   74MOL    H1613302   7.063   6.762   4.541 -0.2009 -0.0632  1.0818
   74MOL    H1713303   7.216   6.696   4.474  0.3583 -0.2554  0.5052
   74MOL    H1813304   7.036   6.503   4.589  0.0173  0.2129  1.2168
   74MOL    H1913305   7.336   6.668   4.810 -2.6907  2.2259 -0.1016
   74MOL    C2013306   7.219   6.446   4.515 -0.4993  0.6793  0.3053
   74MOL    C2113307   7.253   6.318   4.589  0.3446 -0.4008 -1.0557
   74MOL    C2213308   7.366   6.246   4.512  0.5467  0.1459 -0.4330
   74MOL    O2313309   7.346   6.181   4.413  0.1471 -0.0920 -0.4793
   74MOL    O2413310   7.483   6.242   4.572  0.3176 -0.1022 -0.3950
   74MOL    H2513311   7.313   6.485   4.476 -0.4321  0.1984 -0.0243
   74MOL    H2613312   7.169   6.413   4.424  0.4111 -0.0340  0.0515
   74MOL    H2713313   7.295   6.344   4.686  3.3446 -0.6522 -2.2518
   74MOL    H2813314   7.545   6.181   4.536  2.1002  1.5463 -0.1459
   74MOL    C2913315   7.135   6.217   4.606 -0.2511  0.0759 -0.3701
   74MOL    C3013316   7.169   6.082   4.677  0.2210 -0.2814  0.1475
   74MOL    C3113317   7.076   5.970   4.648  0.1985  0.1967  0.9714
   74MOL    O3213318   6.973   5.983   4.580 -0.1920 -0.1858 -0.3862
   74MOL    O3313319   7.123   5.850   4.691  0.2123 -0.3410 -0.4072
   74MOL    H3413320   7.088   6.196   4.510  1.4453  0.1567 -1.2466
   74MOL    H3513321   7.057   6.271   4.659  1.2537  0.6280  1.3429
   74MOL    H3613322   7.263   6.046   4.636 -0.4128  1.5536 -3.0568
   74MOL    H3713323   7.201   5.860   4.744 -1.0144  2.4831  0.9864
   74MOL    C3813324   7.202   6.096   4.828 -0.2022  0.0275  0.0979
   74MOL    C3913325   7.084   6.143   4.917  0.2787 -0.8078  0.7977
   74MOL    C4013326   7.109   6.270   5.008 -0.3643 -0.0020 -0.0743
   74MOL    O4113327   7.218   6.327   5.008 -0.2528  0.3128  0.6593
   74MOL    O4213328   7.006   6.310   5.087 -0.0595  0.4889  0.4616
   74MOL    H4313329   7.287   6.165   4.833  0.0866 -0.2656 -0.6053
   74MOL    H4413330   7.245   6.002   4.862  0.5462  0.2016 -0.3372
   74MOL    H4513331   7.012   6.168   4.839 -0.6703  0.6638  2.1115
   74MOL    H4613332   7.038   6.395   5.114 -0.4640  1.0763 -0.8273
   74MOL    C4713333   7.035   6.028   4.997  0.1277  0.4051  0.2352
   74MOL    C4813334   6.882   6.037   5.040  0.3029 -0.0292 -0.3502
   74MOL    C4913335   6.857   5.995   5.186 -0.8511 -0.1840  0.2509
   74MOL    O5013336   6.947   5.947   5.260  0.0612 -0.4982  0.7475
   74MOL    O5113337   6.734   6.037   5.223  0.1997  0.5816 -0.1115
   74MOL    H5213338   7.095   6.021   5.088 -0.3331 -0.0217  0.5118
   74MOL    H5313339   7.051   5.935   4.942  0.1955 -0.4208  1.6168
   74MOL    H5413340   6.854   6.142   5.030 -0.1172 -0.0804  0.3066
   74MOL    H5513341   6.721   6.021   5.315 -2.5326 -0.6697 -0.6591
   74MOL    C5613342   6.796   5.963   4.936 -0.2914  0.6338  0.4214
   74MOL    C5713343   6.665   6.035   4.891 -0.1934 -0.3171  0.1684
   74MOL    C5813344   6.545   5.939   4.907  1.1290  0.4247  0.8564
   74MOL    O5913345   6.470   5.916   4.812 -0.2523 -0.2169  0.1945
   74MOL    O6013346   6.521   5.893   5.032 -0.4193  0.2057 -0.0075
   74MOL    H6113347   6.771   5.866   4.978 -0.6198  0.7484  0.4961
   74MOL    H6213348   6.840   5.937   4.840 -2.6619 -1.3330 -0.1800
   74MOL    H6313349   6.630   6.104   4.967  0.1115  1.1966 -1.0496
   74MOL    H6413350   6.454   5.827   5.031 -0.4441  0.2397 -0.6194
   74MOL    C6513351   6.677   6.109   4.753 -0.0637  0.6424  0.5213
   74MOL    C6613352   6.600   6.241   4.735 -0.0406  0.1579  0.1658
   74MOL    C6713353   6.582   6.275   4.585 -0.1371 -0.4139  0.7038
   74MOL    O6813354   6.472   6.286   4.534 -0.4189  0.3555  0.2916
   74MOL    O6913355   6.698   6.308   4.521 -0.0025  0.0454 -0.2846
   74MOL    H7013356   6.652   6.032   4.680  2.1923  1.7088 -1.4700
   74MOL    H7113357   6.778   6.124   4.715 -1.3668  1.7719 -2.6667
   74MOL    H7213358   6.504   6.207   4.773 -0.0196  0.2325  0.2850
   74MOL    H7313359   6.674   6.333   4.433 -2.0727  1.0077  0.5087
   74MOL    C7413360   6.645   6.362   4.824 -0.1214  0.1206 -0.2162
   74MOL    C7513361   6.546   6.477   4.831 -0.0474 -0.2563  0.3898
   74MOL    C7613362   6.573   6.584   4.722  0.0909 -0.5064  0.1032
   74MOL    O7713363   6.683   6.620   4.676 -1.1449 -0.1767 -0.7177
   74MOL    O7813364   6.451   6.637   4.681  0.1361  0.1362 -0.2020
   74MOL    H7913365   6.747   6.383   4.792  0.6193 -2.2968  0.5057
   74MOL    H8013366   6.660   6.322   4.924 -2.3159  0.1944  0.1644
   74MOL    H8113367   6.442   6.449   4.816 -0.1602 -0.8753  2.1657
   74MOL    H8213368   6.472   6.696   4.610  0.8351 -1.6434 -1.5102
   74MOL    C8313369   6.554   6.540   4.964  0.6975  0.9006 -0.1704
   74MOL    C8413370   6.468   6.488   5.081 -0.5009 -0.1657 -0.3297
   74MOL    C8513371   6.319   6.525   5.050  0.0275 -0.1997 -0.4544
   74MOL    O8613372   6.286   6.623   4.987 -0.3468 -0.2439  0.4032
   74MOL    O8713373   6.235   6.431   5.107 -0.0383  0.2157 -0.7521
   74MOL    H8813374   6.530   6.646   4.956 -0.9193  0.6173  0.5698
   74MOL    H8913375   6.658   6.555   4.992  1.0468  0.7817 -1.4011
   74MOL    H9013376   6.483   6.381   5.069 -1.6416 -0.0849 -2.8345
   74MOL    H9113377   6.143   6.441   5.092 -0.0628  0.9141 -0.1388
   74MOL    C9213378   6.496   6.549   5.222 -0.1346  0.0875  0.7897
   74MOL    C9313379   6.632   6.520   5.272 -0.3665  0.1015 -0.8156
   74MOL    C9413380   6.656   6.367   5.293 -0.0742 -0.3576  0.0885
   74MOL    O9513381   6.642   6.313   5.404  0.4280 -0.6895 -0.2713
   74MOL    O9613382   6.705   6.297   5.185 -0.0011  0.1410  0.6351
   74MOL    H9713383   6.415   6.535   5.294  0.4756 -0.9328  1.2768
   74MOL    H9813384   6.480   6.653   5.193  2.0162 -0.4324 -2.4971
   74MOL    H9913385   6.700   6.553   5.194  0.6800 -0.6446 -0.2266
   74MOL   H10013386   6.723   6.210   5.218  0.1603  0.4656  1.4204
   74MOL   C10113387   6.671   6.607   5.393  0.2913  0.1939  0.2867
   74MOL   C10213388   6.807   6.582   5.458  1.1043 -0.4309  0.2095
   74MOL   C10313389   6.830   6.679   5.575 -0.1693  0.5193  0.6746
   74MOL   O10413390   6.766   6.784   5.590  0.0728 -0.4783 -0.3443
   74MOL   O10513391   6.941   6.640   5.649 -1.2429 -0.0838 -0.0179
   74MOL   H10613392   6.587   6.589   5.461 -1.4490 -2.5721 -2.4462
   74MOL   H10713393   6.660   6.710   5.357  0.6078 -0.4331 -1.7083
   74MOL   H10813394   6.801   6.486   5.510  1.6279 -0.0779  0.9327
   74MOL   H10913395   6.946   6.693   5.727 -0.2042  1.7081 -1.2585
   74MOL   C11013396   6.924   6.574   5.362 -1.0226 -0.8597  0.0202
   74MOL   C11113397   6.951   6.708   5.286 -0.2737 -0.1976 -0.1094
   74MOL   C11213398   6.959   6.696   5.137 -1.0118 -0.1450  0.5736
   74MOL   O11313399   6.884   6.764   5.058  0.2298  0.2696 -0.2526
   74MOL   O11413400   7.053   6.605   5.094  0.4293  0.6167 -0.7066
   74MOL   H11513401   6.908   6.491   5.293  3.5089 -1.4738 -0.4687
   74MOL   H11613402   7.015   6.552   5.417  0.0217 -0.0314 -1.3384
   74MOL   H11713403   6.872   6.780   5.309  0.1263  0.3966 -0.5756
   74MOL   H11813404   7.065   6.622   5.002  1.1608  2.5858 -0.2809
   74MOL   C11913405   7.087   6.770   5.329  0.2691  0.0667  0.1750
   74MOL   C12013406   7.093   6.923   5.291  0.7593  0.1686 -0.2871
   74MOL   C12113407   7.221   6.943   5.211  0.2381  0.1633  0.3910
   74MOL   O12213408   7.336   6.929   5.262  0.5268 -0.3523 -0.7606
   74MOL   O12313409   7.197   6.982   5.086 -0.0777 -0.0514 -0.1058
   74MOL   H12413410   7.182   6.732   5.291  0.5076 -1.5491  2.3380
   74MOL   H12513411   7.103   6.761   5.436 -1.6704  0.7332  0.5288
   74MOL   H12613412   7.005   6.938   5.229 -1.2439  0.0437  2.4236
   74MOL   H12713413   7.279   7.020   5.061 -0.8832  0.7878 -1.5681
   74MOL   C12813414   7.079   7.028   5.405 -0.0001 -0.0848  0.2419
   74MOL   C12913415   7.083   7.175   5.355 -0.5684 -0.4201 -0.2484
   74MOL   C13013416   7.109   7.266   5.478 -0.0967 -0.2980  1.0538
   74MOL   O13113417   7.027   7.277   5.566  0.0499 -0.1805 -0.2670
   74MOL   O13213418   7.239   7.307   5.478  0.1283  0.4867 -0.2154
   74MOL   H13313419   7.164   7.016   5.471 -1.0802 -0.5390  1.5701
   74MOL   H13413420   6.989   7.012   5.464 -1.3560 -1.5815 -2.1550
   74MOL   H13513421   7.163   7.185   5.282  0.4149 -1.6132  0.6421
   74MOL   H13613422   7.261   7.364   5.550  0.1900  2.8985 -2.0805
   74MOL   C13713423   6.944   7.211   5.287 -0.8212  0.3295  0.0230
   74MOL   C13813424   6.951   7.358   5.222  0.0881 -0.1410  0.3643
   74MOL   C13913425   6.908   7.470   5.318  0.1022 -0.0927  0.0823
   74MOL   O14013426   6.991   7.545   5.366  0.2171  0.0650  0.1363
   74MOL   O14113427   6.780   7.469   5.356  0.4783  0.0394  0.4186
   74MOL   H14213428   6.864   7.208   5.361 -0.2092  0.2771  0.6881
   74MOL   H14313429   6.934   7.133   5.211  1.4552  0.0124 -0.0094
   74MOL   H14413430   7.051   7.385   5.189 -0.1154 -0.7011 -0.7363
   74MOL   H14513431   6.744   7.540   5.407 -1.1581  0.3116 -1.0505
   74MOL   C14613432   6.860   7.361   5.098  0.0577  0.5323  0.1727
   74MOL   C14713433   6.912   7.314   4.960  0.6979  0.0570 -0.1084
   74MOL   C14813434   7.053   7.366   4.932 -0.0383  0.5646  0.5701
   74MOL   O14913435   7.081   7.481   4.907 -0.5909  0.2611  0.3725
   74MOL   O15013436   7.143   7.266   4.952 -0.0861  0.1929 -0.3167
   74MOL   H15113437   6.813   7.459   5.087 -2.2804 -0.4347  1.2134
   74MOL   H15213438   6.766   7.318   5.133 -0.7813  2.5552  0.4890
   74MOL   H15313439   6.909   7.206   4.952  0.1108 -0.1193  2.2602
   74MOL   H15413440   7.224   7.313   4.964  0.2922 -0.6820  0.6090
   74MOL   C15513441   6.807   7.373   4.855 -0.6078  0.2661  0.4400
   74MOL   C15613442   6.837   7.339   4.704 -0.0522 -0.5850 -0.0418
   74MOL   C15713443   6.829   7.468   4.623  1.1949 -0.5779  0.4952
   74MOL   O15813444   6.741   7.495   4.541 -0.2030  0.0382  0.2292
   74MOL   O15913445   6.930   7.558   4.641  0.2661 -0.1539  0.0365
   74MOL   H16013446   6.810   7.481   4.866 -0.4076  0.2301  0.7844
   74MOL   H16113447   6.706   7.356   4.892 -1.0913  1.2292 -0.4488
   74MOL   H16213448   6.930   7.296   4.668 -0.2076 -0.3495 -0.7203
   74MOL   H16313449   6.908   7.642   4.604 -1.3801 -0.6874 -0.2696
   74MOL   C16413450   6.736   7.230   4.650 -0.0312 -0.5014 -0.5559
   74MOL   C16513451   6.724   7.093   4.730 -0.4764 -0.1484  0.1549
   74MOL   C16613452   6.857   7.025   4.757 -0.1722  0.0674  0.9630
   74MOL   O16713453   6.965   7.059   4.714  0.2769 -0.0641  0.4968
   74MOL   O16813454   6.842   6.937   4.857  0.6157 -0.0219 -0.1466
   74MOL   H16913455   6.751   7.214   4.543  1.1682 -0.0663 -0.4642
   74MOL   H17013456   6.635   7.270   4.642  0.5781  1.0952 -0.6284
   74MOL   H17113457   6.675   7.108   4.826  0.1118  2.5898  0.0521
   74MOL   H17213458   6.923   6.889   4.867  0.2473 -0.6297 -0.0122
   74MOL   C17313459   6.632   6.987   4.654  0.6086 -0.8052  0.1815
   74MOL   C17413460   6.492   7.037   4.621  0.7183  0.0419  0.5224
   74MOL   C17513461   6.406   6.947   4.534 -0.1004 -0.4463  0.3182
   74MOL   O17613462   6.431   6.832   4.508 -0.6230 -0.1934  0.9313
   74MOL   O17713463   6.291   7.004   4.501  0.6266  0.4602 -0.2226
   74MOL   H17813464   6.624   6.891   4.705  1.7829 -1.6235 -1.1383
   74MOL   H17913465   6.683   6.947   4.567  1.8901  0.5272  0.3043
   74MOL   H18013466   6.447   7.058   4.718 -0.2729 -2.1654  0.5778
   74MOL   H18113467   6.253   6.947   4.436  4.4585 -1.8029 -0.6889
   74MOL   H18213468   6.493   7.136   4.576  1.0990  0.3052  1.1054
   75MOL     C113469   6.205   1.834   1.360  0.3878  0.5850 -0.2703
   75MOL     C213470   6.089   1.934   1.381  0.0644  0.1996 -0.7000
   75MOL     C313471   6.109   2.055   1.291  0.0052 -0.2149  0.6489
   75MOL     O413472   6.220   2.094   1.251  0.1234 -0.4259 -0.9732
   75MOL     O513473   5.997   2.128   1.271 -0.0399 -0.2981  0.3529
   75MOL     H613474   6.184   1.735   1.400 -0.4438  0.7600 -0.2638
   75MOL     H713475   6.217   1.818   1.253 -3.1116  2.8587 -1.0658
   75MOL     H813476   5.996   1.879   1.367  0.3400 -0.4929  0.1175
   75MOL     H913477   6.002   2.205   1.218 -0.9588 -0.7896 -0.4550
   75MOL    H1013478   6.294   1.875   1.408  0.1688  1.2231 -0.4106
   75MOL    C1113479   6.087   1.973   1.533  0.5149  0.2267  1.2196
   75MOL    C1213480   5.943   2.016   1.581 -0.0687 -0.8442 -0.3273
   75MOL    C1313481   5.972   2.139   1.670 -0.0984  0.2067  0.3147
   75MOL    O1413482   5.960   2.255   1.623 -0.0957 -0.1745 -0.1951
   75MOL    O1513483   6.011   2.097   1.791  0.5176  0.5903  0.6873
   75MOL    H1613484   6.168   2.044   1.552 -0.8729  2.0667  0.3761
   75MOL    H1713485   6.127   1.886   1.585 -0.4425 -0.8164  0.2329
   75MOL    H1813486   5.881   2.047   1.497 -1.0009 -1.2138  0.2121
   75MOL    H1913487   6.012   2.174   1.846  1.7127  1.4586 -0.5353
   75MOL    C2013488   5.870   1.896   1.657  0.3853 -0.3904 -0.1075
   75MOL    C2113489   5.722   1.927   1.692  0.0458 -0.6020 -0.1208
   75MOL    C2213490   5.672   1.803   1.773  0.2255  0.2360  0.0889
   75MOL    O2313491   5.589   1.727   1.733  0.5147  1.0600  0.3862
   75MOL    O2413492   5.738   1.788   1.895 -0.4016 -0.1023  0.2174
   75MOL    H2513493   5.934   1.870   1.741  1.8593  0.5519 -0.9109
   75MOL    H2613494   5.873   1.813   1.587  1.3329 -1.1052  0.7577
   75MOL    H2713495   5.720   2.014   1.759 -0.4319  0.0445 -0.9624
   75MOL    H2813496   5.709   1.703   1.923 -1.2725  0.3589  0.7438
   75MOL    C2913497   5.635   1.958   1.561  0.0877 -0.3436 -0.2260
   75MOL    C3013498   5.503   2.042   1.587  0.0622 -0.3494 -0.0840
   75MOL    C3113499   5.539   2.179   1.648  0.3195 -0.1468 -0.4168
   75MOL    O3213500   5.520   2.203   1.765  0.3263 -0.3413 -0.4688
   75MOL    O3313501   5.583   2.264   1.553  0.7163 -0.1834 -0.1827
   75MOL    H3413502   5.606   1.865   1.512  2.6164 -1.6692  0.6931
   75MOL    H3513503   5.686   2.020   1.487 -0.4950 -0.4966 -0.7570
   75MOL    H3613504   5.456   2.080   1.496 -1.2666  0.2151  0.8283
   75MOL    H3713505   5.601   2.353   1.579  0.8297 -0.3700  0.3668
   75MOL    C3813506   5.395   1.960   1.661 -0.6095  0.3347 -0.3426
   75MOL    C3913507   5.244   2.009   1.657 -0.4188  0.1382 -0.5785
   75MOL    C4013508   5.182   2.004   1.799 -0.8231 -0.1612 -0.3804
   75MOL    O4113509   5.089   1.929   1.832  0.2579 -0.0935  0.3671
   75MOL    O4213510   5.246   2.086   1.889 -0.0094  0.4097 -0.0720
   75MOL    H4313511   5.420   1.960   1.767 -0.6155 -1.6548 -0.3230
   75MOL    H4413512   5.396   1.857   1.626  0.0991 -0.1435  1.0573
   75MOL    H4513513   5.224   2.111   1.624  0.8549  0.4588 -0.3673
   75MOL    H4613514   5.204   2.068   1.972 -0.1304  1.8891  0.2074
   75MOL    C4713515   5.156   1.935   1.551  0.3782  0.1364  0.5149
   75MOL    C4813516   5.188   1.978   1.402 -0.1795  0.5892  0.5078
   75MOL    C4913517   5.105   2.097   1.352  0.4594  0.4934  0.7400
   75MOL    O5013518   5.006   2.144   1.413 -0.1746 -0.0065 -0.2790
   75MOL    O5113519   5.160   2.161   1.240 -0.0262  0.2680 -0.1833
   75MOL    H5213520   5.048   1.952   1.561  0.3041  0.8483 -1.2583
   75MOL    H5313521   5.156   1.826   1.559 -0.9022  0.2458  2.4091
   75MOL    H5413522   5.289   2.019   1.397 -0.4664  1.4430  1.4424
   75MOL    H5513523   5.104   2.235   1.222 -1.5478 -0.1485  2.5516
   75MOL    C5613524   5.169   1.866   1.304 -0.5380  0.3906  0.5352
   75MOL    C5713525   5.252   1.742   1.325  0.7201  0.0268 -0.0804
   75MOL    C5813526   5.396   1.768   1.277 -0.0029  0.6475 -0.2705
   75MOL    O5913527   5.436   1.862   1.205 -0.0669 -0.7373  0.2515
   75MOL    O6013528   5.474   1.662   1.312 -0.2129 -0.2246  0.1018
   75MOL    H6113529   5.176   1.902   1.202 -2.9246  1.9876  0.8909
   75MOL    H6213530   5.063   1.843   1.310 -0.4399 -1.1332 -2.4900
   75MOL    H6313531   5.255   1.709   1.428 -0.2134  1.2122  0.3425
   75MOL    H6413532   5.556   1.673   1.266 -0.6291  2.3429 -0.0964
   75MOL    C6513533   5.193   1.627   1.240 -0.6830  0.4453 -0.7902
   75MOL    C6613534   5.105   1.535   1.326 -0.5157  0.3453  0.2431
   75MOL    C6713535   5.183   1.462   1.439  0.1418  0.0610  0.9425
   75MOL    O6813536   5.279   1.388   1.418  0.4065  0.0420 -0.1739
   75MOL    O6913537   5.125   1.502   1.561 -0.4471 -0.1823  0.2430
   75MOL    H7013538   5.265   1.563   1.188  0.6503  1.2218  0.0950
   75MOL    H7113539   5.125   1.676   1.169 -2.7827 -0.2986  0.6517
   75MOL    H7213540   5.040   1.606   1.377 -1.3827 -0.4130  0.2187
   75MOL    H7313541   5.178   1.484   1.638  1.1671 -1.4194 -1.1037
   75MOL    C7413542   5.025   1.426   1.241 -0.8099  0.0651 -0.3437
   75MOL    C7513543   5.098   1.344   1.132  0.0888 -0.8839 -0.4502
   75MOL    C7613544   5.053   1.400   0.988 -0.2777 -0.4528 -0.3767
   75MOL    O7713545   4.956   1.360   0.933  0.0328  0.1489  0.1254
   75MOL    O7813546   5.133   1.500   0.939 -0.3033  0.6492 -0.4892
   75MOL    H7913547   4.939   1.477   1.196 -0.9706 -2.0130 -2.4817
   75MOL    H8013548   4.977   1.355   1.309  0.4744  0.0654  0.5914
   75MOL    H8113549   5.206   1.354   1.144 -0.2349  1.4575  0.9198
   75MOL    H8213550   5.214   1.503   0.988 -0.4293 -0.1146 -0.2400
   75MOL    C8313551   5.072   1.194   1.147 -0.0181  0.7450 -0.1592
   75MOL    C8413552   5.155   1.096   1.060  0.1300  0.4291  0.8043
   75MOL    C8513553   5.108   1.063   0.918 -0.6627  0.0412 -0.2424
   75MOL    O8613554   5.007   1.005   0.895  0.5205 -0.6899  0.1339
   75MOL    O8713555   5.187   1.116   0.820 -0.3050 -0.0576 -0.2240
   75MOL    H8813556   4.969   1.171   1.120  0.3032  0.8651 -1.5188
   75MOL    H8913557   5.087   1.158   1.249 -2.9260 -1.0388 -0.3013
   75MOL    H9013558   5.255   1.138   1.057  0.8815 -1.3599  0.1605
   75MOL    H9113559   5.157   1.087   0.736  1.0325  2.4260 -1.6344
   75MOL    C9213560   5.191   0.959   1.130  0.3253  0.6710  0.1428
   75MOL    C9313561   5.297   0.863   1.059 -0.6267 -0.4503  0.2139
   75MOL    C9413562   5.318   0.738   1.153 -0.7037 -0.0634  0.3322
   75MOL    O9513563   5.366   0.751   1.261  0.2697  0.4246 -0.3012
   75MOL    O9613564   5.263   0.629   1.104 -0.5626 -0.2647 -0.0224
   75MOL    H9713565   5.093   0.911   1.135  1.0014 -0.8113 -0.3816
   75MOL    H9813566   5.225   0.963   1.233 -0.7811 -2.5982  0.7060
   75MOL    H9913567   5.256   0.817   0.969 -1.4104  0.9953 -0.1990
   75MOL   H10013568   5.285   0.566   1.171  0.9029  0.5352  0.2556
   75MOL   C10113569   5.425   0.945   1.021 -0.3628  0.3979  0.6652
   75MOL   C10213570   5.544   0.871   0.954 -0.6977  0.8636  1.1141
   75MOL   C10313571   5.502   0.815   0.810  0.2797 -0.0662  0.0039
   75MOL   O10413572   5.399   0.757   0.793 -0.5268  0.0446  0.4102
   75MOL   O10513573   5.600   0.828   0.713  0.1963  0.5954 -0.2397
   75MOL   H10613574   5.469   0.990   1.110  2.4595  0.0262 -0.5165
   75MOL   H10713575   5.401   1.025   0.951  3.5692 -0.5409 -1.8800
   75MOL   H10813576   5.625   0.942   0.942 -1.6962  2.0496  1.3274
   75MOL   H10913577   5.564   0.805   0.629 -1.7226 -0.0754  0.7254
   75MOL   C11013578   5.612   0.758   1.037  0.7991 -0.0997 -0.2720
   75MOL   C11113579   5.760   0.734   1.007  0.0080 -0.0078  0.3673
   75MOL   C11213580   5.771   0.600   0.929  0.2887  0.0341  0.0303
   75MOL   O11313581   5.767   0.487   0.980  0.2706  0.1045  0.3567
   75MOL   O11413582   5.792   0.616   0.801  0.0161  0.2099 -0.1632
   75MOL   H11513583   5.558   0.664   1.023 -0.7571  0.3205  2.5098
   75MOL   H11613584   5.602   0.783   1.143  3.3069 -0.2775  0.0517
   75MOL   H11713585   5.796   0.808   0.936  1.8433 -0.7652  0.4747
   75MOL   H11813586   5.779   0.532   0.760  1.9663  1.2071 -2.9709
   75MOL   C11913587   5.836   0.746   1.135  0.0578 -0.2944  0.3379
   75MOL   C12013588   5.981   0.758   1.151  0.1027  0.4063  0.6875
   75MOL   C12113589   6.041   0.889   1.095  0.3017  0.1423  0.4941
   75MOL   O12213590   6.151   0.896   1.043 -0.4160 -0.8657 -0.0737
   75MOL   O12313591   5.951   0.992   1.101 -0.1443 -0.6863  0.2119
   75MOL   H12413592   5.792   0.661   1.187 -0.7655 -0.0298  0.0779
   75MOL   H12513593   5.791   0.830   1.188 -0.7291  0.7896 -1.9983
   75MOL   H12613594   5.986   0.765   1.260 -4.2203 -1.9340  1.1475
   75MOL   H12713595   5.985   1.075   1.072 -1.9398 -0.4149 -1.1606
   75MOL   C12813596   6.060   0.634   1.104  0.4691  0.4540 -0.7789
   75MOL   C12913597   6.197   0.613   1.180 -0.3299  0.3467 -0.0133
   75MOL   C13013598   6.305   0.532   1.098  0.3666 -0.1519  0.0838
   75MOL   O13113599   6.275   0.463   0.995 -0.1428  0.2937 -0.2404
   75MOL   O13213600   6.428   0.524   1.158 -0.3563 -0.3052 -0.4385
   75MOL   H13313601   6.077   0.640   0.996 -2.7457 -1.6204 -1.4747
   75MOL   H13413602   5.996   0.547   1.114 -0.7698  1.1795 -2.1401
   75MOL   H13513603   6.256   0.705   1.182  1.9719 -1.0371 -1.7694
   75MOL   H13613604   6.488   0.477   1.102  0.2618  0.1138 -0.1313
   75MOL   C13713605   6.184   0.560   1.331  0.6898 -0.1899  0.7055
   75MOL   C13813606   6.208   0.662   1.445  0.2490 -0.0456 -0.1721
   75MOL   C13913607   6.357   0.701   1.453  0.0074  0.2346  0.5510
   75MOL   O14013608   6.439   0.643   1.524  0.4239  0.4725 -0.0418
   75MOL   O14113609   6.397   0.794   1.361  0.2522  0.1843 -0.4803
   75MOL   H14213610   6.252   0.475   1.339  0.8190 -0.0278  1.3801
   75MOL   H14313611   6.080   0.527   1.341 -0.1645  2.5909  1.4603
   75MOL   H14413612   6.161   0.757   1.424 -1.4827 -0.6301  0.9807
   75MOL   H14513613   6.485   0.822   1.381 -0.5958  1.3631  1.8142
   75MOL   C14613614   6.143   0.611   1.577  0.3377 -1.3214  0.2767
   75MOL   C14713615   6.195   0.476   1.631 -0.6366 -0.3518  0.5005
   75MOL   C14813616   6.102   0.362   1.608 -0.1094 -0.2128  0.7520
   75MOL   O14913617   6.120   0.281   1.518  0.3943  0.4117 -0.0244
   75MOL   O15013618   6.005   0.350   1.703  0.0835 -0.0330 -0.8405
   75MOL   H15113619   6.034   0.612   1.577  0.3389  0.6412  1.2256
   75MOL   H15213620   6.147   0.689   1.653 -1.9521  1.5010 -2.3569
   75MOL   H15313621   6.283   0.439   1.578  0.6971  1.5804  1.2964
   75MOL   H15413622   5.946   0.275   1.708  0.5157 -0.2718  1.7435
   75MOL   C15513623   6.251   0.493   1.777  0.6410  0.4417  0.0858
   75MOL   C15613624   6.348   0.387   1.831 -0.1743  0.2437  0.0627
   75MOL   C15713625   6.352   0.377   1.977  0.8163 -0.0327 -0.2579
   75MOL   O15813626   6.305   0.278   2.030  0.3487  0.8493  0.0699
   75MOL   O15913627   6.416   0.482   2.038  0.0759  0.7042  0.3074
   75MOL   H16013628   6.164   0.492   1.842  0.6855  1.0811  0.1611
   75MOL   H16113629   6.304   0.589   1.779 -0.3716  0.9651  2.7172
   75MOL   H16213630   6.299   0.292   1.809 -1.9166  0.7644  1.4990
   75MOL   H16313631   6.451   0.546   1.978  1.2480 -0.5320 -0.3566
   75MOL   C16413632   6.487   0.373   1.760  0.0877  0.4669  0.0663
   75MOL   C16513633   6.547   0.229   1.729 -0.7698 -0.5639 -0.0858
   75MOL   C16613634   6.459   0.153   1.626  0.5243  0.0367 -0.6655
   75MOL   O16713635   6.389   0.057   1.660  0.1719 -0.0807  0.0746
   75MOL   O16813636   6.466   0.194   1.502 -0.3760  0.2921  0.0227
   75MOL   H16913637   6.557   0.426   1.825 -1.0097 -0.1305  1.7592
   75MOL   H17013638   6.472   0.427   1.667 -0.0935 -1.5007 -1.0824
   75MOL   H17113639   6.638   0.254   1.675 -0.6118  1.6260  1.1680
   75MOL   H17213640   6.407   0.145   1.446 -0.8778 -0.3478  1.1021
   75MOL   C17313641   6.586   0.151   1.851 -0.2187  0.6479  0.0788
   75MOL   C17413642   6.662   0.027   1.807 -0.1613  0.3115  0.0293
   75MOL   C17513643   6.816   0.041   1.834  0.1166  0.3711  0.6150
   75MOL   O17613644   6.864   0.144   1.876  0.5308  0.3349 -0.7242
   75MOL   O17713645   6.887   7.783   1.812 -0.0611 -0.0809 -0.1336
   75MOL   H17813646   6.498   0.123   1.909 -0.0716  1.1664  0.5559
   75MOL   H17913647   6.636   0.203   1.933  2.2220 -0.1364 -0.8543
   75MOL   H18013648   6.630   7.802   1.877  1.2437  2.5428  3.2800
   75MOL   H18113649   6.981   7.785   1.820  0.0763  2.2839 -2.0429
   75MOL   H18213650   6.644   7.853   1.703  0.1461  2.2698 -0.5494
   76MOL     C113651   3.304   3.609   5.858  0.3248  0.1823  0.0151
   76MOL     C213652   3.451   3.556   5.880  0.3600 -0.6813 -0.6238
   76MOL     C313653   3.503   3.637   5.999  0.0087  0.1607  0.0406
   76MOL     O413654   3.596   3.715   5.995 -0.5994 -0.5237  0.1300
   76MOL     O513655   3.428   3.621   6.112 -0.3930  0.2630 -0.0903
   76MOL     H613656   3.237   3.577   5.938  1.2173  1.1013  1.1624
   76MOL     H713657   3.296   3.717   5.859 -0.8699  0.1092 -0.6151
   76MOL     H813658   3.452   3.451   5.906 -0.7782 -0.1108  1.8671
   76MOL     H913659   3.454   3.677   6.183 -0.4902 -1.7480  1.5774
   76MOL    H1013660   3.264   3.568   5.765  2.3576 -0.6677 -0.5205
   76MOL    C1113661   3.537   3.569   5.755 -0.3561  0.2706  0.4348
   76MOL    C1213662   3.501   3.492   5.624  0.2082  0.1958 -0.4763
   76MOL    C1313663   3.487   3.338   5.632 -0.6222  0.0160 -0.6585
   76MOL    O1413664   3.553   3.266   5.714  0.7426 -0.2315  0.7476
   76MOL    O1513665   3.398   3.300   5.536 -0.0726  0.4125 -0.1395
   76MOL    H1613666   3.640   3.541   5.777 -0.1040 -1.2044 -2.4536
   76MOL    H1713667   3.561   3.673   5.735  1.9770 -0.0237  1.4812
   76MOL    H1813668   3.402   3.532   5.604 -0.1899  0.1789  1.3217
   76MOL    H1913669   3.385   3.206   5.535 -1.1527  0.5509  0.5365
   76MOL    C2013670   3.597   3.531   5.515  0.5589  0.5738  0.0482
   76MOL    C2113671   3.552   3.523   5.368  0.1088  0.5518 -0.4111
   76MOL    C2213672   3.669   3.541   5.284  0.4237 -0.2258  0.3078
   76MOL    O2313673   3.711   3.449   5.219  0.0653  0.4040  0.4771
   76MOL    O2413674   3.719   3.666   5.292 -0.4211  0.2792 -0.6150
   76MOL    H2513675   3.692   3.482   5.536  0.9524  1.2507 -0.1412
   76MOL    H2613676   3.623   3.636   5.530  1.7897  0.7270 -2.8957
   76MOL    H2713677   3.513   3.424   5.346  2.1251  0.2395 -2.8346
   76MOL    H2813678   3.790   3.689   5.234  0.3014 -0.5196 -0.0665
   76MOL    C2913679   3.432   3.622   5.335 -0.3391 -0.4791 -0.0790
   76MOL    C3013680   3.341   3.584   5.223  1.0009 -0.1933  0.6433
   76MOL    C3113681   3.356   3.662   5.094  0.3473  0.5134  0.2343
   76MOL    O3213682   3.260   3.703   5.025  0.3938 -0.0872  0.4418
   76MOL    O3313683   3.485   3.704   5.079 -0.4049 -0.3121 -0.1898
   76MOL    H3413684   3.469   3.723   5.320 -1.6124 -0.0240 -0.1665
   76MOL    H3513685   3.364   3.637   5.418  0.6661 -0.5610  0.7661
   76MOL    H3613686   3.372   3.487   5.185  1.6735  0.5600 -0.7531
   76MOL    H3713687   3.484   3.770   5.011  0.4697 -2.5047 -2.4243
   76MOL    C3813688   3.194   3.551   5.264 -0.8559  0.2239  0.3699
   76MOL    C3913689   3.094   3.667   5.301  0.1962  0.0833  0.3220
   76MOL    C4013690   3.103   3.716   5.447  0.1455 -0.2515 -0.4333
   76MOL    O4113691   3.045   3.654   5.539 -0.5457 -0.2210 -0.2566
   76MOL    O4213692   3.168   3.834   5.463  0.3716 -0.2305  0.2564
   76MOL    H4313693   3.197   3.484   5.350 -1.0027  1.9131  1.7271
   76MOL    H4413694   3.151   3.496   5.181  0.5141  2.1704 -1.7092
   76MOL    H4513695   3.127   3.753   5.243  3.1287 -0.2938  1.3820
   76MOL    H4613696   3.191   3.861   5.551 -0.8921  1.2924  0.1471
   76MOL    C4713697   2.951   3.637   5.260  0.0895 -0.5712 -0.3138
   76MOL    C4813698   2.846   3.747   5.289 -0.2992 -0.0696  0.5671
   76MOL    C4913699   2.709   3.699   5.255  0.5026  0.2524 -0.2058
   76MOL    O5013700   2.619   3.695   5.344 -0.0067  0.3038 -0.7907
   76MOL    O5113701   2.696   3.654   5.129  0.0600  0.5701 -0.0797
   76MOL    H5213702   2.921   3.539   5.298 -2.3257  0.2642  0.0268
   76MOL    H5313703   2.954   3.611   5.154 -0.0891 -1.7160 -0.0545
   76MOL    H5413704   2.849   3.751   5.397 -0.8926 -0.3698  0.5981
   76MOL    H5513705   2.603   3.640   5.120  0.0886 -0.0778  0.5963
   76MOL    C5613706   2.874   3.883   5.218 -0.1101 -0.1758 -0.3237
   76MOL    C5713707   2.782   4.004   5.246  0.1147  0.0689 -0.2647
   76MOL    C5813708   2.661   3.999   5.159  0.4121  0.0971 -0.5115
   76MOL    O5913709   2.677   3.981   5.039 -0.0726 -0.7543 -0.5977
   76MOL    O6013710   2.538   4.017   5.224  0.2199 -0.2583 -0.5801
   76MOL    H6113711   2.887   3.869   5.111  0.7964  0.7121 -0.3425
   76MOL    H6213712   2.971   3.918   5.254 -0.4536  0.0811  0.3718
   76MOL    H6313713   2.759   4.027   5.350 -1.6607  1.1952 -0.8736
   76MOL    H6413714   2.473   4.024   5.155 -0.3921 -1.0732 -0.1043
   76MOL    C6513715   2.842   4.142   5.196 -0.4218 -0.0237 -0.4277
   76MOL    C6613716   2.767   4.272   5.243  0.9691 -0.5212 -1.0513
   76MOL    C6713717   2.630   4.306   5.179 -0.5564  0.0311  0.1336
   76MOL    O6813718   2.592   4.291   5.063 -0.0280 -0.3901  0.0146
   76MOL    O6913719   2.561   4.374   5.273 -0.4025 -0.1462 -0.2201
   76MOL    H7013720   2.864   4.138   5.089  4.4523 -3.8610  0.5547
   76MOL    H7113721   2.943   4.147   5.236 -1.3786  0.5032  2.0384
   76MOL    H7213722   2.754   4.263   5.350 -2.6088  0.9830 -1.2924
   76MOL    H7313723   2.476   4.395   5.237 -0.2818  3.4783  1.3912
   76MOL    C7413724   2.852   4.398   5.227 -0.1210  0.1344  0.2641
   76MOL    C7513725   2.975   4.424   5.321  0.0452  0.4673  0.2801
   76MOL    C7613726   2.938   4.446   5.468  0.0190 -0.5227 -0.2300
   76MOL    O7713727   2.822   4.464   5.499 -0.3608 -0.2321 -0.4708
   76MOL    O7813728   3.040   4.448   5.560 -0.0224  0.0047 -0.4579
   76MOL    H7913729   2.788   4.487   5.223  0.6078  0.6712  0.5322
   76MOL    H8013730   2.884   4.381   5.124 -1.3013 -2.4989  0.3064
   76MOL    H8113731   3.029   4.329   5.322  1.4010  1.2024  1.7802
   76MOL    H8213732   2.991   4.454   5.641 -3.0895 -1.6064 -2.1237
   76MOL    C8313733   3.094   4.511   5.270  0.0996  0.5110 -0.2435
   76MOL    C8413734   3.078   4.661   5.282  0.4669 -0.1734 -0.2825
   76MOL    C8513735   2.944   4.720   5.224  0.0001  0.4422 -0.0734
   76MOL    O8613736   2.926   4.744   5.101  0.1237 -0.4138  0.1755
   76MOL    O8713737   2.843   4.736   5.317  0.4317 -0.3373 -0.0516
   76MOL    H8813738   3.106   4.492   5.163  0.6327 -0.4830 -0.0039
   76MOL    H8913739   3.187   4.480   5.317 -0.3033 -0.2166  0.0751
   76MOL    H9013740   3.056   4.677   5.388  0.6744  2.7652 -0.6471
   76MOL    H9113741   2.770   4.780   5.276  0.1158  0.0525  0.9084
   76MOL    C9213742   3.202   4.748   5.260 -0.2623  0.0748  0.1506
   76MOL    C9313743   3.322   4.726   5.358 -0.0096 -0.1059  0.0540
   76MOL    C9413744   3.301   4.802   5.496  0.1161 -0.3063 -0.0659
   76MOL    O9513745   3.204   4.875   5.529  0.3876  0.0194  0.2184
   76MOL    O9613746   3.402   4.770   5.582  0.8109 -0.0128 -0.1935
   76MOL    H9713747   3.170   4.852   5.254 -1.1190 -0.2563 -1.2137
   76MOL    H9813748   3.227   4.721   5.157  0.1441 -1.7635  0.7162
   76MOL    H9913749   3.330   4.625   5.398 -1.1484  0.6474  2.2886
   76MOL   H10013750   3.377   4.779   5.672  2.0049 -0.0361  0.1380
   76MOL   C10113751   3.453   4.766   5.284 -0.1643  0.1088 -0.1047
   76MOL   C10213752   3.527   4.659   5.197 -0.6195 -0.6287  0.0500
   76MOL   C10313753   3.610   4.561   5.292  0.1799  0.5948 -1.2083
   76MOL   O10413754   3.594   4.570   5.415 -0.7420 -0.2715 -0.0630
   76MOL   O10513755   3.692   4.473   5.237  0.1014 -0.2139  0.0007
   76MOL   H10613756   3.527   4.812   5.350 -1.1083  0.2074  0.8987
   76MOL   H10713757   3.422   4.846   5.217 -1.0461 -0.2505 -0.1294
   76MOL   H10813758   3.447   4.601   5.152  0.5178 -0.9547 -1.5779
   76MOL   H10913759   3.730   4.431   5.313 -0.9803  0.0548  0.7083
   76MOL   C11013760   3.611   4.722   5.082 -0.7772 -0.6029  0.4253
   76MOL   C11113761   3.537   4.768   4.958 -0.2559 -1.0444 -0.6747
   76MOL   C11213762   3.485   4.649   4.878  0.0465 -0.5814 -0.2777
   76MOL   O11313763   3.534   4.611   4.775 -0.4985  0.3987  0.2420
   76MOL   O11413764   3.371   4.592   4.931 -0.5256 -0.6894  0.7029
   76MOL   H11513765   3.689   4.653   5.051  1.7652  3.0198 -1.6228
   76MOL   H11613766   3.662   4.808   5.126  0.5059 -1.2709  0.2870
   76MOL   H11713767   3.442   4.806   4.994 -1.0700 -0.9014 -2.9305
   76MOL   H11813768   3.346   4.511   4.888 -1.7256 -0.4772  0.9711
   76MOL   C11913769   3.599   4.888   4.879  0.3926  0.3273  0.0705
   76MOL   C12013770   3.749   4.876   4.855 -0.7195  0.7988 -0.1291
   76MOL   C12113771   3.841   4.966   4.940  0.4785  0.6416  0.3455
   76MOL   O12213772   3.876   4.934   5.052 -0.0974  0.3680 -0.4073
   76MOL   O12313773   3.879   5.082   4.874 -0.3956  0.2969  0.1902
   76MOL   H12413774   3.586   4.983   4.930  0.0517  1.9412 -2.8890
   76MOL   H12513775   3.547   4.904   4.785 -0.3009  0.1358  0.4180
   76MOL   H12613776   3.764   4.772   4.881  0.8305  1.0031 -0.1979
   76MOL   H12713777   3.945   5.139   4.911 -0.8842  1.3568 -0.5327
   76MOL   C12813778   3.776   4.888   4.704  0.3997 -0.7446 -0.3039
   76MOL   C12913779   3.924   4.862   4.658  0.7071 -0.2084 -0.0962
   76MOL   C13013780   3.945   4.908   4.515 -0.1123  0.3558  0.1373
   76MOL   O13113781   3.853   4.934   4.439 -0.0731 -0.6840 -0.4866
   76MOL   O13213782   4.073   4.926   4.488  0.4956 -0.2791 -0.1655
   76MOL   H13313783   3.740   4.981   4.658 -0.7338 -0.8285  0.3868
   76MOL   H13413784   3.712   4.822   4.645  0.9568  1.7303 -3.8850
   76MOL   H13513785   3.988   4.929   4.715 -2.0559  1.5246  1.0867
   76MOL   H13613786   4.098   4.945   4.399 -0.1167  0.0990 -0.2538
   76MOL   C13713787   3.962   4.714   4.677 -1.0399  0.3204 -0.4229
   76MOL   C13813788   4.107   4.688   4.718  0.1502 -0.3017  0.2401
   76MOL   C13913789   4.153   4.561   4.638  0.4060 -1.0189 -0.1898
   76MOL   O14013790   4.097   4.457   4.658 -0.1386 -0.3447 -0.7320
   76MOL   O14113791   4.251   4.575   4.545 -0.9300 -0.3389 -0.0060
   76MOL   H14213792   3.941   4.658   4.585  1.8600  1.9307 -2.1514
   76MOL   H14313793   3.903   4.661   4.751  4.4691 -1.0677  3.1995
   76MOL   H14413794   4.170   4.769   4.680 -2.5343  1.7803  0.1153
   76MOL   H14513795   4.267   4.488   4.513  0.5083  0.0232 -0.3197
   76MOL   C14613796   4.136   4.681   4.873  0.6839 -0.1121 -0.7372
   76MOL   C14713797   4.187   4.809   4.940 -0.5415  0.2868  0.0413
   76MOL   C14813798   4.331   4.838   4.895 -0.4437  0.9642  0.3991
   76MOL   O14913799   4.412   4.753   4.853  0.0106  0.2047  0.4272
   76MOL   O15013800   4.361   4.969   4.912 -0.1083  0.2895  0.3453
   76MOL   H15113801   4.209   4.605   4.900  0.8440  0.8201  1.5460
   76MOL   H15213802   4.043   4.660   4.926  0.8665  0.7413 -0.0822
   76MOL   H15313803   4.123   4.893   4.914 -1.5429 -0.9111 -1.4570
   76MOL   H15413804   4.443   4.983   4.867  0.7213 -0.0345  1.7332
   76MOL   C15513805   4.171   4.813   5.088 -0.6414  0.6319  0.3227
   76MOL   C15613806   4.265   4.732   5.178  0.7609  0.2731  0.5583
   76MOL   C15713807   4.202   4.604   5.230  0.1033  0.0390  0.4444
   76MOL   O15813808   4.134   4.595   5.334 -0.2361  0.0463  0.3592
   76MOL   O15913809   4.224   4.501   5.141  0.1492 -0.2421 -0.8121
   76MOL   H16013810   4.070   4.774   5.102 -0.1965 -0.5987  0.1521
   76MOL   H16113811   4.167   4.917   5.121  3.2617  1.1366 -0.5542
   76MOL   H16213812   4.356   4.700   5.126 -0.2332 -1.7879  0.0339
   76MOL   H16313813   4.199   4.420   5.182 -1.3670  0.5287 -0.1605
   76MOL   C16413814   4.310   4.809   5.301  0.5438  0.2533 -0.3138
   76MOL   C16513815   4.431   4.907   5.282  0.1608 -0.0919  0.1263
   76MOL   C16613816   4.561   4.825   5.269  0.2077 -0.4321 -0.4650
   76MOL   O16713817   4.614   4.758   5.356 -0.0353 -0.1378 -0.0907
   76MOL   O16813818   4.619   4.838   5.143  0.3010  0.2759  0.4650
   76MOL   H16913819   4.328   4.748   5.390 -0.7173 -0.6767 -0.6716
   76MOL   H17013820   4.219   4.854   5.343 -1.1658 -2.2134 -1.2435
   76MOL   H17113821   4.421   4.944   5.180 -2.0778 -0.8678  0.0390
   76MOL   H17213822   4.694   4.781   5.147  0.7154  0.7973  0.2244
   76MOL   C17313823   4.441   5.027   5.381  0.0435 -0.0079  0.0976
   76MOL   C17413824   4.319   5.115   5.387  0.6171  0.2721 -0.3729
   76MOL   C17513825   4.339   5.213   5.503  0.3096 -0.3035  0.2805
   76MOL   O17613826   4.342   5.335   5.494 -0.5077 -0.1659 -0.1175
   76MOL   O17713827   4.314   5.149   5.619  0.3671  0.3318  0.2168
   76MOL   H17813828   4.524   5.090   5.349  1.5189 -1.2933  1.3462
   76MOL   H17913829   4.460   4.989   5.481  1.1689  0.3701  0.0408
   76MOL   H18013830   4.306   5.164   5.291  2.0089 -0.0344 -0.7275
   76MOL   H18113831   4.295   5.203   5.694  0.5411 -0.2529  0.6880
   76MOL   H18213832   4.233   5.050   5.404  0.1488  0.8048 -0.7062
   77MOL     C113833   0.048   1.286   6.696 -0.2885  0.3461  0.3405
   77MOL     C213834   7.812   1.168   6.746  0.5503  0.3012  0.2637
   77MOL     C313835   7.707   1.133   6.632 -0.8680 -0.0943 -0.9009
   77MOL     O413836   7.601   1.186   6.613  0.2367  0.0993  0.1893
   77MOL     O513837   7.742   1.011   6.582 -0.5827 -0.1389  0.6773
   77MOL     H613838   0.086   1.279   6.594 -1.8371  3.1543 -0.4583
   77MOL     H713839   7.845   1.378   6.684 -1.0287  0.0668  1.5086
   77MOL     H813840   0.032   1.087   6.753  2.3433  1.9009  0.5411
   77MOL     H913841   7.682   0.984   6.514  0.3248  0.3438 -0.3348
   77MOL    H1013842   0.126   1.301   6.771 -1.1020 -1.8677  1.7067
   77MOL    C1113843   7.747   1.208   6.880  0.1688 -0.0712  0.8090
   77MOL    C1213844   7.774   1.110   6.991 -0.0597  0.0466 -0.5355
   77MOL    C1313845   7.674   1.154   7.103 -0.0973  0.1010  0.9475
   77MOL    O1413846   7.562   1.104   7.112  0.0499  0.0317  0.0972
   77MOL    O1513847   7.732   1.237   7.196 -0.0609 -0.0693  0.4804
   77MOL    H1613848   7.639   1.213   6.863  0.5449  0.1236 -1.7705
   77MOL    H1713849   7.775   1.307   6.916  3.3601  0.3199 -2.4719
   77MOL    H1813850   7.751   1.008   6.963  0.3346 -0.1671 -0.0858
   77MOL    H1913851   7.679   1.245   7.273  0.0609 -1.1754  0.6948
   77MOL    C2013852   0.073   1.096   7.028 -0.5794 -0.0841  0.0664
   77MOL    C2113853   0.119   0.978   7.117 -0.0655  0.8174 -0.5355
   77MOL    C2213854   0.251   1.007   7.181 -0.2161  0.7814 -0.1092
   77MOL    O2313855   0.267   1.030   7.305 -0.0032  0.2900  0.3560
   77MOL    O2413856   0.357   1.022   7.097 -0.3907  0.4413  0.3490
   77MOL    H2513857   0.107   1.184   7.083 -0.3120 -0.6687  0.8577
   77MOL    H2613858   0.129   1.097   6.935 -1.3626 -1.2314 -0.4115
   77MOL    H2713859   0.052   0.968   7.202 -0.6229 -0.9599 -1.1517
   77MOL    H2813860   0.431   1.050   7.149 -1.1704  1.1567  1.0974
   77MOL    C2913861   0.121   0.843   7.024  0.2749  0.0019  0.3387
   77MOL    C3013862   0.154   0.707   7.087 -0.0572 -0.7316 -0.1755
   77MOL    C3113863   0.302   0.692   7.114 -0.7729 -0.3461 -1.0532
   77MOL    O3213864   0.387   0.676   7.028  0.1871 -0.1811 -0.3139
   77MOL    O3313865   0.338   0.690   7.244 -0.0056 -0.2444 -0.1631
   77MOL    H3413866   0.201   0.874   6.958  0.1156 -0.4732 -0.0835
   77MOL    H3513867   0.039   0.836   6.953  1.1607  0.5729 -0.7605
   77MOL    H3613868   0.108   0.699   7.186 -0.5652  0.4742 -0.3050
   77MOL    H3713869   0.431   0.678   7.253  0.0859  1.0320  0.6194
   77MOL    C3813870   0.115   0.585   7.004  0.2056 -0.3546 -0.4906
   77MOL    C3913871   7.818   0.563   6.992 -0.6724  0.4644  0.5698
   77MOL    C4013872   7.759   0.519   7.126 -0.1945 -0.5814  0.5460
   77MOL    O4113873   7.679   0.579   7.197  0.4220 -0.2713  0.1842
   77MOL    O4213874   7.820   0.404   7.171  0.1338 -0.2262  0.0360
   77MOL    H4313875   0.161   0.495   7.043 -1.5150 -1.0452 -0.0095
   77MOL    H4413876   0.151   0.600   6.902 -0.5564  0.8051 -0.5974
   77MOL    H4513877   7.772   0.657   6.962 -2.5467  0.0310  2.0045
   77MOL    H4613878   7.791   0.394   7.260  0.1497 -1.4683 -0.0964
   77MOL    C4713879   7.802   0.441   6.889  0.2033 -0.4978 -0.5044
   77MOL    C4813880   7.818   0.477   6.745  0.5335 -0.8112 -0.5693
   77MOL    C4913881   7.715   0.588   6.702 -0.6522 -0.3269 -0.7183
   77MOL    O5013882   7.594   0.571   6.696 -0.1170 -0.4001  0.0055
   77MOL    O5113883   7.785   0.695   6.667 -0.1969  0.0398 -0.6809
   77MOL    H5213884   7.699   0.406   6.898  0.3771 -0.5426  1.5870
   77MOL    H5313885   0.004   0.352   6.920 -0.3400 -0.4087  0.7291
   77MOL    H5413886   0.066   0.510   6.720  0.9239  1.4654  3.6024
   77MOL    H5513887   7.738   0.762   6.620  0.5620  2.4778  1.9050
   77MOL    C5613888   7.807   0.348   6.658 -0.2121 -0.6598 -0.0081
   77MOL    C5713889   7.841   0.343   6.505  0.3791 -0.8352  0.5890
   77MOL    C5813890   7.712   0.360   6.418 -0.3507 -0.6315  0.4842
   77MOL    O5913891   7.622   0.277   6.426  0.3170  0.3261 -0.2282
   77MOL    O6013892   7.711   0.462   6.328  0.1556  0.2848  0.3624
   77MOL    H6113893   7.709   0.302   6.671  0.7869 -2.0533  3.2005
   77MOL    H6213894   0.023   0.280   6.709 -0.9626 -2.5399 -1.4671
   77MOL    H6313895   0.053   0.426   6.477 -1.2720  0.4583  0.5492
   77MOL    H6413896   7.775   0.532   6.334 -1.2934  2.0680 -3.5989
   77MOL    C6513897   0.051   0.212   6.466  0.0251  0.2185 -0.0614
   77MOL    C6613898   0.184   0.179   6.534  0.1198 -0.0769  0.2617
   77MOL    C6713899   0.284   0.288   6.519 -0.4337 -0.5106 -0.3377
   77MOL    O6813900   0.313   0.332   6.406  0.3332  0.0537 -0.4396
   77MOL    O6913901   0.327   0.350   6.635  0.3999  0.3416 -0.3912
   77MOL    H7013902   0.073   0.206   6.360 -0.1046 -0.5962 -0.0485
   77MOL    H7113903   7.829   0.134   6.480 -0.3785  0.7686  0.9118
   77MOL    H7213904   0.157   0.155   6.637 -1.0462  0.5059  0.1098
   77MOL    H7313905   0.376   0.430   6.624  1.2757 -0.1145  0.1408
   77MOL    C7413906   0.232   0.043   6.479  0.5732  0.4561 -0.0143
   77MOL    C7513907   0.362   7.828   6.544 -0.1738 -0.6377  0.6964
   77MOL    C7613908   0.407   7.718   6.452 -0.4977 -0.2117  0.3414
   77MOL    O7713909   0.327   7.636   6.396 -0.3330 -0.0646 -0.9404
   77MOL    O7813910   0.541   7.722   6.428  0.5618 -0.1880  0.1685
   77MOL    H7913911   0.247   0.059   6.372  0.0258  0.0675 -0.1530
   77MOL    H8013912   0.153   7.821   6.488  2.2151 -1.6256 -2.2114
   77MOL    H8113913   0.435   0.054   6.534 -0.4771 -0.3528  0.7182
   77MOL    H8213914   0.562   7.655   6.365  2.2450 -1.3519  1.9015
   77MOL    C8313915   0.347   7.799   6.690 -0.7041  0.5024 -0.8130
   77MOL    C8413916   0.422   0.041   6.784  0.3792  0.2544  0.0523
   77MOL    C8513917   0.577   0.068   6.754 -0.6198  0.4870 -0.3467
   77MOL    O8613918   0.660   7.831   6.755 -0.5510  0.0220  0.1244
   77MOL    O8713919   0.603   0.199   6.748  0.1030 -0.2648  0.2317
   77MOL    H8813920   0.391   7.701   6.705  0.6661  0.9526 -1.7818
   77MOL    H8913921   0.242   7.784   6.716 -0.6003  2.2654  0.6387
   77MOL    H9013922   0.366   0.133   6.768  1.0244  0.2657 -2.3151
   77MOL    H9113923   0.695   0.205   6.726  0.2914 -1.1292  0.7583
   77MOL    C9213924   0.394   7.841   6.932  0.0811  0.1083 -0.4368
   77MOL    C9313925   0.295   0.068   7.025 -0.3501 -0.7305 -0.2854
   77MOL    C9413926   0.148   0.062   6.985 -0.4766  0.7103 -0.1900
   77MOL    O9513927   0.101   7.839   6.900  0.3202 -0.1911  0.0343
   77MOL    O9613928   0.072   0.143   7.062  0.0405  0.9077  0.0127
   77MOL    H9713929   0.484   7.825   6.991 -0.8306  0.1195  1.0033
   77MOL    H9813930   0.363   7.737   6.923  0.6176 -0.1264  0.3200
   77MOL    H9913931   0.298   0.007   7.116 -0.1571  0.6867  0.6812
   77MOL   H10013932   7.833   0.151   7.040 -0.0445  2.3219  0.7837
   77MOL   C10113933   0.359   0.209   7.058  0.6460  0.0004 -0.0629
   77MOL   C10213934   0.478   0.224   7.154 -0.3547 -0.3809  0.2176
   77MOL   C10313935   0.446   0.206   7.299 -0.2413  0.1936  0.5050
   77MOL   O10413936   0.502   0.118   7.370 -0.2127 -0.2169 -0.4795
   77MOL   O10513937   0.336   0.288   7.329  0.0953 -0.4410  0.4115
   77MOL   H10613938   0.292   0.288   7.092  1.9843  2.3996 -2.8064
   77MOL   H10713939   0.384   0.250   6.960 -0.7091  1.3038  0.1048
   77MOL   H10813940   0.551   0.149   7.124 -2.6269 -2.0855 -1.1604
   77MOL   H10913941   0.296   0.267   7.412  1.1737  2.2362  1.6668
   77MOL   C11013942   0.537   0.373   7.136  0.5844 -0.7237 -0.2517
   77MOL   C11113943   0.693   0.394   7.124 -0.2001 -0.7003 -0.1593
   77MOL   C11213944   0.765   0.367   7.254 -0.5034 -0.0893 -0.4464
   77MOL   O11313945   0.729   0.408   7.363 -0.9179 -0.2049  0.2082
   77MOL   O11413946   0.885   0.301   7.236 -0.0578 -0.2309 -0.1326
   77MOL   H11513947   0.499   0.445   7.210  1.8044  1.4309 -1.6556
   77MOL   H11613948   0.498   0.403   7.039 -0.0417  0.8937  0.4726
   77MOL   H11713949   0.733   0.322   7.053  1.0723  0.9675 -1.1766
   77MOL   H11813950   0.933   0.275   7.313 -0.8354 -1.8809 -0.1829
   77MOL   C11913951   0.728   0.535   7.069 -0.2556  0.6126  0.0664
   77MOL   C12013952   0.709   0.549   6.913 -1.1843  0.2839 -0.3704
   77MOL   C12113953   0.821   0.466   6.848 -0.2845  0.8352 -0.0011
   77MOL   O12213954   0.917   0.425   6.910 -0.3023 -0.6522 -0.2732
   77MOL   O12313955   0.803   0.448   6.716 -0.3700  0.4279 -0.5218
   77MOL   H12413956   0.833   0.562   7.083  0.6994 -0.7056 -3.6982
   77MOL   H12513957   0.665   0.605   7.124  0.3183  0.3707  1.0422
   77MOL   H12613958   0.619   0.495   6.884 -1.1089  0.4574 -0.9228
   77MOL   H12713959   0.872   0.396   6.679 -0.1369 -0.0878  0.6305
   77MOL   C12813960   0.702   0.698   6.870 -0.6288  0.3953 -0.0090
   77MOL   C12913961   0.833   0.784   6.850  0.2066  0.3731  0.2256
   77MOL   C13013962   0.918   0.796   6.977  0.0385 -0.6709 -0.7917
   77MOL   O13113963   0.896   0.883   7.065 -0.4148  0.2115  0.5310
   77MOL   O13213964   1.022   0.712   6.974  0.0963 -0.2650  0.6198
   77MOL   H13313965   0.652   0.744   6.955  0.3221  0.7551  0.3688
   77MOL   H13413966   0.640   0.704   6.781 -1.0896 -1.6902  0.1463
   77MOL   H13513967   0.896   0.742   6.772 -1.1628 -2.1603  0.4232
   77MOL   H13613968   1.088   0.736   7.037  0.5801 -2.7072  1.1156
   77MOL   C13713969   0.784   0.924   6.799  0.0506 -0.0917  0.3538
   77MOL   C13813970   0.877   1.025   6.728 -0.1209  0.3629  0.3734
   77MOL   C13913971   0.943   0.972   6.590  0.4155 -0.1748  0.3789
   77MOL   O14013972   1.049   0.909   6.588 -0.0106  0.1674  0.0183
   77MOL   O14113973   0.869   1.002   6.482  0.1706 -0.6114 -0.2159
   77MOL   H14213974   0.727   0.972   6.878 -1.7590 -1.5025 -0.0661
   77MOL   H14313975   0.717   0.904   6.716 -0.6870  0.2790  0.8529
   77MOL   H14413976   0.814   1.106   6.691  1.6288 -0.0598 -3.7533
   77MOL   H14513977   0.909   0.969   6.403 -0.1270  0.1527 -0.6887
   77MOL   C14613978   0.987   1.079   6.821  0.2152 -0.0403  0.1644
   77MOL   C14713979   1.044   1.226   6.801 -0.3820 -0.7652  0.4842
   77MOL   C14813980   0.940   1.337   6.828 -0.2702 -0.0608  0.2600
   77MOL   O14913981   0.905   1.423   6.750  0.0610 -0.1246  0.8743
   77MOL   O15013982   0.883   1.323   6.950 -0.6223 -0.5991 -0.2709
   77MOL   H15113983   1.064   1.002   6.816 -0.0234 -0.2735  0.0120
   77MOL   H15213984   0.941   1.076   6.920 -1.1538  0.2595 -0.4483
   77MOL   H15313985   1.112   1.232   6.886 -0.0373  0.3375  0.1284
   77MOL   H15413986   0.805   1.376   6.957  1.2003  2.2940 -1.0686
   77MOL   C15513987   1.126   1.244   6.662 -0.1673  0.3312  0.0592
   77MOL   C15613988   1.228   1.357   6.662 -0.5101  0.2002  0.9877
   77MOL   C15713989   1.224   1.406   6.519 -0.0134 -0.3568 -0.6521
   77MOL   O15813990   1.316   1.391   6.439 -0.8751 -0.4839  0.0078
   77MOL   O15913991   1.104   1.471   6.493 -0.1407 -0.1630 -0.1633
   77MOL   H16013992   1.048   1.254   6.587  1.5508 -0.4931 -1.8954
   77MOL   H16113993   1.167   1.151   6.620 -0.3842  0.3180 -0.1213
   77MOL   H16213994   1.191   1.440   6.722  0.6454  2.4070 -1.2664
   77MOL   H16313995   1.121   1.509   6.408 -0.7705 -0.2903 -0.3479
   77MOL   C16413996   1.373   1.315   6.708 -0.2398  0.2602 -0.4003
   77MOL   C16513997   1.396   1.320   6.864 -0.0376 -0.3077 -0.9580
   77MOL   C16613998   1.338   1.444   6.941  0.0211 -0.0305  0.3506
   77MOL   O16713999   1.252   1.439   7.029  0.3724  0.5887 -0.4550
   77MOL   O16814000   1.385   1.561   6.896  0.1456  0.2024 -0.4637
   77MOL   H16914001   1.452   1.375   6.663  2.1850 -0.8599  2.1525
   77MOL   H17014002   1.397   1.217   6.668  0.8241  0.7608 -1.0086
   77MOL   H17114003   1.353   1.226   6.900  2.1899 -1.3205 -0.8427
   77MOL   H17214004   1.443   1.573   6.823 -2.1032  0.5036 -2.2581
   77MOL   C17314005   1.538   1.311   6.900 -0.2909  0.6914  0.3254
   77MOL   C17414006   1.606   1.209   6.822  0.3057 -0.0452 -0.4341
   77MOL   C17514007   1.745   1.174   6.871  0.5134  0.4381  0.2757
   77MOL   O17614008   1.790   1.059   6.864 -0.0221 -0.1103  0.1540
   77MOL   O17714009   1.814   1.281   6.921  0.5420 -0.1206 -0.1760
   77MOL   H17814010   1.534   1.277   7.003  1.0680 -1.3799 -0.2915
   77MOL   H17914011   1.590   1.407   6.892 -0.9271  0.8301 -2.9130
   77MOL   H18014012   1.546   1.118   6.828 -0.5770  0.4576 -1.6237
   77MOL   H18114013   1.895   1.249   6.959  2.0139  0.5383 -2.6508
   77MOL   H18214014   1.616   1.231   6.716  0.1216 -1.1601 -0.6952
   78MOL     C114015   4.655   1.767   1.145  1.0297  1.0557 -0.6127
   78MOL     C214016   4.583   1.734   1.278  0.3297  0.2800 -0.8385
   78MOL     C314017   4.485   1.626   1.260  0.5007 -0.1706 -0.6084
   78MOL     O414018   4.520   1.514   1.229  0.4234 -0.0307  0.2931
   78MOL     O514019   4.354   1.667   1.290 -0.1761 -0.3036 -0.6433
   78MOL     H614020   4.681   1.681   1.082 -1.6569  0.7901 -1.3867
   78MOL     H714021   4.593   1.834   1.086  1.2084  2.8512  1.2192
   78MOL     H814022   4.660   1.687   1.338 -2.3044 -2.4646  0.5259
   78MOL     H914023   4.298   1.591   1.297  0.8506 -0.9869  0.2707
   78MOL    H1014024   4.747   1.807   1.188  2.7656 -0.6428 -2.5693
   78MOL    C1114025   4.534   1.861   1.355 -0.0026 -0.3387  0.2866
   78MOL    C1214026   4.577   1.873   1.501 -0.1942  1.3830  0.3963
   78MOL    C1314027   4.728   1.894   1.508 -0.1578 -0.0413 -0.0571
   78MOL    O1414028   4.808   1.806   1.525 -0.0071  0.5139  0.1182
   78MOL    O1514029   4.770   2.022   1.487 -0.3195 -0.4278 -0.0796
   78MOL    H1614030   4.426   1.870   1.358 -0.0034 -0.6360  1.5662
   78MOL    H1714031   4.551   1.947   1.289 -1.3192 -0.1716  0.1535
   78MOL    H1814032   4.536   1.965   1.543 -0.2749  1.1716  0.7919
   78MOL    H1914033   4.864   2.020   1.485 -0.3201 -1.4372  0.4691
   78MOL    C2014034   4.535   1.755   1.594 -0.1034 -0.2846  0.4912
   78MOL    C2114035   4.401   1.789   1.666  0.1517  0.4050 -0.4210
   78MOL    C2214036   4.437   1.887   1.773 -0.4810 -0.3129  0.1314
   78MOL    O2314037   4.522   1.872   1.862  0.4104 -0.5262 -0.1017
   78MOL    O2414038   4.368   2.007   1.759 -0.5640 -0.2434  0.8166
   78MOL    H2514039   4.612   1.729   1.667  0.7385  0.9710  0.0660
   78MOL    H2614040   4.524   1.660   1.541  2.3393  1.7816 -3.9333
   78MOL    H2714041   4.333   1.846   1.602 -0.6082 -1.0290 -0.9276
   78MOL    H2814042   4.399   2.077   1.815 -0.0354  0.9291 -0.8810
   78MOL    C2914043   4.336   1.654   1.725 -0.7584 -0.2178 -0.0499
   78MOL    C3014044   4.186   1.676   1.776 -0.3184  0.2327 -0.0309
   78MOL    C3114045   4.146   1.546   1.843  0.0696  0.3678 -0.5154
   78MOL    O3214046   4.106   1.551   1.958 -0.2087  0.0180  0.3291
   78MOL    O3314047   4.143   1.440   1.753 -0.2980  0.6946 -0.1534
   78MOL    H3414048   4.403   1.614   1.801  1.0489  1.8635 -0.5077
   78MOL    H3514049   4.330   1.580   1.645  3.3744 -0.1224 -0.5284
   78MOL    H3614050   4.190   1.752   1.854  1.3807  1.6931 -1.4770
   78MOL    H3714051   4.117   1.355   1.786  2.6192 -0.1177  0.2165
   78MOL    C3814052   4.095   1.709   1.650 -0.6738 -0.0799 -0.9904
   78MOL    C3914053   4.059   1.862   1.643 -0.3083  0.2590  0.4419
   78MOL    C4014054   3.949   1.889   1.750  0.8153  0.5424  0.7057
   78MOL    O4114055   3.970   1.900   1.868  0.1673 -0.1826  0.4843
   78MOL    O4214056   3.827   1.880   1.694  0.2132 -0.2457  0.3698
   78MOL    H4314057   4.007   1.645   1.645 -0.2720 -0.7138  0.0880
   78MOL    H4414058   4.154   1.694   1.559  0.2602 -0.3576 -0.3366
   78MOL    H4514059   4.152   1.911   1.671  0.4526 -0.3669 -0.9460
   78MOL    H4614060   3.763   1.885   1.764 -1.3503  0.3454 -1.0865
   78MOL    C4714061   4.021   1.911   1.500  0.5335  0.5497  0.2595
   78MOL    C4814062   3.983   2.063   1.495 -0.4356  0.4987 -0.2329
   78MOL    C4914063   3.863   2.093   1.401 -0.6938 -0.4739  0.7644
   78MOL    O5014064   3.750   2.113   1.442  0.4822 -0.6303 -0.3684
   78MOL    O5114065   3.899   2.093   1.273  0.2344  0.8003  0.2388
   78MOL    H5214066   3.936   1.859   1.457  0.6736 -0.1161  0.7845
   78MOL    H5314067   4.086   1.892   1.415  0.4834 -2.0585  0.7705
   78MOL    H5414068   3.956   2.101   1.593 -0.1663  0.8750 -0.3025
   78MOL    H5514069   3.988   2.061   1.263 -0.6320 -1.3817 -0.8945
   78MOL    C5614070   4.107   2.152   1.470 -0.6973  0.4805 -0.6083
   78MOL    C5714071   4.176   2.220   1.602  0.2921  0.1433 -0.0143
   78MOL    C5814072   4.101   2.338   1.660 -0.3411  0.1954 -0.8094
   78MOL    O5914073   4.117   2.454   1.629 -0.5600  0.1612  0.1640
   78MOL    O6014074   4.017   2.300   1.752  0.0422  0.2258  0.1883
   78MOL    H6114075   4.081   2.236   1.405 -1.7069  0.8557  0.2709
   78MOL    H6214076   4.177   2.091   1.414  0.6106 -0.7222  2.2404
   78MOL    H6314077   4.169   2.139   1.674  0.4470  2.6163  2.9000
   78MOL    H6414078   3.981   2.379   1.790 -1.1329 -0.6375  0.9143
   78MOL    C6514079   4.332   2.247   1.587  0.1138  0.0681  0.4912
   78MOL    C6614080   4.372   2.341   1.461 -0.0077 -0.9910  0.4640
   78MOL    C6714081   4.477   2.269   1.375  0.1350 -0.3189  0.3881
   78MOL    O6814082   4.453   2.238   1.264  0.6718  0.0500  0.1870
   78MOL    O6914083   4.600   2.263   1.438  0.1355 -0.2480  0.4042
   78MOL    H7014084   4.390   2.155   1.577  0.3566  0.3683 -0.9886
   78MOL    H7114085   4.362   2.297   1.679  4.4279 -2.0712  0.3642
   78MOL    H7214086   4.280   2.356   1.405  0.8946 -2.9086 -1.6056
   78MOL    H7314087   4.666   2.223   1.382 -0.5866 -1.4897  0.4294
   78MOL    C7414088   4.404   2.485   1.503  0.1177 -0.2856 -0.4638
   78MOL    C7514089   4.480   2.580   1.401 -1.0632  0.2500 -0.7652
   78MOL    C7614090   4.623   2.592   1.445 -0.3252  0.4495 -0.3019
   78MOL    O7714091   4.660   2.642   1.555  0.7629  0.0311 -0.4640
   78MOL    O7814092   4.712   2.565   1.347  0.5852 -0.2205  0.2340
   78MOL    H7914093   4.468   2.480   1.591 -1.8395 -0.1330  1.0069
   78MOL    H8014094   4.316   2.542   1.534 -0.4980 -1.4574 -0.0544
   78MOL    H8114095   4.468   2.527   1.307 -4.4057 -1.1303  0.3732
   78MOL    H8214096   4.796   2.590   1.383  0.1109 -3.5431  4.0364
   78MOL    C8314097   4.425   2.719   1.386  0.1921  0.8149 -0.1764
   78MOL    C8414098   4.487   2.810   1.278 -0.1256 -0.2693  0.3145
   78MOL    C8514099   4.446   2.957   1.297 -0.1428  0.0450  0.2287
   78MOL    O8614100   4.401   2.999   1.397 -0.1074  0.2130  1.0477
   78MOL    O8714101   4.482   3.036   1.193 -0.4180 -0.5030 -0.1056
   78MOL    H8814102   4.431   2.773   1.481 -2.0678 -1.1842  1.1520
   78MOL    H8914103   4.319   2.722   1.364  0.5173 -2.7685 -2.5132
   78MOL    H9014104   4.594   2.811   1.296 -0.2577 -3.4957  1.6295
   78MOL    H9114105   4.465   3.127   1.209 -1.5246 -0.7821  0.3332
   78MOL    C9214106   4.472   2.757   1.133  0.2752 -0.0077 -0.2461
   78MOL    C9314107   4.335   2.778   1.059  0.5332  0.1391 -0.2812
   78MOL    C9414108   4.257   2.649   1.043  0.0316 -0.5114 -0.6190
   78MOL    O9514109   4.207   2.606   0.937 -0.1424 -0.3493  0.7198
   78MOL    O9614110   4.252   2.580   1.156  0.5688 -0.5781  0.0356
   78MOL    H9714111   4.505   2.654   1.124  0.2744 -0.0236 -0.0696
   78MOL    H9814112   4.546   2.811   1.075 -1.8021  2.6499 -0.5611
   78MOL    H9914113   4.284   2.848   1.124  0.4902  0.1616 -0.3395
   78MOL   H10014114   4.199   2.502   1.157  2.0411 -1.7000 -3.0469
   78MOL   C10114115   4.362   2.845   0.917 -0.0316 -0.7258  0.2048
   78MOL   C10214116   4.253   2.907   0.829  0.3316 -0.2939  0.0237
   78MOL   C10314117   4.306   2.933   0.687  0.6304  0.0442 -0.6736
   78MOL   O10414118   4.412   2.983   0.669  0.1252  0.1508  0.3798
   78MOL   O10514119   4.217   2.906   0.588 -0.1071  0.6404  0.0097
   78MOL   H10614120   4.389   2.766   0.846  1.0287 -1.0439  0.9650
   78MOL   H10714121   4.452   2.906   0.918 -0.3866 -0.0879 -2.1003
   78MOL   H10814122   4.169   2.839   0.822 -0.5784  0.7660  0.3914
   78MOL   H10914123   4.254   2.930   0.505 -1.1497 -1.3370 -1.0523
   78MOL   C11014124   4.193   3.040   0.886 -0.0649  0.3279 -0.0388
   78MOL   C11114125   4.121   3.044   1.020  0.1851  0.6306  0.4280
   78MOL   C11214126   4.004   2.945   1.039  0.0217  0.7369  0.3521
   78MOL   O11314127   3.943   2.887   0.951  0.3804 -0.1055  0.7577
   78MOL   O11414128   3.985   2.930   1.172  0.1940 -0.8715  0.8215
   78MOL   H11514129   4.133   3.080   0.805 -1.4868  0.9421  1.3088
   78MOL   H11614130   4.266   3.122   0.884  0.6605 -0.2565  1.3112
   78MOL   H11714131   4.198   3.018   1.093 -1.4386 -0.7044  1.7194
   78MOL   H11814132   3.897   2.894   1.180 -1.8679  3.1556 -1.8962
   78MOL   C11914133   4.080   3.190   1.045 -0.4542 -0.1256 -0.2049
   78MOL   C12014134   4.185   3.296   1.088  0.1887  0.4492  0.3638
   78MOL   C12114135   4.220   3.288   1.245  0.1733  0.1504 -0.2741
   78MOL   O12214136   4.333   3.298   1.283  0.2555  0.2800 -0.1095
   78MOL   O12314137   4.115   3.264   1.332  0.5567  0.1444  0.4920
   78MOL   H12414138   4.013   3.196   1.131  1.4186  0.7375  1.2406
   78MOL   H12514139   4.029   3.220   0.954  3.2207  1.3918 -1.8655
   78MOL   H12614140   4.273   3.293   1.024 -0.6173 -0.3387 -0.7430
   78MOL   H12714141   4.149   3.245   1.418 -0.6669  3.4915  1.7832
   78MOL   C12814142   4.146   3.448   1.052 -0.8447 -0.4281 -0.1735
   78MOL   C12914143   4.205   3.504   0.925 -0.1107  0.2037 -0.0261
   78MOL   C13014144   4.182   3.427   0.796 -0.4076 -0.1263  0.8518
   78MOL   O13114145   4.268   3.357   0.737 -0.2405 -0.1762  0.5905
   78MOL   O13214146   4.052   3.438   0.756 -0.3215  0.3758 -0.1690
   78MOL   H13314147   4.198   3.499   1.133 -4.2611  0.1247  1.7308
   78MOL   H13414148   4.038   3.460   1.045 -0.8556 -0.7670 -0.5734
   78MOL   H13514149   4.138   3.587   0.902 -0.4873 -0.3432 -0.9721
   78MOL   H13614150   4.041   3.422   0.664  0.3608  0.5575 -0.2803
   78MOL   C13714151   4.350   3.555   0.949 -0.7188  0.1020  0.5917
   78MOL   C13814152   4.381   3.682   0.866  0.1778  0.5617 -0.1295
   78MOL   C13914153   4.396   3.658   0.715 -0.2116  0.4628 -0.0899
   78MOL   O14014154   4.485   3.587   0.662 -0.0052 -0.1933 -0.5559
   78MOL   O14114155   4.293   3.716   0.644  0.1325 -0.6723  0.2992
   78MOL   H14214156   4.419   3.473   0.927  0.3999  0.5813  2.2590
   78MOL   H14314157   4.370   3.566   1.055  1.2063  2.5228  0.0141
   78MOL   H14414158   4.299   3.754   0.869  1.0158  1.5188  0.2266
   78MOL   H14514159   4.285   3.702   0.551 -0.9075  0.0047  0.2825
   78MOL   C14614160   4.505   3.755   0.927 -0.1951  0.0922  0.5358
   78MOL   C14714161   4.477   3.838   1.050 -0.2221  0.2209  0.2393
   78MOL   C14814162   4.396   3.968   1.023 -0.2325  0.0443 -0.2358
   78MOL   O14914163   4.309   3.973   0.941 -0.3403 -0.3785 -0.1172
   78MOL   O15014164   4.421   4.077   1.101  0.1028 -0.1195 -0.4867
   78MOL   H15114165   4.555   3.812   0.849 -2.2987  1.9250  0.4509
   78MOL   H15214166   4.573   3.673   0.950 -1.2333 -1.7978 -2.8194
   78MOL   H15314167   4.426   3.770   1.117  1.4036  2.0094  3.4035
   78MOL   H15414168   4.352   4.141   1.089  0.3875  0.7223  1.9401
   78MOL   C15514169   4.614   3.876   1.128 -0.3373  0.7724  0.3000
   78MOL   C15614170   4.594   3.897   1.281 -0.2143  0.1487 -0.0625
   78MOL   C15714171   4.701   3.978   1.342 -0.0884 -0.2379  0.1781
   78MOL   O15814172   4.808   3.932   1.382 -0.1584 -0.4350  0.4801
   78MOL   O15914173   4.679   4.114   1.338 -0.2658  0.2791 -0.1267
   78MOL   H16014174   4.664   3.960   1.082 -0.8430  0.0098 -1.7171
   78MOL   H16114175   4.683   3.792   1.117  0.5740  1.5864 -0.1509
   78MOL   H16214176   4.511   3.966   1.292 -1.6111 -1.7379  1.5222
   78MOL   H16314177   4.756   4.156   1.372 -0.1970  0.4386 -0.4763
   78MOL   C16414178   4.561   3.765   1.357 -0.7650 -0.1163  0.3641
   78MOL   C16514179   4.456   3.766   1.473  0.1866 -0.8087 -0.3269
   78MOL   C16614180   4.313   3.787   1.429  0.8260  0.8742 -0.5099
   78MOL   O16714181   4.282   3.801   1.311  0.0911 -0.5373  0.5022
   78MOL   O16814182   4.232   3.791   1.532  0.1020  0.1916  0.9280
   78MOL   H16914183   4.656   3.726   1.392 -0.7095  1.1773  1.7211
   78MOL   H17014184   4.533   3.688   1.285  1.0540 -1.1514  0.7438
   78MOL   H17114185   4.448   3.666   1.516  0.3526 -1.3731 -1.5831
   78MOL   H17214186   4.146   3.810   1.499 -0.3431 -0.9470  1.4189
   78MOL   C17314187   4.490   3.872   1.587  0.1063  0.6303  0.3866
   78MOL   C17414188   4.627   3.851   1.662  0.4543  0.2681 -0.6236
   78MOL   C17514189   4.622   3.749   1.775 -0.4439  0.5401  1.2888
   78MOL   O17614190   4.538   3.752   1.863 -0.2113  0.4834  0.1625
   78MOL   O17714191   4.706   3.651   1.751 -0.0160  0.3500  0.2021
   78MOL   H17814192   4.422   3.855   1.671  1.8966  0.5098  1.8401
   78MOL   H17914193   4.488   3.973   1.548 -0.8588  0.6939  0.5910
   78MOL   H18014194   4.702   3.814   1.592  0.8877 -0.4718  0.2192
   78MOL   H18114195   4.745   3.665   1.666  1.8842 -0.8455  0.8320
   78MOL   H18214196   4.659   3.949   1.696 -1.9061  0.9065 -0.1939
   79MOL     C114197   1.324   2.565   3.166 -0.4069  0.5542 -0.0749
   79MOL     C214198   1.280   2.534   3.305 -0.0028  0.7500  0.2852
   79MOL     C314199   1.141   2.585   3.338 -0.7271 -0.0065  0.0956
   79MOL     O414200   1.045   2.517   3.370 -0.4529  0.0220 -0.1774
   79MOL     O514201   1.137   2.719   3.322  0.0823  0.0118 -0.5218
   79MOL     H614202   1.246   2.614   3.108  0.0222  1.7402  0.3302
   79MOL     H714203   1.400   2.643   3.170 -0.0939  0.2456  0.0495
   79MOL     H814204   1.256   2.428   3.309 -0.8442  0.8873 -0.9352
   79MOL     H914205   1.223   2.758   3.324  0.7711 -1.3296 -2.1759
   79MOL    H1014206   1.372   2.478   3.123  1.9008  1.5739  0.3996
   79MOL    C1114207   1.382   2.567   3.423  0.5587  0.1613  0.1175
   79MOL    C1214208   1.517   2.498   3.425  0.0342 -0.2683  0.0759
   79MOL    C1314209   1.512   2.343   3.435  0.7333  1.1822  0.3744
   79MOL    O1414210   1.572   2.265   3.357  0.1080  0.1309  0.2256
   79MOL    O1514211   1.434   2.294   3.533  0.1481 -0.4127 -0.0614
   79MOL    H1614212   1.332   2.545   3.518  0.3476 -2.8566 -0.6461
   79MOL    H1714213   1.399   2.674   3.413 -0.4583  0.0285 -3.3921
   79MOL    H1814214   1.564   2.513   3.328  1.1046 -0.2144  0.6006
   79MOL    H1914215   1.422   2.201   3.522 -1.2635 -0.5515  2.4402
   79MOL    C2014216   1.601   2.547   3.548  0.2825 -0.6232  0.0526
   79MOL    C2114217   1.758   2.541   3.540  0.2442  0.3209  0.2155
   79MOL    C2214218   1.799   2.612   3.413 -0.0421 -0.1804 -0.0036
   79MOL    O2314219   1.854   2.560   3.314 -0.6953 -0.3526  0.5606
   79MOL    O2414220   1.757   2.740   3.419  0.4123  0.2865  0.4751
   79MOL    H2514221   1.565   2.498   3.639  0.2654 -0.7008  0.0032
   79MOL    H2614222   1.565   2.649   3.567  0.4396 -0.3990 -0.8438
   79MOL    H2714223   1.796   2.595   3.626 -1.8965 -1.0671  2.1152
   79MOL    H2814224   1.723   2.759   3.505 -0.4920 -0.1748  0.2236
   79MOL    C2914225   1.812   2.392   3.537 -0.3121 -0.8017  0.3894
   79MOL    C3014226   1.955   2.379   3.589 -0.5802  0.6217  0.0716
   79MOL    C3114227   2.068   2.406   3.491  0.9173 -0.1096  0.0380
   79MOL    O3214228   2.153   2.499   3.510 -0.3324 -0.0171 -0.2264
   79MOL    O3314229   2.055   2.320   3.385 -0.1748 -0.2151  0.0892
   79MOL    H3414230   1.809   2.343   3.439  0.6066 -1.0557  0.4911
   79MOL    H3514231   1.744   2.337   3.602 -0.4677 -0.9321  0.1229
   79MOL    H3614232   1.971   2.445   3.675  2.5028 -1.6396  1.3543
   79MOL    H3714233   2.116   2.352   3.320 -1.3069  2.1163  0.1387
   79MOL    C3814234   1.972   2.229   3.641  0.2207  0.1576 -0.3640
   79MOL    C3914235   2.097   2.205   3.724 -0.2882  0.3766  0.2280
   79MOL    C4014236   2.134   2.057   3.720  0.3393 -0.0662 -0.0495
   79MOL    O4114237   2.115   1.972   3.810  0.1109  0.1343  0.2295
   79MOL    O4214238   2.187   2.016   3.600  0.2408  0.2806 -0.0055
   79MOL    H4314239   1.975   2.165   3.553 -0.3776 -0.7140  0.2472
   79MOL    H4414240   1.886   2.210   3.705 -1.1430  1.1768 -1.8599
   79MOL    H4514241   2.181   2.259   3.680  0.0566  0.9172  1.5234
   79MOL    H4614242   2.194   2.086   3.537 -0.8188  0.8274  0.4735
   79MOL    C4714243   2.076   2.259   3.867 -0.2842  0.6418 -0.3123
   79MOL    C4814244   2.148   2.396   3.899  0.4305  0.2368 -0.0855
   79MOL    C4914245   2.299   2.390   3.934 -0.2324 -0.0439 -0.5262
   79MOL    O5014246   2.365   2.286   3.948 -0.1007 -0.5003  0.1909
   79MOL    O5114247   2.352   2.515   3.943 -0.0182  0.3066  0.6164
   79MOL    H5214248   2.107   2.186   3.941  0.1570  0.5794 -0.5567
   79MOL    H5314249   1.969   2.274   3.882 -0.6343  0.3614 -2.4083
   79MOL    H5414250   2.156   2.449   3.804 -0.8659 -0.5879 -0.6722
   79MOL    H5514251   2.445   2.497   3.948  0.0590  0.9761  1.7789
   79MOL    C5614252   2.078   2.481   4.012  0.6334  0.1191 -0.5519
   79MOL    C5714253   1.964   2.569   3.956 -0.7364 -0.7810 -0.6144
   79MOL    C5814254   2.037   2.693   3.894  0.2092 -0.6157  0.4741
   79MOL    O5914255   2.048   2.801   3.947  0.4715 -0.7835  0.3308
   79MOL    O6014256   2.091   2.672   3.770 -0.0662  0.0899 -0.2702
   79MOL    H6114257   2.143   2.544   4.073 -1.2120  1.1548  0.3868
   79MOL    H6214258   2.035   2.416   4.088 -1.6012  2.6339  0.4289
   79MOL    H6314259   1.907   2.512   3.883 -0.7992  0.1815 -1.3407
   79MOL    H6414260   2.125   2.750   3.731  1.1683 -0.0893  0.4258
   79MOL    C6514261   1.855   2.613   4.062 -0.8231  0.1443  0.2997
   79MOL    C6614262   1.738   2.507   4.087 -0.1110 -0.1819 -0.0811
   79MOL    C6714263   1.635   2.496   3.978  0.1334 -0.4059 -0.4556
   79MOL    O6814264   1.654   2.558   3.870 -0.2069 -0.0628  0.4050
   79MOL    O6914265   1.530   2.410   4.003 -0.1384  0.4931  0.1930
   79MOL    H7014266   1.810   2.709   4.034  1.1229  1.1129  0.4069
   79MOL    H7114267   1.900   2.637   4.159 -0.9975  1.9960 -0.0552
   79MOL    H7214268   1.797   2.416   4.099  1.7535  0.9420 -0.4991
   79MOL    H7314269   1.494   2.402   3.916 -2.1109  3.1744  0.7029
   79MOL    C7414270   1.672   2.539   4.230 -0.0982  0.7376 -0.3564
   79MOL    C7514271   1.581   2.668   4.240  0.1309  0.7058  0.1423
   79MOL    C7614272   1.636   2.751   4.356  0.1167 -0.4014  0.4897
   79MOL    O7714273   1.663   2.869   4.348 -0.5663  0.2474 -0.7676
   79MOL    O7814274   1.635   2.677   4.473 -0.4058 -0.5216  0.6540
   79MOL    H7914275   1.755   2.547   4.299 -2.9900  0.4792  3.2780
   79MOL    H8014276   1.622   2.446   4.258  1.8617 -0.1539  0.2525
   79MOL    H8114277   1.592   2.729   4.150  1.3064 -0.5616 -0.5992
   79MOL    H8214278   1.645   2.731   4.550  0.5288 -3.0061  2.3435
   79MOL    C8314279   1.429   2.628   4.256  0.3257 -0.5278  0.3505
   79MOL    C8414280   1.329   2.746   4.232 -0.1648 -0.2285 -0.1641
   79MOL    C8514281   1.253   2.792   4.357 -0.1379 -0.4984 -0.6648
   79MOL    O8614282   1.290   2.774   4.475  0.7226 -0.0874 -0.3521
   79MOL    O8714283   1.142   2.870   4.341 -0.1689 -0.4173  0.6225
   79MOL    H8814284   1.409   2.587   4.355  2.0632 -1.3801  0.3719
   79MOL    H8914285   1.404   2.543   4.194  1.4615 -0.5815 -0.0417
   79MOL    H9014286   1.390   2.827   4.191  0.4413 -0.9518 -0.7127
   79MOL    H9114287   1.109   2.914   4.418  0.4846  1.0577  0.0913
   79MOL    C9214288   1.234   2.709   4.115 -0.2466  0.2834 -0.5533
   79MOL    C9314289   1.288   2.690   3.970 -0.2888  0.4091  0.5715
   79MOL    C9414290   1.314   2.820   3.896 -1.0256 -0.7497 -0.3855
   79MOL    O9514291   1.277   2.932   3.938  0.1696  0.6104  0.1355
   79MOL    O9614292   1.394   2.802   3.788 -0.3692 -0.2985 -0.6369
   79MOL    H9714293   1.154   2.783   4.106 -0.5733  0.2872  1.9542
   79MOL    H9814294   1.172   2.627   4.149 -0.4861  1.1964  1.2771
   79MOL    H9914295   1.381   2.633   3.971  0.2785  1.2222 -2.0608
   79MOL   H10014296   1.421   2.887   3.757 -1.0338  0.5307  1.0225
   79MOL   C10114297   1.186   2.602   3.887  0.3509  0.9746 -0.1548
   79MOL   C10214298   1.197   2.449   3.918 -0.1689 -0.3127  0.6389
   79MOL   C10314299   1.247   2.377   3.790  1.2223  0.3046  0.1631
   79MOL   O10414300   1.180   2.309   3.718 -0.6080  0.2755  0.3229
   79MOL   O10514301   1.381   2.393   3.776 -0.3510 -0.3737 -0.4590
   79MOL   H10614302   1.199   2.616   3.780  1.1775  0.7376 -0.0887
   79MOL   H10714303   1.085   2.638   3.906  1.2911  2.9437  1.2833
   79MOL   H10814304   1.279   2.431   3.987  1.0880 -0.3742 -0.8325
   79MOL   H10914305   1.397   2.348   3.695 -2.2861 -0.4519 -0.8188
   79MOL   C11014306   1.068   2.398   3.981 -0.3929 -0.3589 -0.5889
   79MOL   C11114307   1.038   2.247   4.001  0.1096  0.3306 -0.3906
   79MOL   C11214308   0.902   2.226   4.073  0.2218  0.2257  0.1234
   79MOL   O11314309   0.892   2.211   4.196  0.1518 -0.2256  0.5214
   79MOL   O11414310   0.795   2.260   3.991 -1.3325 -0.1967  0.1825
   79MOL   H11514311   0.987   2.446   3.927  0.6819  0.4588 -1.5059
   79MOL   H11614312   1.072   2.442   4.080 -1.2547  2.7676 -1.8773
   79MOL   H11714313   1.025   2.215   3.897  1.8386 -0.5770 -0.3446
   79MOL   H11814314   0.715   2.280   4.037 -1.6859 -1.4164  0.1089
   79MOL   C11914315   1.151   2.155   4.062 -0.1816  0.0940 -0.7720
   79MOL   C12014316   1.210   2.064   3.956 -0.2005 -0.1296 -0.0134
   79MOL   C12114317   1.114   1.986   3.869  0.2864 -1.1336 -0.2412
   79MOL   O12214318   1.113   1.992   3.747  0.1138 -0.0650 -0.0042
   79MOL   O12314319   1.022   1.921   3.946  0.0545 -0.0174 -0.3762
   79MOL   H12414320   1.119   2.090   4.144  1.2116  0.7277  0.3081
   79MOL   H12514321   1.224   2.227   4.100 -0.7409 -0.3494  1.2232
   79MOL   H12614322   1.271   2.127   3.890  1.4927  0.5349  2.1216
   79MOL   H12714323   0.962   1.864   3.900  0.2927 -0.3130 -0.3216
   79MOL   C12814324   1.310   1.966   4.016 -0.2749  0.0483  1.3666
   79MOL   C12914325   1.405   1.896   3.911 -0.5052 -0.1835  0.2518
   79MOL   C13014326   1.349   1.765   3.866  0.8519  0.4971  0.3343
   79MOL   O13114327   1.293   1.688   3.945 -0.0612  0.3374 -0.6685
   79MOL   O13214328   1.375   1.737   3.734 -0.0597 -0.1395 -0.5170
   79MOL   H13314329   1.258   1.891   4.076  1.0947  0.2020  2.7763
   79MOL   H13414330   1.368   2.024   4.087  1.3232  2.0865 -1.5275
   79MOL   H13514331   1.409   1.952   3.818  1.5866 -1.9955 -0.7987
   79MOL   H13614332   1.371   1.644   3.718  0.7830 -0.4327  0.8869
   79MOL   C13714333   1.550   1.887   3.959 -0.2391 -0.2680 -0.0304
   79MOL   C13814334   1.632   2.016   3.972 -0.2159 -0.6314  0.2123
   79MOL   C13914335   1.637   2.074   3.823 -0.0164  0.2900  0.2284
   79MOL   O14014336   1.583   2.176   3.781  0.5199 -0.1565 -0.4756
   79MOL   O14114337   1.712   1.994   3.742  0.2385 -0.3282 -0.1319
   79MOL   H14214338   1.602   1.814   3.896  0.8856 -0.8663  1.5631
   79MOL   H14314339   1.560   1.846   4.059  0.6139  0.9162  0.3822
   79MOL   H14414340   1.584   2.098   4.026  0.3983 -0.1196 -0.0136
   79MOL   H14514341   1.709   2.012   3.650 -0.6969 -0.6302 -0.1594
   79MOL   C14614342   1.771   2.002   4.027 -0.1557 -0.1723 -0.1599
   79MOL   C14714343   1.785   1.984   4.180  0.0881 -0.5513  0.5428
   79MOL   C14814344   1.775   2.128   4.247  0.5584  0.4106  0.1775
   79MOL   O14914345   1.870   2.202   4.270 -0.4238  0.0631 -0.8492
   79MOL   O15014346   1.648   2.162   4.272  0.6294 -0.5080  0.0765
   79MOL   H15114347   1.824   2.089   3.988 -1.5911  1.0084  0.4540
   79MOL   H15214348   1.819   1.924   3.969 -1.2733 -0.0606 -1.2485
   79MOL   H15314349   1.702   1.922   4.213 -0.8695  0.3382 -0.1472
   79MOL   H15414350   1.643   2.241   4.324  1.4943  1.0496 -2.1316
   79MOL   C15514351   1.911   1.906   4.213 -0.6209  0.0403 -0.0791
   79MOL   C15614352   1.909   1.819   4.343  0.2927 -0.5434 -0.1366
   79MOL   C15714353   1.895   1.905   4.472 -0.5208 -0.2602 -0.2875
   79MOL   O15814354   1.988   1.924   4.551  0.5830  0.8107 -0.3648
   79MOL   O15914355   1.767   1.942   4.504 -0.2706 -0.1909 -0.1457
   79MOL   H16014356   1.994   1.976   4.217 -0.6321  0.0918 -0.6466
   79MOL   H16114357   1.934   1.834   4.135  1.6800 -0.7326  1.2673
   79MOL   H16214358   1.820   1.755   4.340 -1.1932  1.5048 -1.4028
   79MOL   H16314359   1.765   2.000   4.579 -2.0728 -0.3799 -0.0237
   79MOL   C16414360   2.039   1.734   4.346  0.0516  0.2731  0.0538
   79MOL   C16514361   2.048   1.632   4.467  0.2822 -0.1027  0.2861
   79MOL   C16614362   2.192   1.635   4.528 -0.5573 -0.3415 -0.1597
   79MOL   O16714363   2.266   1.539   4.526  0.0992  0.0621 -0.5882
   79MOL   O16814364   2.230   1.763   4.569 -0.0624 -0.2405  0.4971
   79MOL   H16914365   2.127   1.798   4.341  0.6395 -0.5345 -0.1469
   79MOL   H17014366   2.048   1.673   4.256 -1.9958  1.6917 -1.1522
   79MOL   H17114367   1.993   1.672   4.551 -1.4065  1.5503 -1.5414
   79MOL   H17214368   2.164   1.829   4.556  1.6979  0.9371 -3.0256
   79MOL   C17314369   1.989   1.494   4.421 -0.1812 -0.1825  0.3223
   79MOL   C17414370   1.919   1.437   4.542 -0.4174  0.3569 -0.3011
   79MOL   C17514371   1.780   1.493   4.565  0.0018  0.2430 -0.8959
   79MOL   O17614372   1.725   1.574   4.484  0.2554  0.1880  0.4775
   79MOL   O17714373   1.742   1.453   4.689 -0.0510  0.7950  0.1588
   79MOL   H17814374   2.071   1.430   4.390 -0.8539 -1.6294  1.4121
   79MOL   H17914375   1.919   1.498   4.338 -0.8897  3.2937  0.9942
   79MOL   H18014376   1.922   1.328   4.532 -0.1354  0.3684 -0.3480
   79MOL   H18114377   1.665   1.504   4.711  0.6354  1.0332  2.1027
   79MOL   H18214378   1.970   1.449   4.638  1.7532 -0.7284 -1.2928
   80MOL     C114379   4.695   4.541   1.662  0.7781 -0.2936 -0.2584
   80MOL     C214380   4.715   4.392   1.628 -0.1114  0.3800  0.2942
   80MOL     C314381   4.845   4.374   1.555 -0.0177 -0.3833  0.2285
   80MOL     O414382   4.946   4.434   1.577 -0.1803 -0.4000 -0.0320
   80MOL     O514383   4.839   4.285   1.453 -0.2840 -0.1745 -0.1718
   80MOL     H614384   4.620   4.593   1.602  0.3024  0.5908  1.0833
   80MOL     H714385   4.650   4.545   1.761  0.7855 -1.3901 -0.2085
   80MOL     H814386   4.706   4.343   1.725  1.2229 -0.1412  0.1725
   80MOL     H914387   4.928   4.277   1.420 -1.5186 -1.8200 -3.2977
   80MOL    H1014388   4.792   4.591   1.668  0.1413  1.1250 -1.4360
   80MOL    C1114389   4.592   4.321   1.552  0.3819 -0.4542 -0.2039
   80MOL    C1214390   4.445   4.330   1.617 -0.0803 -0.8382 -0.3691
   80MOL    C1314391   4.454   4.268   1.761  0.2810 -0.6058  0.5158
   80MOL    O1414392   4.465   4.340   1.862 -0.0074  0.3670  0.5092
   80MOL    O1514393   4.467   4.139   1.754  0.9972 -1.1230 -0.1010
   80MOL    H1614394   4.616   4.215   1.557  1.8868 -0.0611  1.3422
   80MOL    H1714395   4.588   4.348   1.446  1.3591 -1.9730 -0.6511
   80MOL    H1814396   4.417   4.435   1.627  1.0658 -0.7218  2.3702
   80MOL    H1914397   4.488   4.099   1.837  1.9556 -1.7101 -0.6103
   80MOL    C2014398   4.346   4.256   1.520 -0.1394  0.1531  0.6636
   80MOL    C2114399   4.212   4.220   1.578  1.0714 -0.0845  0.4201
   80MOL    C2214400   4.137   4.123   1.486 -0.4752 -0.6653  0.0825
   80MOL    O2314401   4.070   4.028   1.526  0.3045 -0.1432 -0.2799
   80MOL    O2414402   4.140   4.167   1.355 -0.1687 -0.5503 -0.7398
   80MOL    H2514403   4.399   4.167   1.485  0.2264  1.3687 -2.0136
   80MOL    H2614404   4.331   4.310   1.427 -0.7082 -1.6676 -0.3375
   80MOL    H2714405   4.218   4.159   1.668 -1.1945 -3.2197 -1.4468
   80MOL    H2814406   4.077   4.115   1.307 -0.7916  0.3180 -0.8856
   80MOL    C2914407   4.129   4.354   1.596 -0.0307  1.4094  0.4300
   80MOL    C3014408   4.062   4.367   1.732  0.2704 -0.3538  0.4080
   80MOL    C3114409   3.941   4.277   1.755  0.0863 -0.5028 -0.2201
   80MOL    O3214410   3.872   4.227   1.664  0.5316 -0.9254  0.6190
   80MOL    O3314411   3.918   4.266   1.886  0.0616  0.2419 -0.4599
   80MOL    H3414412   4.056   4.365   1.516 -0.1767  0.6355  0.4583
   80MOL    H3514413   4.196   4.439   1.580 -0.4769  1.6743 -0.0474
   80MOL    H3614414   4.128   4.318   1.803  0.6899 -2.4715 -1.4078
   80MOL    H3714415   3.838   4.226   1.915  0.0895  1.0037  0.7475
   80MOL    C3814416   4.046   4.515   1.782 -0.6978  0.0162 -0.3083
   80MOL    C3914417   4.119   4.557   1.911  0.1696 -0.1187  0.2188
   80MOL    C4014418   4.023   4.542   2.036 -0.1845 -0.1396  0.5874
   80MOL    O4114419   4.034   4.445   2.112  0.9472 -0.0301 -0.1997
   80MOL    O4214420   3.947   4.655   2.054  0.2306  0.3084 -0.0603
   80MOL    H4314421   3.937   4.521   1.778 -0.6543  0.5553 -0.6911
   80MOL    H4414422   4.078   4.579   1.700  0.4684 -0.4912 -0.2454
   80MOL    H4514423   4.203   4.494   1.937 -0.7519 -2.0000 -1.2301
   80MOL    H4614424   3.906   4.656   2.139  1.1272  2.8863  0.4133
   80MOL    C4714425   4.180   4.695   1.912  0.1363 -0.0756  0.0063
   80MOL    C4814426   4.262   4.740   2.035 -0.1816  0.1221  0.4406
   80MOL    C4914427   4.246   4.889   2.078 -0.0002 -0.6238 -0.3463
   80MOL    O5014428   4.222   4.986   2.006 -0.0108 -0.1253 -0.8252
   80MOL    O5114429   4.265   4.893   2.210 -0.4159  0.3331 -0.7578
   80MOL    H5214430   4.092   4.759   1.904  1.0474  1.0489 -1.3113
   80MOL    H5314431   4.244   4.707   1.824  2.4112 -2.1336  1.3313
   80MOL    H5414432   4.221   4.679   2.115 -0.2485 -1.5071 -0.8103
   80MOL    H5514433   4.255   4.982   2.238 -2.3175  0.4409 -1.6924
   80MOL    C5614434   4.411   4.685   2.019  0.3157 -0.5022 -0.0690
   80MOL    C5714435   4.517   4.719   2.123  0.1665 -0.1110 -0.2147
   80MOL    C5814436   4.478   4.682   2.268  0.1398  0.0331  0.1985
   80MOL    O5914437   4.503   4.749   2.370  0.0526 -0.2793  0.5922
   80MOL    O6014438   4.430   4.556   2.271 -0.0594  0.2170 -0.0515
   80MOL    H6114439   4.456   4.711   1.923  1.0636  2.8063  1.0908
   80MOL    H6214440   4.390   4.579   2.014 -3.7652  0.2516 -0.1445
   80MOL    H6314441   4.597   4.651   2.092 -1.9707 -2.5542 -0.6186
   80MOL    H6414442   4.411   4.544   2.363 -2.0018  0.7208 -0.3584
   80MOL    C6514443   4.590   4.860   2.114  0.0906  0.1480  0.1701
   80MOL    C6614444   4.747   4.855   2.079 -0.0043 -0.4787 -0.2849
   80MOL    C6714445   4.823   4.824   2.211  0.3311 -0.3814  0.6681
   80MOL    O6814446   4.831   4.899   2.307 -0.3881  0.6637  0.0333
   80MOL    O6914447   4.890   4.701   2.206 -0.1160  0.1338 -0.2208
   80MOL    H7014448   4.558   4.920   2.200 -1.1108  1.0175 -0.8737
   80MOL    H7114449   4.541   4.907   2.029 -1.8374 -2.0259  0.0265
   80MOL    H7214450   4.752   4.770   2.011  0.6348 -0.7305  0.0688
   80MOL    H7314451   4.956   4.673   2.267  0.0685 -0.4789 -0.6956
   80MOL    C7414452   4.796   4.993   2.019 -0.5648  0.7523  0.2144
   80MOL    C7514453   4.916   4.980   1.919 -0.0030 -0.4281  0.3931
   80MOL    C7614454   4.982   4.844   1.921  0.5619  0.0720 -0.0485
   80MOL    O7714455   5.065   4.808   2.007  0.2509  0.5390 -0.4775
   80MOL    O7814456   4.921   4.767   1.828 -0.2938 -0.4704 -0.0156
   80MOL    H7914457   4.826   5.055   2.104 -0.2821 -0.2396  0.8407
   80MOL    H8014458   4.718   5.055   1.974  1.1325  1.3882 -1.8873
   80MOL    H8114459   4.874   4.992   1.819  0.5267 -1.1273  0.0834
   80MOL    H8214460   4.945   4.676   1.836  1.9552  0.0724 -0.2466
   80MOL    C8314461   5.009   5.104   1.928  0.2975 -0.0345  0.3715
   80MOL    C8414462   5.135   5.109   1.844 -0.0912 -0.7724  0.5475
   80MOL    C8514463   5.210   5.238   1.881 -0.0201 -0.3711  0.8328
   80MOL    O8614464   5.190   5.348   1.825 -0.0855 -0.0614  0.4829
   80MOL    O8714465   5.286   5.223   1.986 -0.4444 -0.1022 -0.1683
   80MOL    H8814466   5.036   5.117   2.033  1.0427 -1.4259  0.3564
   80MOL    H8914467   4.947   5.192   1.911  1.3890  0.5840 -0.4317
   80MOL    H9014468   5.205   5.030   1.872  0.5419 -0.5446 -0.3785
   80MOL    H9114469   5.342   5.292   2.017  0.5419 -1.5166  1.2725
   80MOL    C9214470   5.103   5.111   1.697 -0.1782 -0.0612  0.3360
   80MOL    C9314471   5.172   4.990   1.622  0.2425 -0.5590  0.4304
   80MOL    C9414472   5.323   4.992   1.611 -0.2232 -0.0845  0.1224
   80MOL    O9514473   5.397   5.084   1.644  0.7443 -0.0433 -0.5184
   80MOL    O9614474   5.363   4.872   1.570 -0.1349 -0.0129  0.1594
   80MOL    H9714475   5.128   5.203   1.645  1.0236 -0.5422  0.0347
   80MOL    H9814476   4.996   5.109   1.677 -0.5364 -0.0692  2.1344
   80MOL    H9914477   5.141   4.906   1.684 -0.1921 -0.9802 -0.3491
   80MOL   H10014478   5.289   4.814   1.562 -0.5809  0.2779  1.8516
   80MOL   C10114479   5.107   4.973   1.482 -0.8715 -0.6095  0.1596
   80MOL   C10214480   5.003   4.860   1.463 -0.3001  0.2467  0.0201
   80MOL   C10314481   5.068   4.718   1.468  0.0026  0.3510 -0.0633
   80MOL   O10414482   5.165   4.699   1.542 -0.2411  0.1797  0.4169
   80MOL   O10514483   5.010   4.624   1.391 -0.4035 -0.4635 -0.2746
   80MOL   H10614484   5.177   4.962   1.399  0.1057  0.4674  0.8167
   80MOL   H10714485   5.054   5.067   1.464 -1.0764 -0.7733 -0.0965
   80MOL   H10814486   4.951   4.864   1.559  1.9449  0.0023  1.2974
   80MOL   H10914487   5.050   4.538   1.400 -0.2090 -0.3401  0.0709
   80MOL   C11014488   4.915   4.889   1.343 -0.9257 -0.1054  0.3514
   80MOL   C11114489   4.773   4.830   1.351  0.1152  0.3360 -0.2699
   80MOL   C11214490   4.709   4.815   1.214 -0.0804  0.1038  0.5557
   80MOL   O11314491   4.602   4.868   1.178 -0.1481 -0.8472  0.0308
   80MOL   O11414492   4.774   4.725   1.139  0.2508  0.2343 -0.1706
   80MOL   H11514493   4.961   4.839   1.258  0.1062  2.3424 -0.5740
   80MOL   H11614494   4.912   4.995   1.315  0.8433 -0.3964 -1.0347
   80MOL   H11714495   4.782   4.722   1.365 -2.0680  0.1038 -0.4857
   80MOL   H11814496   4.736   4.701   1.055 -0.1108 -1.1997  0.3790
   80MOL   C11914497   4.667   4.880   1.451  0.3649 -0.3406 -0.4208
   80MOL   C12014498   4.636   5.031   1.448  0.2343  0.3223 -0.6276
   80MOL   C12114499   4.716   5.120   1.540 -0.1420 -0.1774  0.3347
   80MOL   O12214500   4.726   5.100   1.661  0.4057 -0.6068 -0.1224
   80MOL   O12314501   4.790   5.212   1.478  0.2666  0.5027 -0.1104
   80MOL   H12414502   4.705   4.850   1.548  0.6474  1.3598  0.0121
   80MOL   H12514503   4.568   4.840   1.430  0.5300 -1.4598  0.9272
   80MOL   H12614504   4.667   5.073   1.352 -1.7211 -0.2175 -1.5305
   80MOL   H12714505   4.816   5.268   1.550  1.0425  0.7204 -0.5486
   80MOL   C12814506   4.481   5.073   1.459 -0.2595 -0.2086 -0.3441
   80MOL   C12914507   4.417   5.057   1.601  0.3742 -0.2520  0.4777
   80MOL   C13014508   4.399   4.910   1.646 -0.0138 -0.1393  0.3877
   80MOL   O13114509   4.307   4.838   1.612 -0.2017  0.1411  0.1442
   80MOL   O13214510   4.495   4.875   1.731  0.0218 -0.1157  0.1529
   80MOL   H13314511   4.411   5.023   1.391 -0.9881 -0.6131  0.7020
   80MOL   H13414512   4.472   5.175   1.422 -0.9166 -0.2881 -0.4086
   80MOL   H13514513   4.476   5.101   1.681  2.7532 -0.5992 -1.0240
   80MOL   H13614514   4.486   4.792   1.777  0.7829 -0.4148 -0.2262
   80MOL   C13714515   4.279   5.123   1.602 -0.3108 -0.4073  0.1084
   80MOL   C13814516   4.280   5.275   1.615  0.0145 -0.2712  0.6999
   80MOL   C13914517   4.265   5.341   1.756 -0.1321  0.2737 -0.5777
   80MOL   O14014518   4.201   5.283   1.848  0.4715 -0.5006 -0.3209
   80MOL   O14114519   4.321   5.458   1.763  0.1924 -0.2324  0.4573
   80MOL   H14214520   4.215   5.082   1.680 -0.8802  1.1882  0.4875
   80MOL   H14314521   4.229   5.098   1.509 -1.4425  1.7623  0.1159
   80MOL   H14414522   4.369   5.314   1.566  0.6147 -0.9487  1.2392
   80MOL   H14514523   4.319   5.483   1.854 -3.6872  0.5681  0.2349
   80MOL   C14614524   4.165   5.340   1.537  0.0250  0.2767 -0.0546
   80MOL   C14714525   4.206   5.374   1.389  0.1084  0.1052  0.2496
   80MOL   C14814526   4.300   5.492   1.364  0.7700  1.2134  0.2824
   80MOL   O14914527   4.317   5.583   1.445 -0.1461 -0.0696  0.3285
   80MOL   O15014528   4.365   5.490   1.244 -0.0051  0.0300 -0.2165
   80MOL   H15114529   4.128   5.436   1.571 -1.1024  0.2218 -1.0797
   80MOL   H15214530   4.074   5.282   1.549  0.8911 -0.9128  0.8563
   80MOL   H15314531   4.269   5.296   1.348  1.0256  1.3198 -0.6946
   80MOL   H15414532   4.417   5.567   1.231  0.4370 -0.3881 -0.9879
   80MOL   C15514533   4.078   5.384   1.304 -0.6758 -0.5339  0.5496
   80MOL   C15614534   4.032   5.244   1.256  0.3070 -0.3566  0.0604
   80MOL   C15714535   4.106   5.198   1.128 -0.3645 -0.4975 -0.1004
   80MOL   O15814536   4.129   5.273   1.034  0.1483 -0.4392  0.8753
   80MOL   O15914537   4.139   5.072   1.144 -0.2211  0.8843 -0.2100
   80MOL   H16014538   4.104   5.446   1.219  1.0584 -0.5978  0.9912
   80MOL   H16114539   4.000   5.443   1.351 -0.7256  0.9228 -1.3424
   80MOL   H16214540   4.060   5.172   1.333  1.1552  0.9700  1.0203
   80MOL   H16314541   4.180   5.038   1.065  0.5586  2.4943 -0.5115
   80MOL   C16414542   3.882   5.243   1.259  0.3031  0.5425  0.2972
   80MOL   C16514543   3.824   5.112   1.208  0.3698 -0.4329  0.4496
   80MOL   C16614544   3.667   5.116   1.210  0.4056 -0.3935 -0.2564
   80MOL   O16714545   3.593   5.026   1.256 -0.2980  0.4205 -0.1542
   80MOL   O16814546   3.617   5.225   1.155  0.8993 -0.9817  0.2434
   80MOL   H16914547   3.838   5.328   1.206  0.0678  0.1520 -0.1387
   80MOL   H17014548   3.845   5.245   1.362  0.7368  1.1221  0.4459
   80MOL   H17114549   3.863   5.096   1.108  1.0498  1.2847  0.4171
   80MOL   H17214550   3.524   5.221   1.166  0.6436 -1.0709 -1.7347
   80MOL   C17314551   3.873   4.994   1.299 -0.0826 -0.1559 -0.3728
   80MOL   C17414552   3.858   4.994   1.451 -0.2948  0.1031 -0.1491
   80MOL   C17514553   3.908   4.862   1.509  0.5835  0.2030 -0.1308
   80MOL   O17614554   3.989   4.788   1.457  0.0002  0.0437  0.0197
   80MOL   O17714555   3.841   4.826   1.624 -0.1748  0.1600 -0.0529
   80MOL   H17814556   3.977   4.970   1.275 -0.3555 -2.4308  0.6203
   80MOL   H17914557   3.822   4.905   1.261  0.6454 -0.1249 -1.4513
   80MOL   H18014558   3.901   5.079   1.505  0.1815  0.1712 -0.6266
   80MOL   H18114559   3.884   4.750   1.661  1.5575 -0.0147 -2.3042
   80MOL   H18214560   3.752   5.000   1.475  0.5292 -3.2021  5.1085
   81MOL     C114561   0.891   2.267   3.632 -0.7770  0.6542 -0.1595
   81MOL     C214562   0.775   2.360   3.594  0.2224  0.0219  0.2959
   81MOL     C314563   0.674   2.356   3.714 -0.3211  0.3838  1.5773
   81MOL     O414564   0.648   2.458   3.775  0.2049 -0.4093 -0.1284
   81MOL     O514565   0.629   2.228   3.747 -0.5789 -0.1167 -0.0990
   81MOL     H614566   0.924   2.282   3.734 -0.6312  1.3177 -0.3016
   81MOL     H714567   0.868   2.165   3.598 -0.1447  0.6041 -0.4448
   81MOL     H814568   0.811   2.463   3.597  0.7390 -0.1338 -0.5565
   81MOL     H914569   0.670   2.157   3.698  0.7966 -0.4408  1.4839
   81MOL    H1014570   0.979   2.283   3.570  0.1965 -2.6951  0.2233
   81MOL    C1114571   0.723   2.311   3.459  0.3554 -0.7920  0.1371
   81MOL    C1214572   0.608   2.393   3.390  0.1632 -0.1486 -0.3898
   81MOL    C1314573   0.480   2.348   3.450  0.2291  0.4541 -0.5092
   81MOL    O1414574   0.444   2.231   3.442 -0.0830 -0.1173  0.4330
   81MOL    O1514575   0.406   2.442   3.516 -0.1149  0.3347 -0.4136
   81MOL    H1614576   0.691   2.207   3.464 -0.3081 -0.6170 -0.4103
   81MOL    H1714577   0.805   2.305   3.387  1.3966 -2.0494  1.4085
   81MOL    H1814578   0.617   2.499   3.415 -1.8001  0.2244 -1.2220
   81MOL    H1914579   0.435   2.531   3.512 -0.6633  0.5083 -0.5097
   81MOL    C2014580   0.619   2.374   3.241  0.5378 -0.1770  0.6980
   81MOL    C2114581   0.728   2.458   3.166 -0.3559 -0.0340 -0.3733
   81MOL    C2214582   0.684   2.604   3.150  0.4956  0.8424  0.0045
   81MOL    O2314583   0.605   2.657   3.224  0.3761  0.5630  1.3050
   81MOL    O2414584   0.736   2.665   3.040  0.7429  0.0489 -0.1771
   81MOL    H2514585   0.527   2.400   3.189 -1.4236 -1.6825  3.3133
   81MOL    H2614586   0.622   2.268   3.219 -1.0002  0.1993 -1.4905
   81MOL    H2714587   0.817   2.454   3.230  0.3611  4.1195 -0.9893
   81MOL    H2814588   0.710   2.754   3.026 -1.9892 -0.6384  0.2617
   81MOL    C2914589   0.776   2.396   3.028  0.3085 -0.0235 -0.0161
   81MOL    C3014590   0.927   2.369   3.018 -0.1815 -0.3407 -0.4022
   81MOL    C3114591   0.964   2.366   2.873  0.1591  0.3137 -0.0718
   81MOL    O3214592   1.045   2.443   2.832  0.2551  0.0255 -0.7993
   81MOL    O3314593   0.883   2.285   2.806 -0.8375  0.0187  0.0237
   81MOL    H3414594   0.742   2.453   2.942  1.0497  0.4861  0.0281
   81MOL    H3514595   0.717   2.305   3.016  1.0414 -0.3919 -0.9073
   81MOL    H3614596   0.984   2.445   3.071 -0.6450 -0.8940  0.9073
   81MOL    H3714597   0.916   2.290   2.717  1.5825  4.3095  1.0229
   81MOL    C3814598   0.947   2.233   3.088 -0.5638 -0.1564  0.0316
   81MOL    C3914599   1.080   2.222   3.174 -0.0243 -0.5600  0.0588
   81MOL    C4014600   1.206   2.190   3.092 -0.3749 -0.0433 -0.6065
   81MOL    O4114601   1.206   2.191   2.971 -0.5833 -0.3258  0.0685
   81MOL    O4214602   1.317   2.172   3.165  0.2545  0.4070 -0.1769
   81MOL    H4314603   0.947   2.152   3.015 -3.8355 -0.2204  0.0463
   81MOL    H4414604   0.864   2.208   3.155  0.5778 -2.8232  0.5095
   81MOL    H4514605   1.091   2.322   3.215 -2.5972 -0.0717 -0.3697
   81MOL    H4614606   1.387   2.141   3.108 -1.0415  0.3476 -1.7735
   81MOL    C4714607   1.065   2.130   3.298 -0.1239 -0.1799  0.2006
   81MOL    C4814608   1.085   1.978   3.287  0.8113  0.9063  0.4461
   81MOL    C4914609   1.003   1.906   3.179 -0.0708 -0.7845 -0.7270
   81MOL    O5014610   0.880   1.920   3.174 -0.4169  0.6140  0.2338
   81MOL    O5114611   1.078   1.824   3.096  0.1641 -0.0316 -0.1765
   81MOL    H5214612   0.974   2.161   3.350 -0.2258 -0.0096 -0.0784
   81MOL    H5314613   1.139   2.165   3.369 -0.0202  0.6611 -0.3141
   81MOL    H5414614   1.189   1.961   3.258  0.5522  0.7730 -0.3929
   81MOL    H5514615   1.018   1.781   3.038 -1.4284  0.6358  0.9595
   81MOL    C5614616   1.062   1.918   3.420 -0.0692  0.2237  0.0083
   81MOL    C5714617   1.192   1.852   3.485 -0.1194  0.8833 -0.2782
   81MOL    C5814618   1.306   1.946   3.486 -0.5739  0.5505 -0.3111
   81MOL    O5914619   1.397   1.952   3.400 -0.4113  0.4468  0.3305
   81MOL    O6014620   1.293   2.047   3.574  1.1974  0.0149 -0.3624
   81MOL    H6114621   0.976   1.852   3.411 -0.2042  0.4991 -0.7911
   81MOL    H6214622   1.038   2.001   3.487 -2.8122 -0.8545  0.4263
   81MOL    H6314623   1.164   1.815   3.584  0.3236  0.1952 -0.4107
   81MOL    H6414624   1.224   2.034   3.638  2.1350  1.0557  0.8664
   81MOL    C6514625   1.231   1.715   3.421 -0.3370 -0.5722 -0.6902
   81MOL    C6614626   1.116   1.610   3.397 -0.1755  0.8300 -0.2360
   81MOL    C6714627   1.024   1.584   3.515 -0.2680 -0.3108 -0.2368
   81MOL    O6814628   0.907   1.549   3.509 -0.0016 -0.1282  0.5356
   81MOL    O6914629   1.093   1.596   3.633 -0.6072  0.4371  0.4939
   81MOL    H7014630   1.308   1.670   3.484  0.6645 -0.3926 -1.7745
   81MOL    H7114631   1.282   1.731   3.326  0.0799 -0.2630 -0.4201
   81MOL    H7214632   1.053   1.660   3.324 -2.9316 -0.1367  1.4266
   81MOL    H7314633   1.029   1.569   3.697  0.7478  0.9896  2.0898
   81MOL    C7414634   1.180   1.479   3.339  0.3145  0.9137 -0.5076
   81MOL    C7514635   1.071   1.376   3.291 -0.0674  0.3297 -0.2280
   81MOL    C7614636   1.145   1.265   3.217 -0.2218 -0.2847 -0.4009
   81MOL    O7714637   1.158   1.249   3.098  0.1423  0.2803  0.3503
   81MOL    O7814638   1.208   1.189   3.305  0.5201  0.1981 -0.0181
   81MOL    H7914639   1.230   1.433   3.423 -2.3821  2.4294  2.0063
   81MOL    H8014640   1.258   1.501   3.265  0.3417 -0.9105 -1.0376
   81MOL    H8114641   1.029   1.336   3.383  0.0581  0.8442  0.0597
   81MOL    H8214642   1.245   1.118   3.253 -0.5040  1.0767 -2.0125
   81MOL    C8314643   0.966   1.440   3.201 -0.3165 -0.3018 -0.1582
   81MOL    C8414644   0.857   1.353   3.143 -0.7265  0.2147 -0.5074
   81MOL    C8514645   0.806   1.404   3.008  0.1406 -0.3095 -0.2311
   81MOL    O8614646   0.706   1.470   2.986 -0.1497 -0.4288 -0.4031
   81MOL    O8714647   0.900   1.369   2.913  0.2248  0.3690  0.2139
   81MOL    H8814648   1.016   1.505   3.129  1.7769  0.7010  2.1580
   81MOL    H8914649   0.918   1.506   3.274 -0.6468 -1.7415  0.9419
   81MOL    H9014650   0.896   1.253   3.122 -0.5239  0.4017 -1.0375
   81MOL    H9114651   0.888   1.421   2.834  0.8933 -0.6403 -0.5637
   81MOL    C9214652   0.737   1.326   3.237  0.1197 -0.5198  0.3255
   81MOL    C9314653   0.643   1.212   3.188  0.2669  0.2281 -1.1305
   81MOL    C9414654   0.507   1.264   3.142 -0.0802  0.8078 -0.1835
   81MOL    O9514655   0.463   1.372   3.166  0.4994 -0.5044  0.2492
   81MOL    O9614656   0.450   1.180   3.054 -0.2256 -0.4525 -0.1747
   81MOL    H9714657   0.681   1.415   3.267 -0.7956 -0.7136 -0.7637
   81MOL    H9814658   0.785   1.302   3.332 -2.0455  1.0218  1.8632
   81MOL    H9914659   0.691   1.181   3.095  3.0693  1.4228 -0.1386
   81MOL   H10014660   0.361   1.210   3.046 -0.8108 -2.3826 -1.2602
   81MOL   C10114661   0.636   1.092   3.284  0.0964 -0.3388  0.1233
   81MOL   C10214662   0.769   1.017   3.312 -0.1379  0.2797  0.4027
   81MOL   C10314663   0.845   0.975   3.185 -0.0984  0.0112 -0.4913
   81MOL   O10414664   0.957   1.012   3.154 -0.1725 -0.7577 -0.4012
   81MOL   O10514665   0.769   0.884   3.116 -0.2410  0.8029 -0.4124
   81MOL   H10614666   0.566   1.027   3.233 -0.3873  2.3097 -2.7911
   81MOL   H10714667   0.594   1.110   3.384  0.0783 -3.5386  0.7489
   81MOL   H10814668   0.832   1.081   3.373  0.0372  0.3343  0.1668
   81MOL   H10914669   0.826   0.851   3.048 -1.0327 -0.9216 -0.2562
   81MOL   C11014670   0.732   0.890   3.394 -0.6775  0.4863  0.6631
   81MOL   C11114671   0.846   0.811   3.460 -0.4715 -0.2027 -0.1071
   81MOL   C11214672   0.809   0.661   3.473  0.2737 -0.3505 -0.0026
   81MOL   O11314673   0.847   0.574   3.389 -0.2315  0.3278 -0.0710
   81MOL   O11414674   0.749   0.633   3.596  0.4002 -0.0967  0.5172
   81MOL   H11514675   0.673   0.817   3.339 -1.2152  0.7976  0.8207
   81MOL   H11614676   0.659   0.916   3.471 -1.6906 -0.9392  0.2082
   81MOL   H11714677   0.927   0.821   3.387 -0.4573 -2.2839 -0.4163
   81MOL   H11814678   0.718   0.545   3.610  0.1110 -0.2026 -0.7210
   81MOL   C11914679   0.897   0.876   3.590 -0.3931  0.4565  0.5042
   81MOL   C12014680   1.032   0.826   3.647  0.0222 -0.0801 -0.6925
   81MOL   C12114681   1.009   0.721   3.760  0.4291  0.0542  0.3932
   81MOL   O12214682   0.903   0.709   3.820 -0.7592  0.0651 -0.1912
   81MOL   O12314683   1.116   0.645   3.783 -0.0260 -0.0383 -0.1867
   81MOL   H12414684   0.818   0.867   3.664  0.1431 -0.6813  0.9510
   81MOL   H12514685   0.911   0.983   3.574 -0.9428  0.5666  0.7830
   81MOL   H12614686   1.085   0.770   3.570  1.9408  0.9873 -0.1995
   81MOL   H12714687   1.097   0.585   3.853  1.0654 -1.2227 -0.8958
   81MOL   C12814688   1.120   0.951   3.697  0.3540 -0.1125  0.7364
   81MOL   C12914689   1.194   1.033   3.581 -0.0682  0.6384 -0.3359
   81MOL   C13014690   1.257   0.934   3.480  0.2022 -0.2114  0.3099
   81MOL   O13114691   1.209   0.895   3.375  0.2595  0.8867  0.2807
   81MOL   O13214692   1.381   0.903   3.517 -0.1101  0.0956 -0.2281
   81MOL   H13314693   1.191   0.932   3.777 -0.0338  0.2958  1.1815
   81MOL   H13414694   1.064   1.025   3.754 -0.4529 -0.5339  0.5079
   81MOL   H13514695   1.122   1.089   3.521 -0.3273  0.2448 -0.3938
   81MOL   H13614696   1.415   0.843   3.452 -0.4180 -1.5860  1.1354
   81MOL   C13714697   1.300   1.140   3.634 -0.0088 -0.8006  0.9085
   81MOL   C13814698   1.249   1.252   3.727  0.0514  0.3332 -0.1297
   81MOL   C13914699   1.349   1.368   3.717 -0.5059  0.7356 -0.2021
   81MOL   O14014700   1.325   1.485   3.697 -0.9053  0.3408 -0.2001
   81MOL   O14114701   1.480   1.326   3.725 -0.2504  0.5185 -0.3433
   81MOL   H14214702   1.368   1.181   3.560 -1.9928  0.4524 -0.2802
   81MOL   H14314703   1.361   1.082   3.704  0.0820 -0.4024  1.1562
   81MOL   H14414704   1.155   1.292   3.690  0.0617  0.4938  0.0163
   81MOL   H14514705   1.527   1.405   3.702  2.1056 -0.4632  1.0300
   81MOL   C14614706   1.220   1.217   3.872 -0.3218  0.8406 -0.0799
   81MOL   C14714707   1.083   1.260   3.922 -0.3791  0.3448  0.2618
   81MOL   C14814708   1.070   1.407   3.939 -0.6751  0.2720  0.4852
   81MOL   O14914709   1.007   1.487   3.869  0.0697 -0.2861  0.2329
   81MOL   O15014710   1.162   1.446   4.037 -0.0057  0.9290  0.1333
   81MOL   H15114711   1.295   1.255   3.941 -0.3463  1.9291 -0.6420
   81MOL   H15214712   1.232   1.111   3.893 -1.4771  0.6341 -0.4279
   81MOL   H15314713   1.009   1.223   3.852 -1.3139  1.2513  0.7473
   81MOL   H15414714   1.172   1.536   4.063 -0.9431  1.1947 -0.4071
   81MOL   C15514715   1.039   1.184   4.047  0.3636  0.2992 -0.3593
   81MOL   C15614716   0.884   1.185   4.065  0.4472 -0.5092 -0.8405
   81MOL   C15714717   0.841   1.202   4.214 -0.0623 -0.8745 -0.0452
   81MOL   O15814718   0.753   1.130   4.261 -0.3440 -0.2448  0.3877
   81MOL   O15914719   0.901   1.303   4.278  0.2208  0.0329  0.0729
   81MOL   H16014720   1.094   1.217   4.135 -0.4483  0.1323  0.2268
   81MOL   H16114721   1.066   1.080   4.027 -1.7733 -0.6586  1.4431
   81MOL   H16214722   0.863   1.277   4.010  3.2567  1.7435  1.6633
   81MOL   H16314723   0.874   1.307   4.369 -1.3817 -0.4171 -0.3651
   81MOL   C16414724   0.813   1.081   3.982 -0.5970 -0.2482  0.1736
   81MOL   C16514725   0.673   1.118   3.947 -0.1009  0.4734  0.0530
   81MOL   C16614726   0.580   1.002   3.925  1.0743 -0.0561  0.1534
   81MOL   O16714727   0.618   0.886   3.913 -0.1446  0.3211 -0.4387
   81MOL   O16814728   0.451   1.041   3.895  0.2664  0.0914  0.1342
   81MOL   H16914729   0.818   0.985   4.033  0.0378 -0.8321 -0.9701
   81MOL   H17014730   0.875   1.045   3.900  1.6138 -0.1815  1.7649
   81MOL   H17114731   0.639   1.172   4.035  0.7660 -2.7500  2.4620
   81MOL   H17214732   0.413   0.958   3.869  0.3885 -0.4595  1.6755
   81MOL   C17314733   0.670   1.213   3.829  0.5416 -0.1177 -0.4782
   81MOL   C17414734   0.704   1.153   3.695  0.3054 -0.0527 -0.3671
   81MOL   C17514735   0.779   1.260   3.617 -0.7772  0.1592 -0.1025
   81MOL   O17614736   0.905   1.258   3.600 -0.7054 -0.1975  0.0063
   81MOL   O17714737   0.702   1.366   3.578  0.0765  0.1676  0.3097
   81MOL   H17814738   0.737   1.294   3.857  0.7494 -0.4918  0.1188
   81MOL   H17914739   0.573   1.258   3.808  0.0597 -0.6046  0.6637
   81MOL   H18014740   0.768   1.067   3.712  0.2692 -0.1221 -0.5763
   81MOL   H18114741   0.767   1.427   3.546  1.7321 -1.7420 -0.1378
   81MOL   H18214742   0.624   1.122   3.627 -1.7155  3.7163  0.1105
   82MOL     C114743   6.677   6.805   6.697  0.4938 -0.9827  0.5624
   82MOL     C214744   6.594   6.821   6.565  0.3674 -0.9836  0.0221
   82MOL     C314745   6.487   6.929   6.586  0.3530  0.3357 -0.1413
   82MOL     O414746   6.453   7.018   6.507  0.1433  0.0244  0.1128
   82MOL     O514747   6.431   6.910   6.708 -0.2221 -0.0400  0.6835
   82MOL     H614748   6.687   6.896   6.756 -0.4321  0.6945 -1.7854
   82MOL     H714749   6.636   6.731   6.765  2.3017  0.1646  3.0044
   82MOL     H814750   6.656   6.844   6.479 -0.4775  0.6839 -0.1482
   82MOL     H914751   6.350   6.960   6.710  0.7301  1.6533 -0.7654
   82MOL    H1014752   6.781   6.780   6.679  0.6048 -0.5685  0.6280
   82MOL    C1114753   6.514   6.692   6.523  0.0700  0.7545 -0.6140
   82MOL    C1214754   6.604   6.568   6.504 -0.0933  0.0240 -0.2119
   82MOL    C1314755   6.576   6.499   6.372 -0.1606  0.3999  0.0316
   82MOL    O1414756   6.464   6.468   6.337 -0.2390 -0.3361 -0.3728
   82MOL    O1514757   6.685   6.476   6.295  0.3943 -0.5678  0.1158
   82MOL    H1614758   6.486   6.711   6.419  1.0375 -1.3296 -1.2900
   82MOL    H1714759   6.423   6.665   6.577  0.0878  1.2113 -0.3580
   82MOL    H1814760   6.708   6.598   6.489 -0.1682  1.5413  1.9761
   82MOL    H1914761   6.659   6.434   6.214 -2.1182  0.1608  0.5097
   82MOL    C2014762   6.611   6.468   6.629 -0.6750  0.2403  0.1917
   82MOL    C2114763   6.709   6.352   6.606 -0.4994 -0.0059  0.1604
   82MOL    C2214764   6.674   6.254   6.713 -0.0234  0.1070 -0.2785
   82MOL    O2314765   6.736   6.247   6.819  0.1893 -0.1720  0.3731
   82MOL    O2414766   6.567   6.179   6.683 -0.3462  1.2459 -0.6269
   82MOL    H2514767   6.512   6.427   6.648 -0.3953 -0.8672 -0.6869
   82MOL    H2614768   6.636   6.512   6.725 -2.3064  1.4531  0.0881
   82MOL    H2714769   6.692   6.304   6.510  1.6715 -4.0652  1.7080
   82MOL    H2814770   6.547   6.114   6.748  0.1636  1.4957 -0.2204
   82MOL    C2914771   6.857   6.400   6.623 -0.7749  0.0572 -0.5826
   82MOL    C3014772   6.948   6.308   6.535  0.0059 -0.5278 -1.1078
   82MOL    C3114773   6.938   6.341   6.381  0.3805  0.3047 -0.1339
   82MOL    O3214774   6.878   6.269   6.299 -0.0452  0.1279  0.2580
   82MOL    O3314775   7.000   6.459   6.349 -0.5487  0.2795  0.9705
   82MOL    H3414776   6.897   6.401   6.724 -0.4248 -1.4623 -0.6956
   82MOL    H3514777   6.881   6.502   6.593  1.5564  0.1645  1.4998
   82MOL    H3614778   7.055   6.324   6.552  0.1364 -1.0000 -1.4661
   82MOL    H3714779   6.991   6.474   6.256  2.6784  0.1010  0.5592
   82MOL    C3814780   6.931   6.154   6.566 -0.0608  0.6702 -0.3360
   82MOL    C3914781   7.053   6.071   6.524 -0.0492  0.3202 -0.1890
   82MOL    C4014782   7.014   5.942   6.458  0.3251 -0.4812  0.4219
   82MOL    O4114783   7.012   5.927   6.333  0.6968 -0.3262  0.5215
   82MOL    O4214784   6.976   5.850   6.545  0.1871  0.4524  0.2243
   82MOL    H4314785   6.846   6.118   6.508  0.9207  0.4620 -1.6794
   82MOL    H4414786   6.913   6.136   6.672 -1.7769 -1.6146 -0.9865
   82MOL    H4514787   7.103   6.132   6.449  0.8027 -1.1992 -0.8890
   82MOL    H4614788   6.932   5.785   6.492  0.6344  1.2278 -1.1059
   82MOL    C4714789   7.156   6.037   6.639 -0.3569  0.6237  0.1785
   82MOL    C4814790   7.305   6.005   6.604  0.5302 -0.3933 -0.2505
   82MOL    C4914791   7.355   5.880   6.681 -0.2390 -0.1380 -0.1495
   82MOL    O5014792   7.408   5.782   6.632 -0.6086  0.2268  0.2507
   82MOL    O5114793   7.342   5.900   6.813 -0.1714  0.5274  0.1345
   82MOL    H5214794   7.114   5.960   6.704  0.0184  0.5013  0.2752
   82MOL    H5314795   7.151   6.120   6.710 -0.8879  1.8028 -1.2145
   82MOL    H5414796   7.302   5.980   6.498  0.5437  0.0597 -0.3597
   82MOL    H5514797   7.384   5.823   6.847  0.0400  0.7207  0.3079
   82MOL    C5614798   7.408   6.119   6.636  0.0390 -0.2674 -0.0339
   82MOL    C5714799   7.376   6.246   6.561 -0.8975 -0.3584  0.5042
   82MOL    C5814800   7.377   6.226   6.410  0.6181  0.3762  0.3008
   82MOL    O5914801   7.451   6.150   6.352 -0.5420  0.0282  0.0047
   82MOL    O6014802   7.277   6.290   6.347  0.0130 -0.2588  0.6371
   82MOL    H6114803   7.507   6.081   6.613  0.3882  1.1517 -0.9955
   82MOL    H6214804   7.395   6.150   6.740 -1.1214  0.8663 -0.4957
   82MOL    H6314805   7.274   6.272   6.587 -0.8371 -0.2983  0.6806
   82MOL    H6414806   7.276   6.280   6.254 -0.1204 -3.1018  0.9253
   82MOL    C6514807   7.477   6.360   6.603 -0.3919  0.2824  0.2989
   82MOL    C6614808   7.444   6.497   6.534 -0.5979  1.1468  0.3936
   82MOL    C6714809   7.558   6.589   6.574  0.2217  0.0063  0.7538
   82MOL    O6814810   7.618   6.586   6.681 -0.2316  0.0600  0.2327
   82MOL    O6914811   7.591   6.676   6.478 -0.3082  0.6518  0.2168
   82MOL    H7014812   7.579   6.323   6.593 -0.8510 -0.9819  0.1123
   82MOL    H7114813   7.467   6.378   6.710 -0.6024  0.0684  0.3170
   82MOL    H7214814   7.445   6.490   6.426  1.3859  0.1435  0.4656
   82MOL    H7314815   7.656   6.737   6.509 -0.9920  1.3981  0.2170
   82MOL    C7414816   7.297   6.553   6.565 -0.2738  0.3706  0.0274
   82MOL    C7514817   7.269   6.603   6.710  0.1608  0.7756  0.2141
   82MOL    C7614818   7.241   6.492   6.820  0.1935 -0.1442 -0.3028
   82MOL    O7714819   7.183   6.385   6.800  0.3713 -0.0692  0.1026
   82MOL    O7814820   7.292   6.541   6.935 -0.3786  0.1447 -0.3865
   82MOL    H7914821   7.224   6.476   6.539  0.4934  0.0223 -1.1462
   82MOL    H8014822   7.272   6.631   6.493 -0.5646 -0.7912 -1.1469
   82MOL    H8114823   7.360   6.650   6.747  0.6476  0.9012 -1.1070
   82MOL    H8214824   7.267   6.481   7.004  0.8639 -0.5311 -0.5093
   82MOL    C8314825   7.152   6.697   6.718  0.0309  0.3789 -0.2305
   82MOL    C8414826   7.204   6.838   6.757 -0.8955 -0.6785 -0.1120
   82MOL    C8514827   7.086   6.933   6.763 -0.7094  0.8419 -0.4651
   82MOL    O8614828   7.022   6.968   6.663  0.6326  0.1940 -0.2402
   82MOL    O8714829   7.053   6.973   6.888 -0.0665 -0.5253 -0.5941
   82MOL    H8814830   7.083   6.677   6.800  1.8301 -1.3311  0.9401
   82MOL    H8914831   7.084   6.699   6.633 -1.5584  1.6678  1.0603
   82MOL    H9014832   7.250   6.830   6.856  0.8788 -0.2898 -0.8858
   82MOL    H9114833   6.978   7.029   6.881  1.0914  1.5805  2.5629
   82MOL    C9214834   7.297   6.893   6.650  0.2354  0.0621  0.5936
   82MOL    C9314835   7.374   7.026   6.684 -0.6188  0.3444 -0.3955
   82MOL    C9414836   7.450   7.074   6.557  0.0868  0.8620 -0.4265
   82MOL    O9514837   7.550   7.013   6.519 -0.2086  0.6981  0.6677
   82MOL    O9614838   7.399   7.185   6.503 -0.3937 -0.4839  0.2274
   82MOL    H9714839   7.241   6.894   6.557  1.4471  0.6986 -0.1545
   82MOL    H9814840   7.370   6.818   6.621 -0.9339 -0.9745  0.3399
   82MOL    H9914841   7.300   7.106   6.689 -3.0011 -1.6487 -2.4165
   82MOL   H10014842   7.466   7.220   6.447 -0.5119 -0.5111  0.0667
   82MOL   C10114843   7.464   7.006   6.808  0.1314  0.0151 -0.0919
   82MOL   C10214844   7.400   7.064   6.939 -0.2776 -0.8678 -0.4947
   82MOL   C10314845   7.393   7.223   6.942  0.5771 -0.2472 -0.3939
   82MOL   O10414846   7.469   7.300   6.885 -0.5780 -0.3595 -0.9596
   82MOL   O10514847   7.275   7.265   7.002 -0.9118  0.2950  0.5818
   82MOL   H10614848   7.558   7.048   6.773 -0.7668  1.5822 -0.6755
   82MOL   H10714849   7.493   6.902   6.825  1.1200  0.3337  0.1765
   82MOL   H10814850   7.297   7.028   6.939  0.1360 -2.1488  2.2015
   82MOL   H10914851   7.262   7.352   6.970 -1.8706 -0.4234 -1.0223
   82MOL   C11014852   7.482   7.017   7.060 -0.3346  0.5830  0.4296
   82MOL   C11114853   7.455   6.870   7.115  0.6416  0.9823 -0.0915
   82MOL   C11214854   7.320   6.857   7.181  0.8995 -0.5249 -0.2152
   82MOL   O11314855   7.228   6.937   7.165 -0.3645 -0.3154  0.2955
   82MOL   O11414856   7.303   6.739   7.246 -0.4078  0.1593  0.4255
   82MOL   H11514857   7.464   7.080   7.147  0.5298  0.4187  0.7348
   82MOL   H11614858   7.588   7.036   7.041 -0.5796  0.3394 -1.2349
   82MOL   H11714859   7.447   6.805   7.028 -3.0066 -1.2214  1.7344
   82MOL   H11814860   7.214   6.734   7.276 -0.6728  1.1206 -0.1756
   82MOL   C11914861   7.578   6.828   7.204 -0.3384  0.0660  0.0106
   82MOL   C12014862   7.712   6.796   7.119  0.2088  0.3311  0.4151
   82MOL   C12114863   7.691   6.680   7.027  0.0743  0.7483  0.3607
   82MOL   O12214864   7.683   6.567   7.069 -0.2003 -0.0512 -0.1380
   82MOL   O12314865   7.665   6.713   6.898  0.6205 -0.5022 -0.0154
   82MOL   H12414866   7.547   6.749   7.272  0.6641 -1.1138 -0.8660
   82MOL   H12514867   7.598   6.920   7.257 -1.2357  0.1584  0.1954
   82MOL   H12614868   7.719   6.884   7.055  1.2708  1.2887  1.8239
   82MOL   H12714869   7.654   6.635   6.846  0.1543  1.2072 -2.5502
   82MOL   C12814870   7.831   6.761   7.199 -0.1180 -0.0553  0.6848
   82MOL   C12914871   0.043   6.867   7.283 -0.3423 -0.0121  0.0328
   82MOL   C13014872   0.095   6.987   7.208 -0.5096 -0.2336  0.7604
   82MOL   O13114873   0.212   7.003   7.175 -0.7185 -0.3765 -0.2808
   82MOL   O13214874   7.852   7.084   7.189  0.0590 -0.0916  0.5994
   82MOL   H13314875   0.053   6.707   7.142 -0.3043 -0.9170  1.2361
   82MOL   H13414876   7.791   6.688   7.270 -0.2101 -0.4730  0.2091
   82MOL   H13514877   7.819   6.917   7.341  0.0956  0.3731  0.2815
   82MOL   H13614878   0.040   7.158   7.149 -0.7689 -0.0993 -0.2831
   82MOL   C13714879   0.148   6.805   7.376  0.0392 -0.1400 -0.5175
   82MOL   C13814880   0.217   6.904   7.479 -0.0674 -0.4614  0.0899
   82MOL   C13914881   0.367   6.877   7.498 -0.2865  0.2007  0.6015
   82MOL   O14014882   0.456   6.950   7.466 -0.1536 -0.0754 -0.1457
   82MOL   O14114883   0.391   6.751   7.551 -0.2051 -0.5667  0.3490
   82MOL   H14214884   0.237   6.779   7.319  0.2219  2.5831 -1.5767
   82MOL   H14314885   0.110   6.725   7.439 -0.1133  0.8536  0.6945
   82MOL   H14414886   0.207   7.009   7.453 -1.0441 -0.4248  0.5861
   82MOL   H14514887   0.484   6.734   7.549 -0.1466 -0.0977 -1.8647
   82MOL   C14614888   0.146   6.899   7.615 -0.4276 -0.2149 -0.7373
   82MOL   C14714889   0.027   6.994   7.640  0.1169 -0.5068 -0.1202
   82MOL   C14814890   0.071   7.118   7.716  0.6013  0.1642  0.4962
   82MOL   O14914891   0.035   7.147   7.828  0.2248  0.5969  0.1491
   82MOL   O15014892   0.165   7.184   7.645 -0.0162  0.0184  0.3122
   82MOL   H15114893   0.218   6.927   7.692 -0.1890  2.0204 -1.7399
   82MOL   H15214894   0.124   6.795   7.640 -1.1541  0.3542  1.0267
   82MOL   H15314895   7.840   7.022   7.543 -0.7350  0.9902  0.6405
   82MOL   H15414896   0.182   7.269   7.684 -3.3381  0.7437  0.3103
   82MOL   C15514897   7.763   6.937   7.723  0.2546  0.4884  0.8877
   82MOL   C15614898   7.692   6.817   7.642  0.8042 -0.0654 -0.5828
   82MOL   C15714899   7.539   6.835   7.629  0.3202  0.0460 -0.3280
   82MOL   O15814900   7.478   6.822   7.518 -0.1874  0.6619  0.1319
   82MOL   O15914901   7.490   6.847   7.760 -0.0683 -0.2232  0.0988
   82MOL   H16014902   7.692   7.018   7.708 -3.0879 -2.2519  1.3000
   82MOL   H16114903   7.792   6.914   7.825 -1.1782 -0.5762  1.0716
   82MOL   H16214904   7.732   6.820   7.541  0.0358 -0.4591 -0.9026
   82MOL   H16314905   7.396   6.850   7.759 -0.0505  0.7658 -1.2443
   82MOL   C16414906   7.727   6.673   7.698 -0.6561 -0.1405 -0.4347
   82MOL   C16514907   7.691   6.560   7.604  0.2850 -0.5156 -0.9078
   82MOL   C16614908   7.556   6.491   7.633  0.1062 -0.2468 -0.1655
   82MOL   O16714909   7.454   6.500   7.561 -1.0360  0.0043  0.2679
   82MOL   O16814910   7.559   6.418   7.743 -0.5695 -0.1975  0.0421
   82MOL   H16914911   7.687   6.661   7.798  1.1852  0.0594  0.3458
   82MOL   H17014912   7.835   6.673   7.718 -0.5620 -0.2288 -0.9344
   82MOL   H17114913   7.677   6.603   7.505 -3.0117 -0.6612 -0.5662
   82MOL   H17214914   7.471   6.391   7.765 -0.2261 -1.3616  0.0331
   82MOL   C17314915   7.806   6.461   7.602 -0.2843 -1.1233  0.1976
   82MOL   C17414916   7.794   6.344   7.501  0.4548 -0.1670 -0.6548
   82MOL   C17514917   7.807   6.387   7.356  0.1425 -0.3838 -0.2555
   82MOL   O17614918   0.056   6.374   7.294 -0.3577  1.1646 -0.1488
   82MOL   O17714919   7.693   6.443   7.313  0.2671 -0.0727 -0.0333
   82MOL   H17814920   7.829   6.428   7.703  0.4714 -2.4813 -0.4042
   82MOL   H17914921   0.052   6.500   7.578 -0.3995  0.3771  2.0614
   82MOL   H18014922   0.016   6.267   7.522 -0.4166 -0.7338  0.4772
   82MOL   H18114923   7.705   6.454   7.219  0.1326  1.1930  0.0944
   82MOL   H18214924   7.706   6.282   7.514 -1.0427  2.3113  1.4635
   83MOL     C114925   3.898   1.200   5.122 -0.1658 -0.0431  0.3316
   83MOL     C214926   3.981   1.284   5.216 -0.6695 -0.4037  0.8554
   83MOL     C314927   4.128   1.237   5.230 -0.1593 -0.3796  0.3749
   83MOL     O414928   4.212   1.262   5.318  0.1875  0.0341  0.4356
   83MOL     O514929   4.163   1.164   5.113  0.3380 -0.0586 -0.5670
   83MOL     H614930   3.941   1.182   5.023  0.1281 -0.4053  0.5264
   83MOL     H714931   3.865   1.104   5.159 -0.3142  0.1776  0.7788
   83MOL     H814932   3.992   1.372   5.153  0.1322 -0.2259  1.2338
   83MOL     H914933   4.251   1.130   5.124 -0.9978 -3.8137 -0.4856
   83MOL    H1014934   3.808   1.261   5.108 -0.8409 -0.7324  1.6481
   83MOL    C1114935   3.910   1.292   5.354 -0.2205  0.1412 -0.2327
   83MOL    C1214936   3.917   1.163   5.443  1.0811  0.0383  0.4286
   83MOL    C1314937   3.805   1.062   5.399 -0.2265  0.1066  0.3208
   83MOL    O1414938   3.687   1.084   5.411 -0.0692 -0.3583 -0.1297
   83MOL    O1514939   3.848   0.946   5.352 -0.7645 -0.1729  0.3109
   83MOL    H1614940   3.805   1.315   5.336 -0.5350 -0.7260  0.4350
   83MOL    H1714941   3.954   1.369   5.418 -0.5019  0.8326 -0.8725
   83MOL    H1814942   4.009   1.110   5.420  2.0736  0.9856  2.1059
   83MOL    H1914943   3.776   0.885   5.345 -0.1695 -1.2308  2.8672
   83MOL    C2014944   3.905   1.192   5.594 -0.1964 -0.1586  0.2306
   83MOL    C2114945   3.920   1.077   5.686 -0.3856  0.7659  0.3974
   83MOL    C2214946   3.817   1.076   5.804  0.2283 -0.4063 -0.1050
   83MOL    O2314947   3.700   1.040   5.793  0.2777 -0.0735 -0.2376
   83MOL    O2414948   3.865   1.145   5.913 -0.2934 -0.8543  0.4326
   83MOL    H2514949   3.810   1.241   5.617 -0.8202 -0.9526 -0.6138
   83MOL    H2614950   3.980   1.267   5.621 -0.0831 -0.6690  1.3548
   83MOL    H2714951   3.895   0.988   5.628  1.4179  0.5771 -0.1298
   83MOL    H2814952   3.794   1.158   5.975 -0.0324  0.0909  0.5352
   83MOL    C2914953   4.066   1.072   5.738 -0.5088  0.2195 -0.7313
   83MOL    C3014954   4.189   1.067   5.643  0.1180  0.3433  0.5843
   83MOL    C3114955   4.179   0.945   5.552 -0.5611 -0.4057  0.8672
   83MOL    O3214956   4.097   0.857   5.563  0.5496 -0.0262  0.2511
   83MOL    O3314957   4.262   0.960   5.441 -0.0671  0.1987 -0.8516
   83MOL    H3414958   4.079   0.994   5.813  0.2905  1.3326  0.3034
   83MOL    H3514959   4.074   1.166   5.793 -0.3378 -0.6839  0.8058
   83MOL    H3614960   4.200   1.155   5.580  0.6012  0.1027  0.3276
   83MOL    H3714961   4.226   0.900   5.377  2.6690 -3.0482  0.5037
   83MOL    C3814962   4.326   1.069   5.729 -0.1834 -0.8045  0.1337
   83MOL    C3914963   4.357   0.942   5.815 -0.0617 -0.2277 -0.1863
   83MOL    C4014964   4.347   0.977   5.965 -0.0112  1.0783  0.4485
   83MOL    O4114965   4.445   0.991   6.031 -0.3010 -0.2038  0.2046
   83MOL    O4214966   4.230   1.008   6.011  0.1982 -0.3348 -0.5009
   83MOL    H4314967   4.314   1.156   5.793 -3.8606 -0.1360 -1.3397
   83MOL    H4414968   4.398   1.083   5.648 -2.0892 -0.4127 -1.5451
   83MOL    H4514969   4.276   0.872   5.797 -0.5225 -0.1981  1.7076
   83MOL    H4614970   4.237   1.033   6.102 -1.4539  1.4641 -0.8352
   83MOL    C4714971   4.489   0.874   5.768 -0.9769  0.3079 -0.4427
   83MOL    C4814972   4.507   0.725   5.809  0.5576 -0.0676 -0.6708
   83MOL    C4914973   4.644   0.682   5.750 -0.0141 -0.4055  0.1961
   83MOL    O5014974   4.659   0.674   5.628 -0.2878 -0.0697  0.1279
   83MOL    O5114975   4.732   0.644   5.850 -0.5560 -0.5556 -0.1211
   83MOL    H5214976   4.579   0.927   5.801 -0.7072  0.0033 -0.6857
   83MOL    H5314977   4.484   0.883   5.659  0.7063  0.4764 -0.5241
   83MOL    H5414978   4.498   0.708   5.916 -0.0349  1.5481 -0.4462
   83MOL    H5514979   4.813   0.606   5.818 -0.4904  1.2697 -2.1856
   83MOL    C5614980   4.396   0.634   5.733 -0.4410  0.2941  0.0172
   83MOL    C5714981   4.336   0.519   5.808 -1.8242 -0.8792  0.1249
   83MOL    C5814982   4.443   0.413   5.844  0.5916 -0.3652 -0.5989
   83MOL    O5914983   4.535   0.382   5.771 -0.1514  0.0076 -0.0233
   83MOL    O6014984   4.421   0.358   5.961  0.0687 -0.0703 -0.6980
   83MOL    H6114985   4.437   0.589   5.643 -0.0224  0.2569  0.2239
   83MOL    H6214986   4.323   0.697   5.683  0.7839  0.4009 -1.6785
   83MOL    H6314987   4.296   0.569   5.896  0.2220 -0.9080  1.1073
   83MOL    H6414988   4.489   0.295   5.982 -0.6296  0.2800  2.8342
   83MOL    C6514989   4.223   0.445   5.741  0.0957  0.0095 -1.1802
   83MOL    C6614990   4.249   0.388   5.593 -0.5217 -0.2955 -0.3764
   83MOL    C6714991   4.225   0.489   5.485 -0.2479 -0.5405  0.5780
   83MOL    O6814992   4.125   0.560   5.481 -0.1821 -0.0725 -0.7050
   83MOL    O6914993   4.329   0.509   5.397  0.1020 -0.6988 -0.6347
   83MOL    H7014994   4.141   0.516   5.730 -0.3604 -0.1324  1.0760
   83MOL    H7114995   4.181   0.369   5.806  1.4746  0.0324 -0.2361
   83MOL    H7214996   4.353   0.357   5.587 -0.3981 -0.7773  3.2145
   83MOL    H7314997   4.304   0.580   5.341  0.4913 -0.2541 -0.2442
   83MOL    C7414998   4.167   0.251   5.568 -0.1935 -1.2226 -0.0294
   83MOL    C7514999   4.243   0.127   5.526  0.1430  0.5683  0.5030
   83MOL    C7615000   4.346   0.078   5.636  0.4780 -0.0882 -0.9846
   83MOL    O7715001   4.465   0.104   5.635 -0.0020 -0.6569  0.4637
   83MOL    O7815002   4.301   7.851   5.729 -0.0157  0.3940 -0.3546
   83MOL    H7915003   4.088   0.273   5.495  0.0134 -2.0445 -0.5019
   83MOL    H8015004   4.114   0.219   5.658 -0.4858  0.8989  0.5913
   83MOL    H8115005   4.175   0.044   5.508  2.0106 -0.6782 -1.0365
   83MOL    H8215006   4.374   7.825   5.783 -0.1572 -0.3886 -0.5259
   83MOL    C8315007   4.318   0.150   5.390  0.3269  0.2072  0.2313
   83MOL    C8415008   4.396   0.031   5.328 -0.4325 -0.3085  0.1289
   83MOL    C8515009   4.548   0.069   5.321 -0.6165 -0.0753  0.2197
   83MOL    O8615010   4.632   0.014   5.392  0.3482  0.2904  0.5231
   83MOL    O8715011   4.572   0.178   5.241 -0.5042  0.2351 -0.2894
   83MOL    H8815012   4.378   0.241   5.402  1.3905 -0.0930 -2.5206
   83MOL    H8915013   4.237   0.179   5.323 -1.4806 -1.9487  1.4307
   83MOL    H9015014   4.386   7.811   5.408 -0.7026  0.6340  0.9596
   83MOL    H9115015   4.502   0.208   5.185 -0.4900  2.0967  0.6559
   83MOL    C9215016   4.342   7.833   5.195 -0.3062 -0.2215 -0.2628
   83MOL    C9315017   4.209   7.751   5.203 -0.1124  0.2914 -0.7912
   83MOL    C9415018   4.245   7.601   5.202 -0.5188 -0.1964 -0.1826
   83MOL    O9515019   4.208   7.532   5.111 -0.4487 -0.1457 -0.1707
   83MOL    O9615020   4.325   7.560   5.304  0.5764  0.7295 -0.1005
   83MOL    H9715021   4.411   7.765   5.146  0.1523 -0.5436  0.8394
   83MOL    H9815022   4.325   0.061   5.124 -1.8444  0.0925  0.4459
   83MOL    H9915023   4.154   7.770   5.295  0.0807  1.6024 -0.9380
   83MOL   H10015024   4.338   7.466   5.304 -1.4591  0.4209 -0.7516
   83MOL   C10115025   4.105   7.784   5.095  0.0047 -0.1675  0.3140
   83MOL   C10215026   4.045   0.067   5.106 -0.2055 -0.1434 -0.4000
   83MOL   C10315027   3.931   0.056   5.209  0.1705  0.1972  0.1920
   83MOL   O10415028   3.832   7.831   5.202 -0.2063 -0.2307  0.1682
   83MOL   O10515029   3.966   0.139   5.312 -0.1872 -0.7392  0.5701
   83MOL   H10615030   4.031   7.704   5.094 -0.7011  0.4769  1.0394
   83MOL   H10715031   4.160   7.772   5.002  1.4684  2.5617  0.8084
   83MOL   H10815032   4.119   0.139   5.140 -0.8652  0.5283 -0.3745
   83MOL   H10915033   3.909   0.122   5.385 -0.2733 -2.5041  0.1085
   83MOL   C11015034   3.988   0.114   4.980  0.2757 -0.6268  0.3068
   83MOL   C11115035   3.949   0.266   4.975 -0.3541 -0.7474  0.1448
   83MOL   C11215036   3.801   0.294   4.948  0.3875 -0.3150  0.2856
   83MOL   O11315037   3.762   0.352   4.851  0.4753 -0.4582 -0.2626
   83MOL   O11415038   3.725   0.241   5.043  0.2186  0.0974 -0.2383
   83MOL   H11515039   3.902   0.050   4.960  1.1408 -1.6555 -0.1662
   83MOL   H11615040   4.052   0.093   4.894  1.2396  0.5851  0.7075
   83MOL   H11715041   3.965   0.311   5.073  2.9448 -0.1040 -0.6395
   83MOL   H11815042   3.631   0.242   5.029  0.0095 -2.9600  0.5079
   83MOL   C11915043   4.046   0.340   4.877  0.0776 -0.2890  0.2143
   83MOL   C12015044   4.041   0.496   4.874  0.0634 -0.1858 -0.3704
   83MOL   C12115045   4.140   0.543   4.760  0.1805 -0.1680  0.5467
   83MOL   O12215046   4.220   0.638   4.769  0.3526  0.1328  0.1426
   83MOL   O12315047   4.116   0.473   4.646 -0.0427  0.1695  0.6793
   83MOL   H12415048   4.027   0.301   4.777  0.7075 -0.1201  0.0264
   83MOL   H12515049   4.148   0.317   4.906  0.5047 -0.8669 -1.6748
   83MOL   H12615050   3.944   0.527   4.835 -1.3269 -2.1440  1.4128
   83MOL   H12715051   4.171   0.518   4.583 -1.2138 -0.5645 -0.8932
   83MOL   C12815052   4.064   0.561   5.014  0.1961  1.3451  0.2434
   83MOL   C12915053   4.089   0.712   5.037 -0.4308 -0.1765  0.1639
   83MOL   C13015054   4.116   0.727   5.188 -0.2028  0.4027 -0.7164
   83MOL   O13115055   4.228   0.728   5.236  0.0676 -0.3037 -0.2813
   83MOL   O13215056   4.009   0.721   5.271  0.3486 -0.1680  0.4591
   83MOL   H13315057   4.138   0.500   5.067  0.2739 -0.4673 -1.8894
   83MOL   H13415058   3.979   0.536   5.078 -1.9295 -0.7277 -3.2407
   83MOL   H13515059   4.182   0.749   4.994 -0.5892  0.4306  0.3343
   83MOL   H13615060   4.032   0.717   5.362  0.6456  1.3927  0.4683
   83MOL   C13715061   3.983   0.817   4.993  0.5435  0.4023  0.1354
   83MOL   C13815062   3.975   0.858   4.843 -0.8087  0.4735 -0.5359
   83MOL   C13915063   4.098   0.929   4.785 -0.4602  0.0240  0.7582
   83MOL   O14015064   4.196   0.969   4.852  0.2183 -0.2228  0.2228
   83MOL   O14115065   4.089   0.956   4.653 -0.4775  0.2861  0.2152
   83MOL   H14215066   3.993   0.907   5.054  0.4548 -0.1179  0.9163
   83MOL   H14315067   3.886   0.775   5.023  1.9331 -2.3891  0.8898
   83MOL   H14415068   3.976   0.758   4.799  2.2426  0.4175 -0.4658
   83MOL   H14515069   4.157   1.013   4.621  1.5143 -0.6636  2.5406
   83MOL   C14615070   3.851   0.941   4.800 -0.1481  0.0753 -0.2747
   83MOL   C14715071   3.711   0.871   4.839  0.4032  0.1095 -0.2735
   83MOL   C14815072   3.681   0.740   4.760  0.0203  0.9108  0.3365
   83MOL   O14915073   3.634   0.634   4.802  0.3782 -0.1483  0.3765
   83MOL   O15015074   3.704   0.762   4.628 -0.7920 -0.0085 -0.6971
   83MOL   H15115075   3.855   0.970   4.695 -0.9193  2.7403  0.3933
   83MOL   H15215076   3.850   1.036   4.854 -1.3804  1.3599 -2.4727
   83MOL   H15315077   3.710   0.832   4.941  1.4829 -2.0694 -1.0791
   83MOL   H15415078   3.673   0.682   4.590 -1.5579  0.8296 -1.8817
   83MOL   C15515079   3.600   0.968   4.811  0.1801 -0.0101 -0.3173
   83MOL   C15615080   3.562   1.083   4.917 -0.7739  0.3275  0.0644
   83MOL   C15715081   3.528   1.013   5.049  0.0292 -0.5790  0.7411
   83MOL   O15815082   3.450   0.918   5.054 -0.1918 -0.2214  0.7531
   83MOL   O15915083   3.584   1.082   5.146 -0.3585 -0.1678 -0.0034
   83MOL   H16015084   3.507   0.913   4.795  0.8771 -1.7457  1.3991
   83MOL   H16115085   3.608   1.013   4.712  0.3617  1.5481  0.3960
   83MOL   H16215086   3.645   1.150   4.937 -0.1466 -0.3243 -0.3170
   83MOL   H16315087   3.563   1.050   5.232 -3.3907 -0.7900 -0.8873
   83MOL   C16415088   3.440   1.173   4.864 -0.7299 -0.0165 -0.4399
   83MOL   C16515089   3.401   1.289   4.955 -0.0320 -0.4785 -0.0542
   83MOL   C16615090   3.279   1.351   4.890 -0.0911  0.7001  0.4256
   83MOL   O16715091   3.289   1.434   4.795 -0.3820  0.4252 -0.1999
   83MOL   O16815092   3.162   1.300   4.938  0.1460  0.3585 -0.0368
   83MOL   H16915093   3.360   1.101   4.847 -0.5664  0.3185 -2.7484
   83MOL   H17015094   3.467   1.210   4.765 -1.5637 -0.0606 -0.6853
   83MOL   H17115095   3.370   1.258   5.055 -0.2483  1.2060  0.4120
   83MOL   H17215096   3.090   1.328   4.884 -0.2737  1.0376  0.8613
   83MOL   C17315097   3.509   1.395   4.968  0.0746  0.2326  0.3713
   83MOL   C17415098   3.486   1.500   5.077  0.3267 -0.4084 -0.4546
   83MOL   C17515099   3.618   1.574   5.117 -0.1277 -0.0255 -0.0225
   83MOL   O17615100   3.642   1.697   5.098  0.2498 -0.4850  0.6069
   83MOL   O17715101   3.715   1.493   5.169 -0.8575  0.9085 -0.1643
   83MOL   H17815102   3.529   1.437   4.869  1.5003 -0.7526  0.2357
   83MOL   H17915103   3.607   1.351   4.985  0.0919  0.6042  1.2596
   83MOL   H18015104   3.411   1.572   5.044  0.5118 -0.4839 -1.0464
   83MOL   H18115105   3.783   1.552   5.199  1.5212 -2.4281  1.4757
   83MOL   H18215106   3.443   1.452   5.165 -2.8036  1.8326 -0.6661
   84MOL     C115107   2.904   4.910   6.388  0.0891  1.1414 -0.8689
   84MOL     C215108   2.869   4.765   6.346 -0.0444 -0.9958  0.6399
   84MOL     C315109   2.986   4.672   6.376 -0.4779 -0.3930  0.0462
   84MOL     O415110   3.020   4.647   6.491  0.2448  0.3326 -0.1426
   84MOL     O515111   3.036   4.608   6.270  0.6220  0.2169 -0.4820
   84MOL     H615112   2.966   4.952   6.309  0.4013  2.8996  0.2756
   84MOL     H715113   2.819   4.978   6.390 -0.2365  0.7285 -0.8045
   84MOL     H815114   2.816   4.735   6.436  2.4615 -2.1984  1.7713
   84MOL     H915115   3.111   4.553   6.289  1.3871  1.2429 -0.4912
   84MOL    H1015116   2.950   4.915   6.488 -1.2468 -1.3233 -0.1167
   84MOL    C1115117   2.774   4.753   6.225  0.0759  0.7604  0.0207
   84MOL    C1215118   2.826   4.791   6.088 -0.2442  0.3757  0.0161
   84MOL    C1315119   2.827   4.947   6.063 -0.1954  0.8926 -0.1771
   84MOL    O1415120   2.754   5.019   6.122 -0.1715  0.0781  0.7885
   84MOL    O1515121   2.922   4.988   5.976  0.2659  0.3504 -0.0612
   84MOL    H1615122   2.679   4.803   6.245 -0.0648 -0.0542  1.4189
   84MOL    H1715123   2.756   4.646   6.219  1.4470  0.3067  2.9700
   84MOL    H1815124   2.929   4.757   6.087 -0.1520  0.6462  0.1965
   84MOL    H1915125   2.919   5.081   5.958  1.6561  0.3992 -0.1096
   84MOL    C2015126   2.733   4.723   5.979  0.1087 -0.1123  0.7540
   84MOL    C2115127   2.757   4.566   5.955  0.4372  0.8240  0.1883
   84MOL    C2215128   2.896   4.531   5.897 -0.2494 -0.3653 -0.7666
   84MOL    O2315129   2.917   4.525   5.779 -0.3760 -0.3979  0.4847
   84MOL    O2415130   2.989   4.498   5.999  0.3445 -0.2723 -0.1315
   84MOL    H2515131   2.736   4.779   5.885  0.7095 -1.0252  0.2220
   84MOL    H2615132   2.629   4.735   6.008  0.5944 -0.2891  2.6624
   84MOL    H2715133   2.753   4.510   6.048  1.2763 -0.0562 -0.2930
   84MOL    H2815134   2.948   4.491   6.084 -0.4729 -1.4202 -0.6018
   84MOL    C2915135   2.654   4.516   5.856 -0.0243  0.3334  0.4383
   84MOL    C3015136   2.512   4.486   5.903  0.0539 -0.4258  0.6300
   84MOL    C3115137   2.505   4.381   6.015  0.1298 -0.1592 -0.6390
   84MOL    O3215138   2.575   4.286   6.022  0.2462  0.1887  0.2000
   84MOL    O3315139   2.393   4.390   6.084 -0.0036 -0.6880  0.1006
   84MOL    H3415140   2.680   4.417   5.818 -2.6319 -1.4541  3.1148
   84MOL    H3515141   2.644   4.577   5.766 -1.1216 -1.7650 -0.9049
   84MOL    H3615142   2.469   4.581   5.937  0.1457 -1.3232  3.4476
   84MOL    H3715143   2.380   4.316   6.141 -0.7193 -0.5159  0.1674
   84MOL    C3815144   2.406   4.434   5.789  0.1165  0.0766  0.3535
   84MOL    C3915145   2.430   4.300   5.722 -0.6206 -0.2472  0.2628
   84MOL    C4015146   2.537   4.314   5.614 -0.1963 -0.1293 -0.2563
   84MOL    O4115147   2.616   4.225   5.597 -0.1212 -0.1935 -0.0731
   84MOL    O4215148   2.520   4.426   5.543 -0.7128  0.1761 -0.2692
   84MOL    H4315149   2.393   4.518   5.721  1.3194  1.1425  1.4112
   84MOL    H4415150   2.306   4.425   5.832 -0.6189 -3.0810 -1.8451
   84MOL    H4515151   2.457   4.234   5.804  0.5345  0.1830  0.2376
   84MOL    H4615152   2.564   4.423   5.459 -0.1403  2.6258 -0.1004
   84MOL    C4715153   2.305   4.237   5.647 -0.4287 -0.2425 -0.2620
   84MOL    C4815154   2.168   4.217   5.720 -0.1582  0.2788 -0.6999
   84MOL    C4915155   2.180   4.112   5.831  0.6706  0.2884  0.2492
   84MOL    O5015156   2.161   4.139   5.951  0.3803  0.4000  0.2774
   84MOL    O5115157   2.213   3.989   5.787  0.0160  0.3236 -0.2366
   84MOL    H5215158   2.343   4.144   5.604 -1.2157 -1.0641  0.7855
   84MOL    H5315159   2.280   4.300   5.562 -1.7474 -2.1669 -1.3388
   84MOL    H5415160   2.144   4.306   5.778 -2.4898  1.4304 -3.3299
   84MOL    H5515161   2.205   3.940   5.868  0.2245 -0.8127 -0.8876
   84MOL    C5615162   2.044   4.201   5.623 -1.2805 -0.4837 -0.0220
   84MOL    C5715163   1.915   4.243   5.694  0.1877  0.8577  0.5639
   84MOL    C5815164   1.807   4.141   5.695 -0.0230 -0.4052  0.2587
   84MOL    O5915165   1.718   4.135   5.607  0.2162 -0.5912  0.1407
   84MOL    O6015166   1.835   4.047   5.788  0.7794  0.3442  0.1407
   84MOL    H6115167   2.046   4.099   5.584 -1.1330  0.0665 -1.4716
   84MOL    H6215168   2.060   4.267   5.539  1.1552 -0.8072  0.1580
   84MOL    H6315169   1.945   4.244   5.799  0.0110 -0.3280  0.6357
   84MOL    H6415170   1.759   3.992   5.798  0.3136  0.9396 -0.0710
   84MOL    C6515171   1.852   4.377   5.651  0.2866 -0.4193  0.0095
   84MOL    C6615172   1.951   4.497   5.667 -0.6349  0.3837 -0.1017
   84MOL    C6715173   1.984   4.519   5.815 -0.1398 -0.2889  0.1179
   84MOL    O6815174   1.938   4.461   5.913 -0.3130 -0.1891  0.0994
   84MOL    O6915175   2.071   4.618   5.830 -0.8693  0.5852  0.1105
   84MOL    H7015176   1.756   4.396   5.699 -0.6781  2.8490 -3.0203
   84MOL    H7115177   1.824   4.366   5.546 -1.1993  0.0594  0.3416
   84MOL    H7215178   2.047   4.482   5.617 -0.6386 -0.3195  0.0933
   84MOL    H7315179   2.103   4.631   5.918  0.8604 -1.9952 -0.1035
   84MOL    C7415180   1.901   4.625   5.593 -0.0147 -0.1651 -0.1615
   84MOL    C7515181   1.794   4.711   5.669 -0.4524 -0.3006  0.6835
   84MOL    C7615182   1.655   4.647   5.683  0.4104  0.3029 -0.0236
   84MOL    O7715183   1.584   4.612   5.586 -0.0339 -0.1583  0.7079
   84MOL    O7815184   1.632   4.623   5.811 -0.9099 -0.2455 -0.2895
   84MOL    H7915185   1.858   4.596   5.497 -0.5621  1.5772 -0.4466
   84MOL    H8015186   1.986   4.688   5.566  0.2990 -0.3172  0.4647
   84MOL    H8115187   1.833   4.734   5.768 -0.0168  1.1613  0.1853
   84MOL    H8215188   1.553   4.573   5.828 -1.9110  1.4221  0.1068
   84MOL    C8315189   1.767   4.843   5.590  0.6282 -0.3816 -0.7426
   84MOL    C8415190   1.872   4.953   5.589 -0.3940  0.0565  0.6531
   84MOL    C8515191   1.900   5.018   5.724  0.1625 -0.4963 -0.0303
   84MOL    O8615192   1.859   5.120   5.768 -0.7400  0.3572 -0.3203
   84MOL    O8715193   2.000   4.944   5.789 -0.4666  0.6717 -0.1508
   84MOL    H8815194   1.670   4.885   5.616  0.9927  0.3251 -0.5194
   84MOL    H8915195   1.758   4.817   5.485 -1.3282  0.1608 -0.7122
   84MOL    H9015196   1.962   4.907   5.548 -1.5685 -1.0260 -0.7613
   84MOL    H9115197   2.012   4.976   5.877 -0.8712 -1.1659  0.5719
   84MOL    C9215198   1.843   5.058   5.475  1.2961  0.3971 -0.3362
   84MOL    C9315199   1.931   5.180   5.447  0.3860  0.2674 -0.7126
   84MOL    C9415200   1.860   5.280   5.357 -0.0457  0.2626 -0.3691
   84MOL    O9515201   1.893   5.307   5.243  0.0934  0.2780 -0.2945
   84MOL    O9615202   1.744   5.336   5.411  0.2389  0.2907  0.1033
   84MOL    H9715203   1.749   5.092   5.519  2.1358 -0.7586  2.4431
   84MOL    H9815204   1.828   5.015   5.375  1.4197  0.6352 -0.4564
   84MOL    H9915205   1.945   5.229   5.544 -0.1891 -2.5169  0.8234
   84MOL   H10015206   1.703   5.400   5.354  1.1568  0.2572 -0.6109
   84MOL   C10115207   2.080   5.135   5.414 -0.2323 -0.0274 -0.7080
   84MOL   C10215208   2.178   5.231   5.485  0.3178  0.1051  1.1324
   84MOL   C10315209   2.312   5.238   5.405 -0.0489 -0.4767 -0.0430
   84MOL   O10415210   2.413   5.239   5.467 -0.6177  0.1337 -0.2476
   84MOL   O10515211   2.309   5.268   5.269  0.1887  0.4325 -0.2390
   84MOL   H10615212   2.098   5.140   5.307  0.5684 -1.2765 -0.6349
   84MOL   H10715213   2.086   5.030   5.440  0.3115  0.3077  0.5976
   84MOL   H10815214   2.146   5.334   5.472  2.5162  0.5573 -0.9894
   84MOL   H10915215   2.389   5.279   5.220  2.0448 -1.6431  2.2332
   84MOL   C11015216   2.193   5.191   5.631  0.2104  0.0580 -0.5685
   84MOL   C11115217   2.236   5.301   5.727  0.3105  0.7182 -0.0198
   84MOL   C11215218   2.285   5.236   5.862 -0.2095 -0.5447  0.2504
   84MOL   O11315219   2.271   5.120   5.894 -0.6484 -0.1935  0.2947
   84MOL   O11415220   2.355   5.326   5.935  0.4187 -0.1538 -0.4826
   84MOL   H11515221   2.262   5.106   5.629 -0.1026 -0.1826 -1.2337
   84MOL   H11615222   2.102   5.146   5.671 -0.0034 -0.5484 -1.7131
   84MOL   H11715223   2.318   5.359   5.685  0.3189  0.3821 -0.4631
   84MOL   H11815224   2.382   5.285   6.016  1.1215  1.3349  0.0679
   84MOL   C11915225   2.129   5.407   5.734  0.0247 -0.1702 -0.0905
   84MOL   C12015226   2.170   5.545   5.765  0.2860 -0.2474 -0.1174
   84MOL   C12115227   2.159   5.582   5.910  0.1902  0.4453 -0.1774
   84MOL   O12215228   2.054   5.563   5.973 -0.1365  0.0133 -0.0235
   84MOL   O12315229   2.266   5.650   5.957 -0.9945 -0.1877  0.4328
   84MOL   H12415230   2.055   5.367   5.802 -0.1301  0.7730  0.3027
   84MOL   H12515231   2.075   5.420   5.639  0.4289  1.9581 -0.0684
   84MOL   H12615232   2.276   5.555   5.743  0.7301  0.8297  2.2623
   84MOL   H12715233   2.235   5.693   6.035  0.5647 -0.8175  1.4272
   84MOL   C12815234   2.097   5.647   5.680 -0.3002 -0.4625 -0.2454
   84MOL   C12915235   2.129   5.657   5.527 -0.0739  0.0270 -0.1389
   84MOL   C13015236   2.230   5.763   5.483  0.0340 -0.2024  0.2325
   84MOL   O13115237   2.222   5.880   5.514 -0.0940 -0.0789 -0.9155
   84MOL   O13215238   2.304   5.717   5.383  0.2042 -0.3401  0.2697
   84MOL   H13315239   2.094   5.747   5.724 -0.0444 -1.3773  1.9113
   84MOL   H13415240   1.993   5.618   5.694  0.3518 -0.8362  4.8847
   84MOL   H13515241   2.189   5.568   5.512  0.3836  0.4357 -0.7669
   84MOL   H13615242   2.359   5.783   5.343 -0.7008 -0.7092 -1.6476
   84MOL   C13715243   2.008   5.654   5.431 -0.3398 -0.3805 -0.1781
   84MOL   C13815244   1.926   5.783   5.407  0.3746  0.9899 -0.3489
   84MOL   C13915245   1.877   5.847   5.534  0.3983 -0.1632 -0.0940
   84MOL   O14015246   1.775   5.821   5.593 -0.5233  0.7148  0.5602
   84MOL   O14115247   1.961   5.941   5.585  0.2648 -0.3027  0.1141
   84MOL   H14215248   1.946   5.567   5.452 -0.6343  0.3776  2.2310
   84MOL   H14315249   2.053   5.627   5.335  1.9308 -1.1016  1.0543
   84MOL   H14415250   1.995   5.854   5.360 -0.3505  0.6299 -1.9991
   84MOL   H14515251   2.044   5.958   5.541  1.2088  0.3025  2.0739
   84MOL   C14615252   1.809   5.750   5.309  0.1633  0.2362 -0.5069
   84MOL   C14715253   1.790   5.878   5.219  1.0918  0.2732 -0.4121
   84MOL   C14815254   1.651   5.934   5.241  0.1875 -0.1140 -0.2688
   84MOL   O14915255   1.551   5.866   5.227 -0.3253 -0.1781 -0.0890
   84MOL   O15015256   1.651   6.066   5.271 -0.2720  0.5256 -0.4078
   84MOL   H15115257   1.712   5.725   5.353  0.9494 -1.9008  0.0765
   84MOL   H15215258   1.832   5.661   5.249 -1.0339  1.6817 -3.2144
   84MOL   H15315259   1.849   5.968   5.239  1.4109 -0.0764  0.2198
   84MOL   H15415260   1.569   6.105   5.299  0.4530  0.6122  1.7026
   84MOL   C15515261   1.805   5.865   5.061 -0.1624  0.4010  0.5445
   84MOL   C15615262   1.952   5.849   5.011  0.0479  0.5575  0.1785
   84MOL   C15715263   2.030   5.979   5.031 -0.4890 -0.0031 -0.0767
   84MOL   O15815264   2.021   6.081   4.963 -0.0448 -0.2002  0.3325
   84MOL   O15915265   2.142   5.948   5.106 -0.3889 -0.2636 -0.2798
   84MOL   H16015266   1.757   5.949   5.010  0.0633  0.0588 -0.2483
   84MOL   H16115267   1.740   5.783   5.030 -1.1762  0.2009  3.1006
   84MOL   H16215268   2.002   5.770   5.066  0.9206  0.6103 -0.5301
   84MOL   H16315269   2.199   6.024   5.105 -1.3092  0.4841  2.0612
   84MOL   C16415270   1.937   5.809   4.862  0.3253  0.0048  0.3225
   84MOL   C16515271   2.065   5.768   4.799 -0.0687  0.3247  0.7674
   84MOL   C16615272   2.041   5.747   4.645  0.5110  0.2186 -0.2356
   84MOL   O16715273   2.091   5.817   4.559 -0.0003 -0.3384 -0.3730
   84MOL   O16815274   1.952   5.644   4.628 -0.6772  0.2020 -0.0834
   84MOL   H16915275   1.892   5.884   4.797 -0.5407 -0.9125 -0.1624
   84MOL   H17015276   1.878   5.719   4.845  1.4071 -0.2203 -2.5883
   84MOL   H17115277   2.127   5.857   4.799 -0.5274  0.6958 -2.4026
   84MOL   H17215278   1.950   5.606   4.541 -2.2367  0.8103 -0.3259
   84MOL   C17315279   2.143   5.655   4.873 -1.2091 -0.3197  0.0905
   84MOL   C17415280   2.052   5.535   4.901 -0.1510 -0.2808 -0.0651
   84MOL   C17515281   2.112   5.419   4.983 -0.0794 -0.4557  0.0471
   84MOL   O17615282   2.134   5.303   4.941 -0.3015  0.2528 -0.0804
   84MOL   O17715283   2.141   5.467   5.103 -0.2902 -0.1080  0.5537
   84MOL   H17815284   2.200   5.695   4.957 -1.2653 -0.1109  0.0290
   84MOL   H17915285   2.224   5.610   4.816  0.8448  1.1941  1.7421
   84MOL   H18015286   1.967   5.566   4.961 -1.2246 -2.1682 -0.5524
   84MOL   H18115287   2.164   5.398   5.163  2.3423  1.0349  0.9127
   84MOL   H18215288   2.007   5.499   4.808  0.6415 -0.4577 -0.3790
   85MOL     C115289   3.178   1.919   7.141 -0.1177 -0.1008 -0.0735
   85MOL     C215290   3.296   1.842   7.199 -0.1762 -0.3784 -0.6400
   85MOL     C315291   3.297   1.708   7.133 -0.2157 -0.1801 -0.0126
   85MOL     O415292   3.201   1.645   7.096 -0.3257  0.1868 -0.4025
   85MOL     O515293   3.425   1.662   7.135  0.5614  0.3887  0.5430
   85MOL     H615294   3.194   1.926   7.034  1.2495  1.5640  0.2212
   85MOL     H715295   3.080   1.871   7.147  0.6104 -1.7453 -1.1501
   85MOL     H815296   3.387   1.897   7.177 -0.4300  0.2427 -0.1670
   85MOL     H915297   3.417   1.577   7.095  0.2403  0.7548 -0.1880
   85MOL    H1015298   3.174   2.019   7.185  1.9609 -0.2565  0.4855
   85MOL    C1115299   3.287   1.829   7.354  0.0708 -0.0125 -0.5857
   85MOL    C1215300   3.426   1.805   7.410  0.7881  0.2931 -0.1785
   85MOL    C1315301   3.422   1.687   7.501  0.7729 -0.4562 -0.7211
   85MOL    O1415302   3.321   1.645   7.558  0.0207  0.1561  0.3976
   85MOL    O1515303   3.542   1.631   7.514 -0.1690  0.2471 -0.7236
   85MOL    H1615304   3.207   1.757   7.372 -0.8549  0.5831 -2.1529
   85MOL    H1715305   3.241   1.918   7.399  1.2927  1.8155 -2.8272
   85MOL    H1815306   3.490   1.766   7.331 -0.5983 -0.9691 -0.6901
   85MOL    H1915307   3.537   1.578   7.593  2.2330 -0.7121 -1.1650
   85MOL    C2015308   3.481   1.936   7.468 -0.8046  0.4326  0.0364
   85MOL    C2115309   3.633   1.966   7.443 -0.0502  0.2255  0.1668
   85MOL    C2215310   3.695   2.042   7.551 -0.0978  0.2209  0.3912
   85MOL    O2315311   3.816   2.030   7.576 -0.1503 -0.2257  0.0341
   85MOL    O2415312   3.616   2.148   7.595 -0.2672  0.2263 -0.0622
   85MOL    H2515313   3.454   1.928   7.573  1.6449 -1.6535  0.5442
   85MOL    H2615314   3.424   2.026   7.446 -1.6561 -0.4901 -1.6679
   85MOL    H2715315   3.674   1.865   7.441 -0.3750  0.0876  0.4038
   85MOL    H2815316   3.644   2.196   7.671  0.2168  0.5154 -0.4184
   85MOL    C2915317   3.665   2.035   7.306 -0.1377  0.3546  0.3767
   85MOL    C3015318   3.777   1.977   7.220 -0.5207  0.0201  0.6638
   85MOL    C3115319   3.853   2.087   7.142 -0.1917 -0.4083 -0.0463
   85MOL    O3215320   3.863   2.089   7.023  0.2671  0.2337 -0.4248
   85MOL    O3315321   3.917   2.172   7.225  0.0505 -0.0304  0.0010
   85MOL    H3415322   3.673   2.143   7.317 -1.4084  0.2818  2.0862
   85MOL    H3515323   3.574   2.029   7.246  0.7073  0.2786 -0.9380
   85MOL    H3615324   3.851   1.946   7.294 -0.8842 -1.9033  0.2528
   85MOL    H3715325   3.953   2.249   7.184  1.4729 -0.5383  0.2539
   85MOL    C3815326   3.741   1.861   7.127  0.3081 -0.3143 -0.0662
   85MOL    C3915327   3.842   1.774   7.050 -0.0300 -0.7796  0.2665
   85MOL    C4015328   3.767   1.684   6.955 -0.1469  0.3308 -1.2331
   85MOL    O4115329   3.724   1.581   6.992 -0.0647 -0.0379 -0.3003
   85MOL    O4215330   3.741   1.738   6.833 -0.0166  0.2548 -0.6413
   85MOL    H4315331   3.664   1.900   7.060  1.7828 -1.4674 -2.4893
   85MOL    H4415332   3.683   1.789   7.185 -1.5035  0.2988 -1.0653
   85MOL    H4515333   3.892   1.828   6.970 -0.2994  0.3136  0.8368
   85MOL    H4615334   3.693   1.673   6.784 -0.3785 -1.2088  1.5858
   85MOL    C4715335   3.951   1.703   7.137  0.0525  0.1228 -0.1530
   85MOL    C4815336   4.046   1.596   7.074 -0.4809  0.1398  0.6633
   85MOL    C4915337   4.137   1.538   7.186  0.3497  0.1610 -0.2870
   85MOL    O5015338   4.185   1.613   7.269 -0.6802  0.4694  0.1354
   85MOL    O5115339   4.154   1.401   7.186  0.2895 -0.0408 -0.0482
   85MOL    H5215340   3.901   1.677   7.231 -2.1751  0.3767 -1.2222
   85MOL    H5315341   4.005   1.789   7.177 -0.3003 -0.0024  0.5996
   85MOL    H5415342   3.994   1.513   7.026  2.2711 -1.1239 -0.2403
   85MOL    H5515343   4.218   1.365   7.245  1.3067 -1.8800 -2.2129
   85MOL    C5615344   4.127   1.659   6.957 -0.3119  0.8055 -0.5295
   85MOL    C5715345   4.231   1.563   6.888 -0.4012 -0.2084 -0.2346
   85MOL    C5815346   4.371   1.601   6.912 -0.5037  0.8368 -0.3775
   85MOL    O5915347   4.439   1.653   6.828 -0.0898 -0.1202 -0.1305
   85MOL    O6015348   4.414   1.561   7.037  0.4415 -0.0008  0.3513
   85MOL    H6115349   4.179   1.744   7.000 -0.4366  1.0118 -0.7820
   85MOL    H6215350   4.069   1.711   6.881  0.3392  0.4787 -1.2590
   85MOL    H6315351   4.233   1.467   6.939  1.2562 -0.0927 -0.0651
   85MOL    H6415352   4.508   1.556   7.032  0.4446  0.3276  0.0858
   85MOL    C6515353   4.209   1.542   6.732 -1.1950  0.2296 -0.2005
   85MOL    C6615354   4.065   1.502   6.690  0.6593 -0.2583 -0.2901
   85MOL    C6715355   4.013   1.393   6.779  0.5385 -0.6922  0.2734
   85MOL    O6815356   4.086   1.311   6.836  0.3501  0.3757  0.8925
   85MOL    O6915357   3.878   1.384   6.783 -0.1105  0.6486 -0.2479
   85MOL    H7015358   4.286   1.481   6.686 -3.4312 -0.3800 -3.3076
   85MOL    H7115359   4.228   1.635   6.679  0.1917  0.0386 -0.0600
   85MOL    H7215360   4.006   1.585   6.728 -0.3899 -1.3737  0.5256
   85MOL    H7315361   3.841   1.320   6.842  2.2246  0.0963  0.6674
   85MOL    C7415362   4.039   1.481   6.537  0.0095  0.3928  0.2507
   85MOL    C7515363   4.006   1.613   6.457  0.6141  0.3857  0.7609
   85MOL    C7615364   3.868   1.674   6.487 -0.0283  0.1811 -0.1273
   85MOL    O7715365   3.773   1.603   6.524 -0.2602 -0.0104  0.3584
   85MOL    O7815366   3.861   1.804   6.464  0.0808 -0.4673 -0.2808
   85MOL    H7915367   3.965   1.403   6.521  1.0078 -0.4958 -0.0389
   85MOL    H8015368   4.132   1.438   6.501  0.0853  0.4122  0.4254
   85MOL    H8115369   4.077   1.690   6.487  0.4911  0.2390  1.4400
   85MOL    H8215370   3.771   1.831   6.462  0.1191 -0.3351 -0.1888
   85MOL    C8315371   4.017   1.599   6.300 -0.0188  1.0018 -0.3644
   85MOL    C8415372   4.161   1.597   6.239 -0.4479  0.6250 -0.1994
   85MOL    C8515373   4.246   1.719   6.275  0.3416 -0.2470 -0.3238
   85MOL    O8615374   4.203   1.838   6.296 -0.1957 -0.2199  0.1155
   85MOL    O8715375   4.378   1.691   6.275  0.1832  0.4003  0.1757
   85MOL    H8815376   3.959   1.675   6.247 -0.7879  1.8685  1.6722
   85MOL    H8915377   3.976   1.501   6.275 -1.9604  1.4849  0.7697
   85MOL    H9015378   4.210   1.511   6.283  0.0900  0.4243 -1.1943
   85MOL    H9115379   4.427   1.772   6.273  3.8099 -1.6382  1.1109
   85MOL    C9215380   4.162   1.602   6.086 -0.0421 -0.7700  0.3671
   85MOL    C9315381   4.086   1.497   6.000  0.2796  0.5630 -0.4103
   85MOL    C9415382   4.119   1.355   6.043 -0.5652 -0.3407  0.5241
   85MOL    O9515383   4.065   1.283   6.133  0.0292  0.8626  0.0022
   85MOL    O9615384   4.212   1.300   5.975 -0.6819  0.4737 -0.0634
   85MOL    H9715385   4.265   1.613   6.053 -0.8385  1.8980 -1.3649
   85MOL    H9815386   4.126   1.701   6.056  1.0919 -0.0281  1.4213
   85MOL    H9915387   3.979   1.509   6.013  0.3327  0.1198  0.5176
   85MOL   H10015388   4.225   1.213   6.011  1.3132  0.7432 -0.0412
   85MOL   C10115389   4.121   1.528   5.853  0.1223  0.1541  0.7674
   85MOL   C10215390   4.038   1.655   5.800 -0.7061  0.7880 -0.2283
   85MOL   C10315391   3.896   1.604   5.753  0.8525 -0.1492  0.5978
   85MOL   O10415392   3.861   1.603   5.636 -0.1138  0.0992 -0.8157
   85MOL   O10515393   3.807   1.592   5.855  0.1101 -0.3388  0.4318
   85MOL   H10615394   4.095   1.450   5.781 -0.0855  0.3626  0.6164
   85MOL   H10715395   4.230   1.530   5.847  0.1637 -0.0509  1.4506
   85MOL   H10815396   4.014   1.719   5.885  3.6935  0.3134  1.5083
   85MOL   H10915397   3.727   1.586   5.804  1.7447 -0.2689 -2.1857
   85MOL   C11015398   4.108   1.730   5.685  0.1734  0.1157  0.2558
   85MOL   C11115399   4.253   1.786   5.711 -0.0402  0.3113  0.1471
   85MOL   C11215400   4.269   1.858   5.838 -0.2709  0.1897 -0.2114
   85MOL   O11315401   4.362   1.825   5.910  0.5225  1.0310  0.0590
   85MOL   O11415402   4.173   1.949   5.877  0.3864 -0.1551  0.2974
   85MOL   H11515403   4.047   1.815   5.651  1.0947  0.6417 -0.0936
   85MOL   H11615404   4.116   1.661   5.601  2.1298  0.1872  0.3597
   85MOL   H11715405   4.314   1.697   5.718 -0.0935  0.1941 -0.8544
   85MOL   H11815406   4.109   1.971   5.810  0.4895 -0.5188  0.0769
   85MOL   C11915407   4.309   1.871   5.593 -0.0003  0.4141  0.4469
   85MOL   C12015408   4.462   1.858   5.558  0.6110 -0.1053  0.1513
   85MOL   C12115409   4.498   1.971   5.466  0.3776  0.5202  0.2967
   85MOL   O12215410   4.414   2.045   5.415 -0.6703 -0.5408  0.0388
   85MOL   O12315411   4.631   1.996   5.452  0.4148  0.4594  0.2597
   85MOL   H12415412   4.287   1.977   5.611 -1.4072  0.1512  0.3173
   85MOL   H12515413   4.248   1.849   5.505 -0.4021 -2.4562  1.3989
   85MOL   H12615414   4.514   1.896   5.646  1.8217  0.8321 -0.9366
   85MOL   H12715415   4.645   2.075   5.401  0.9003  0.7393  0.8248
   85MOL   C12815416   4.528   1.727   5.514  0.3124 -0.1868 -0.8284
   85MOL   C12915417   4.623   1.669   5.615  0.0858 -0.2479 -0.2458
   85MOL   C13015418   4.752   1.748   5.632  0.3954 -0.6381 -1.0135
   85MOL   O13115419   4.849   1.730   5.566  0.2575  0.1765 -0.2618
   85MOL   O13215420   4.748   1.848   5.719 -0.2977  0.1736 -0.4459
   85MOL   H13315421   4.575   1.745   5.417 -1.6003  0.7556 -1.6065
   85MOL   H13415422   4.454   1.651   5.487  2.3383 -2.3547 -0.4288
   85MOL   H13515423   4.563   1.671   5.706 -0.1806 -2.2349 -0.3403
   85MOL   H13615424   4.828   1.898   5.715  0.3059 -0.7100  0.2579
   85MOL   C13715425   4.654   1.520   5.577 -0.0977  0.6330 -0.8452
   85MOL   C13815426   4.545   1.422   5.635  0.4746 -0.1520 -0.1694
   85MOL   C13915427   4.421   1.380   5.554  0.1933 -0.0073  0.2187
   85MOL   O14015428   4.309   1.391   5.602  0.4229 -0.3891  0.5156
   85MOL   O14115429   4.444   1.329   5.437 -0.3006 -0.1410 -1.0897
   85MOL   H14215430   4.755   1.498   5.612 -0.4427  0.3029 -0.0208
   85MOL   H14315431   4.657   1.501   5.470  1.2244 -0.9288 -0.5513
   85MOL   H14415432   4.600   1.328   5.637 -1.1010 -1.0836  1.7127
   85MOL   H14515433   4.360   1.314   5.397 -1.3406  2.4139 -0.0403
   85MOL   C14615434   4.515   1.437   5.791 -0.0388 -0.1327 -0.1127
   85MOL   C14715435   4.637   1.397   5.882 -0.4562 -0.0105 -0.5471
   85MOL   C14815436   4.586   1.300   5.983 -0.0129 -0.0561 -0.2882
   85MOL   O14915437   4.517   1.337   6.076 -0.0798  0.1652  0.4254
   85MOL   O15015438   4.628   1.176   5.946 -0.0776  0.8345  0.8117
   85MOL   H15115439   4.428   1.373   5.808  0.9611 -1.7566 -0.9075
   85MOL   H15215440   4.471   1.532   5.821 -1.0248 -0.9726  1.1498
   85MOL   H15315441   4.704   1.341   5.817  0.6295 -1.1172  1.4672
   85MOL   H15415442   4.612   1.100   6.000  0.3672 -0.9958 -1.5453
   85MOL   C15515443   4.707   1.526   5.940 -0.0008 -0.0962 -0.8106
   85MOL   C15615444   4.830   1.508   6.032 -0.0722 -0.5449  0.1953
   85MOL   C15715445   4.795   1.475   6.181 -0.4799 -0.0080  0.1325
   85MOL   O15815446   4.852   1.385   6.237 -0.1776  0.2863 -0.1597
   85MOL   O15915447   4.712   1.562   6.239 -0.1083  0.1260 -0.1014
   85MOL   H16015448   4.635   1.577   6.003  0.5367  0.8785 -0.9708
   85MOL   H16115449   4.729   1.598   5.862  2.4992 -1.4473 -1.4239
   85MOL   H16215450   4.895   1.433   5.987  0.5225  0.6193 -0.8989
   85MOL   H16315451   4.694   1.525   6.325  0.1677  0.3829  0.0679
   85MOL   C16415452   4.916   1.638   6.029 -0.4466  0.7089  0.5051
   85MOL   C16515453   5.074   1.630   6.044 -0.3925  0.3576 -0.9631
   85MOL   C16615454   5.106   1.602   6.193  1.1573 -1.0470  0.3076
   85MOL   O16715455   5.046   1.651   6.296  0.5345  0.0912  0.0329
   85MOL   O16815456   5.212   1.520   6.204 -0.1110  0.2579  0.3064
   85MOL   H16915457   4.858   1.708   6.088  0.2828  1.9191 -0.1983
   85MOL   H17015458   4.904   1.681   5.930  1.9548 -0.9648 -0.5754
   85MOL   H17115459   5.100   1.544   5.981 -1.0213 -0.2560 -0.3825
   85MOL   H17215460   5.234   1.515   6.295  1.0177 -0.7378  0.0080
   85MOL   C17315461   5.149   1.747   5.989  0.7153  0.5112  0.0847
   85MOL   C17415462   5.113   1.888   6.044 -0.1828 -0.5157  0.0926
   85MOL   C17515463   5.202   1.997   5.991 -0.9711 -0.5326 -0.2917
   85MOL   O17615464   5.289   1.970   5.906 -0.5283  0.1440  0.2381
   85MOL   O17715465   5.185   2.120   6.056  0.0592 -0.2154  0.6477
   85MOL   H17815466   5.130   1.741   5.882  0.8995 -1.9619  0.1424
   85MOL   H17915467   5.253   1.726   6.012  0.1860 -1.7201  0.6530
   85MOL   H18015468   5.011   1.917   6.019  1.1453  2.9620 -1.5218
   85MOL   H18115469   5.249   2.183   6.025  1.6824 -2.8799 -1.6025
   85MOL   H18215470   5.117   1.879   6.153 -0.3910 -1.2189  0.0469
   86MOL     C115471   4.124   3.263   3.913  0.1681  0.5236  0.0389
   86MOL     C215472   4.208   3.145   3.871  0.4741  0.8184 -0.7691
   86MOL     C315473   4.315   3.112   3.971  0.1761 -0.6966  0.7309
   86MOL     O415474   4.334   3.000   4.014 -0.0884 -0.5229 -0.6332
   86MOL     O515475   4.386   3.224   4.005  0.0542 -0.3036  0.1630
   86MOL     H615476   4.192   3.346   3.930  1.3518 -0.1934 -1.0363
   86MOL     H715477   4.053   3.300   3.840  0.4846  1.3020  0.1214
   86MOL     H815478   4.144   3.056   3.870  3.0845 -1.1198 -1.2641
   86MOL     H915479   4.455   3.209   4.068 -1.4681  0.3502  2.0205
   86MOL    H1015480   4.079   3.234   4.008 -0.3602  0.9471 -0.0842
   86MOL    C1115481   4.256   3.170   3.729  0.2942  0.8002  0.5923
   86MOL    C1215482   4.328   3.060   3.640 -0.4444  0.2523 -0.1989
   86MOL    C1315483   4.361   3.126   3.510  0.4951 -0.7959  0.0992
   86MOL    O1415484   4.291   3.122   3.410  0.2677 -0.1787  0.1129
   86MOL    O1515485   4.472   3.205   3.518 -0.3277  0.1134  0.2594
   86MOL    H1615486   4.317   3.259   3.738  2.3273 -0.6047  1.0901
   86MOL    H1715487   4.168   3.203   3.673  0.4123 -0.9622 -0.6932
   86MOL    H1815488   4.421   3.032   3.689 -0.6632  3.2578  2.1187
   86MOL    H1915489   4.476   3.274   3.453 -1.4592 -0.8736 -0.9114
   86MOL    C2015490   4.235   2.935   3.628  0.1795  0.3322  0.3882
   86MOL    C2115491   4.304   2.813   3.557 -0.3408 -0.1997  1.0707
   86MOL    C2215492   4.201   2.722   3.480  0.0442  0.4906 -0.3842
   86MOL    O2315493   4.159   2.617   3.531 -0.0732  0.0345 -0.0573
   86MOL    O2415494   4.173   2.765   3.358  0.2400  0.7764 -0.0405
   86MOL    H2515495   4.143   2.961   3.577 -1.0784 -2.3150  1.2073
   86MOL    H2615496   4.217   2.908   3.732  1.8941 -0.8615  0.4058
   86MOL    H2715497   4.363   2.853   3.475  0.0659 -0.9538  0.9889
   86MOL    H2815498   4.135   2.696   3.306  1.3690  0.5936 -0.6446
   86MOL    C2915499   4.402   2.739   3.651  0.7086  0.5887 -0.4172
   86MOL    C3015500   4.485   2.617   3.589  0.8446  0.3719  0.6242
   86MOL    C3115501   4.562   2.532   3.692 -0.1909  0.5908  0.1444
   86MOL    O3215502   4.597   2.566   3.806  0.2626 -0.6321  0.1989
   86MOL    O3315503   4.592   2.412   3.640 -0.6216 -0.4355  0.5862
   86MOL    H3415504   4.336   2.701   3.729 -0.0818  1.1506 -0.8030
   86MOL    H3515505   4.479   2.802   3.696  1.0660 -0.5672  0.6112
   86MOL    H3615506   4.413   2.543   3.555  1.5953  0.0502 -0.2842
   86MOL    H3715507   4.619   2.357   3.711  1.3443  0.9764  0.9732
   86MOL    C3815508   4.572   2.668   3.469 -0.1053 -0.0901 -0.4833
   86MOL    C3915509   4.644   2.577   3.361 -0.8578 -0.7106  0.2074
   86MOL    C4015510   4.550   2.473   3.295  0.2126 -0.1037 -0.6860
   86MOL    O4115511   4.427   2.456   3.320  0.2428  0.4242 -0.0829
   86MOL    O4215512   4.620   2.404   3.208 -0.5027 -0.4770 -0.2331
   86MOL    H4315513   4.648   2.733   3.513  1.2348 -0.4731 -2.1738
   86MOL    H4415514   4.513   2.732   3.404  0.2294  2.6449  1.8052
   86MOL    H4515515   4.688   2.647   3.290  1.3136 -1.3297  0.8756
   86MOL    H4615516   4.571   2.331   3.172 -2.0489 -0.7554  2.2700
   86MOL    C4715517   4.772   2.506   3.405 -0.3526 -0.2326 -0.6435
   86MOL    C4815518   4.876   2.584   3.492 -0.2499 -0.5004  0.1980
   86MOL    C4915519   4.912   2.709   3.414 -0.2924 -0.1193 -0.1755
   86MOL    O5015520   4.944   2.711   3.291 -0.0312  0.1776  0.1289
   86MOL    O5115521   4.905   2.813   3.505 -0.4853  0.0730  0.3043
   86MOL    H5215522   4.827   2.468   3.319  0.7401 -1.5299  0.6016
   86MOL    H5315523   4.750   2.410   3.451  0.7957 -0.1243  0.1374
   86MOL    H5415524   4.832   2.611   3.588 -0.1337 -1.3363  0.4874
   86MOL    H5515525   4.929   2.900   3.479 -0.6960 -0.4126 -1.5540
   86MOL    C5615526   5.002   2.501   3.521 -0.2723  0.0428 -0.2724
   86MOL    C5715527   5.002   2.385   3.623 -0.1475 -0.5028 -0.2221
   86MOL    C5815528   4.986   2.430   3.767  0.2076 -0.1209 -0.0419
   86MOL    O5915529   4.914   2.368   3.842  0.2229 -0.0232 -0.5967
   86MOL    O6015530   5.066   2.532   3.813  0.6589 -0.2286  0.2106
   86MOL    H6115531   5.079   2.569   3.558  0.7493 -0.6593 -1.1014
   86MOL    H6215532   5.038   2.459   3.427 -1.1649  1.1877 -1.1337
   86MOL    H6315533   4.913   2.330   3.593 -0.1746  0.0075 -1.1134
   86MOL    H6415534   5.080   2.541   3.906 -0.7114 -0.0453  0.4056
   86MOL    C6515535   5.122   2.290   3.609  0.2082 -0.3254 -0.0050
   86MOL    C6615536   5.261   2.352   3.611  0.9841  0.6766 -0.0673
   86MOL    C6715537   5.310   2.386   3.471 -0.3766  0.6516 -0.3225
   86MOL    O6815538   5.312   2.502   3.438 -0.0600  0.1286 -0.1420
   86MOL    O6915539   5.342   2.275   3.395  0.6931  0.1251  0.3948
   86MOL    H7015540   5.109   2.244   3.511  4.1399 -0.6040 -0.4880
   86MOL    H7115541   5.119   2.208   3.680  1.5339  0.9340  1.5454
   86MOL    H7215542   5.266   2.446   3.665  2.6164 -0.0577  1.1002
   86MOL    H7315543   5.379   2.303   3.312  1.1682  0.2547  0.6510
   86MOL    C7415544   5.369   2.260   3.678 -0.0828  0.2871 -0.5599
   86MOL    C7515545   5.411   2.288   3.825  0.0880  0.6402  0.4095
   86MOL    C7615546   5.311   2.232   3.930  0.2140  0.0766 -0.2846
   86MOL    O7715547   5.261   2.293   4.028 -0.2460  0.1877  0.2142
   86MOL    O7815548   5.288   2.097   3.916  0.6180 -0.2978 -0.0415
   86MOL    H7915549   5.463   2.288   3.632  0.3851 -1.2884 -0.5768
   86MOL    H8015550   5.356   2.152   3.672 -1.1917  0.3248  0.7854
   86MOL    H8115551   5.498   2.224   3.842  0.0017  0.9567  2.1622
   86MOL    H8215552   5.235   2.054   3.982 -1.0776  2.6795  0.6343
   86MOL    C8315553   5.456   2.425   3.870  0.5948 -0.2283 -0.2366
   86MOL    C8415554   5.588   2.434   3.961  0.0495 -0.0538 -0.6317
   86MOL    C8515555   5.600   2.329   4.070  0.7056  0.0069  1.0652
   86MOL    O8615556   5.667   2.224   4.067 -0.0696 -0.6963 -0.3310
   86MOL    O8715557   5.503   2.352   4.167 -0.3102  0.0793  0.1300
   86MOL    H8815558   5.371   2.481   3.909  1.3215  0.6535  0.1210
   86MOL    H8915559   5.479   2.474   3.775 -1.8148 -1.8174 -1.6917
   86MOL    H9015560   5.669   2.402   3.896  0.1410  0.4623 -0.7733
   86MOL    H9115561   5.487   2.276   4.221 -2.1419  0.3005 -0.0798
   86MOL    C9215562   5.605   2.578   4.012  0.1435 -0.3994  0.1491
   86MOL    C9315563   5.750   2.623   4.046 -0.1415 -0.1660  0.4964
   86MOL    C9415564   5.752   2.749   4.128  0.0470 -0.5151 -0.6313
   86MOL    O9515565   5.705   2.856   4.091  0.1934  0.5219 -0.3613
   86MOL    O9615566   5.816   2.721   4.250  0.3308 -0.2213  0.6121
   86MOL    H9715567   5.540   2.605   4.095  0.1961  1.3325 -0.3383
   86MOL    H9815568   5.572   2.642   3.929 -0.3181  0.5476  1.0511
   86MOL    H9915569   5.797   2.547   4.109 -0.3963 -1.2086 -0.5511
   86MOL   H10015570   5.859   2.797   4.285 -1.0186  0.0834  1.6563
   86MOL   C10115571   5.832   2.642   3.911  0.0999  0.2227  0.1710
   86MOL   C10215572   5.991   2.642   3.926  0.6040 -0.3255  0.0628
   86MOL   C10315573   6.055   2.666   3.784  0.5530 -0.2743  0.3622
   86MOL   O10415574   6.133   2.756   3.761  0.2025  0.4550  0.1817
   86MOL   O10515575   6.027   2.569   3.697 -0.2656  0.1646 -0.0292
   86MOL   H10615576   5.797   2.731   3.859 -2.1253  1.1970  3.2285
   86MOL   H10715577   5.801   2.558   3.849 -2.3921 -0.3736  2.1594
   86MOL   H10815578   6.029   2.715   3.998  1.0399  0.6796 -1.1719
   86MOL   H10915579   6.096   2.576   3.633 -1.0212  0.8057 -0.7716
   86MOL   C11015580   6.045   2.503   3.981  0.2719 -0.0859  0.1756
   86MOL   C11115581   6.082   2.518   4.132 -0.7417 -0.5879 -0.1384
   86MOL   C11215582   6.214   2.592   4.150 -0.3684 -0.0391 -0.3573
   86MOL   O11315583   6.298   2.607   4.060  0.1885 -0.3261 -0.3473
   86MOL   O11415584   6.241   2.616   4.279  0.4591 -0.7807 -0.1142
   86MOL   H11515585   6.127   2.463   3.920  1.2968  0.2447  1.3182
   86MOL   H11615586   5.964   2.434   3.957  0.6222 -0.5003  0.1606
   86MOL   H11715587   6.011   2.568   4.197 -0.5871  1.1685 -1.2777
   86MOL   H11815588   6.321   2.666   4.287 -0.6600  1.7528 -3.4078
   86MOL   C11915589   6.112   2.380   4.192  0.8534 -0.0104 -0.6533
   86MOL   C12015590   5.976   2.313   4.239  0.3979  0.2730  0.7715
   86MOL   C12115591   5.894   2.394   4.343  0.2592 -0.1835  0.2552
   86MOL   O12215592   5.954   2.474   4.414  0.2020  0.2954  0.0494
   86MOL   O12315593   5.761   2.368   4.344  0.1417 -0.2233  0.1532
   86MOL   H12415594   6.174   2.382   4.282 -0.1825  1.4302  0.0305
   86MOL   H12515595   6.169   2.321   4.120  0.6666 -2.4191  1.0823
   86MOL   H12615596   5.919   2.298   4.147  1.1487  0.3484  0.2837
   86MOL   H12715597   5.716   2.430   4.400 -0.4639  0.9055 -1.5526
   86MOL   C12815598   6.003   2.170   4.289 -0.0127 -0.2954 -0.1494
   86MOL   C12915599   6.087   2.064   4.214  0.8994 -0.0747 -0.0268
   86MOL   C13015600   6.027   2.038   4.073  0.0018 -0.4168 -0.7750
   86MOL   O13115601   6.073   2.101   3.978  0.5423  0.1007 -0.2558
   86MOL   O13215602   5.909   1.970   4.084 -0.6241  0.4086 -0.6362
   86MOL   H13315603   5.906   2.122   4.283  0.2017 -0.7040 -0.4172
   86MOL   H13415604   6.021   2.181   4.396 -0.4399 -1.4812  0.0576
   86MOL   H13515605   6.188   2.095   4.185 -0.5436  3.1162 -1.9924
   86MOL   H13615606   5.858   1.984   4.006 -0.1904 -1.3228 -1.2527
   86MOL   C13715607   6.098   1.938   4.299 -0.4635 -0.1574  0.3991
   86MOL   C13815608   6.218   1.843   4.261  0.7589  0.7660  0.3054
   86MOL   C13915609   6.167   1.714   4.188 -0.0753 -0.3756  0.4530
   86MOL   O14015610   6.207   1.684   4.073  0.7239  0.2464  0.4364
   86MOL   O14115611   6.084   1.634   4.262  0.0021 -0.3422  0.6166
   86MOL   H14215612   6.003   1.884   4.306 -0.2428 -0.5442  0.4592
   86MOL   H14315613   6.120   1.981   4.397  3.3403  2.2470 -1.4026
   86MOL   H14415614   6.293   1.880   4.191  0.8109 -0.9911 -0.5781
   86MOL   H14515615   6.058   1.559   4.211 -1.1414  1.0128 -0.8481
   86MOL   C14615616   6.298   1.798   4.396  0.0165  0.0493 -0.3310
   86MOL   C14715617   6.444   1.745   4.384 -0.9772 -0.3189 -0.2332
   86MOL   C14815618   6.473   1.674   4.522 -0.4174  0.5324 -0.7156
   86MOL   O14915619   6.505   1.725   4.630 -0.5198 -0.1898 -0.0690
   86MOL   O15015620   6.468   1.544   4.510  0.2023 -0.0039 -0.0841
   86MOL   H15115621   6.240   1.734   4.464 -1.4833  0.7700 -0.9062
   86MOL   H15215622   6.308   1.890   4.454 -0.5368 -0.2936  0.3219
   86MOL   H15315623   6.450   1.675   4.301 -1.9690 -1.0838  0.3266
   86MOL   H15415624   6.512   1.511   4.587  0.7693 -0.2202 -0.4970
   86MOL   C15515625   6.551   1.848   4.350  0.0157  0.0058  0.2603
   86MOL   C15615626   6.558   1.982   4.425  0.5150  0.6715 -0.1493
   86MOL   C15715627   6.476   2.098   4.355 -0.4825  0.1085 -0.0045
   86MOL   O15815628   6.517   2.159   4.253  0.0286  0.4074 -0.1842
   86MOL   O15915629   6.368   2.135   4.434  0.5718 -0.1553 -0.0315
   86MOL   H16015630   6.554   1.876   4.245  0.0054 -0.4883  0.1275
   86MOL   H16115631   6.651   1.808   4.368 -0.9627 -1.6707  2.2659
   86MOL   H16215632   6.509   1.964   4.520  0.6886  1.5227  0.1072
   86MOL   H16315633   6.335   2.220   4.410 -0.3488 -0.6228 -0.4262
   86MOL   C16415634   6.698   2.031   4.468 -0.1347 -0.4459 -0.1312
   86MOL   C16515635   6.693   2.135   4.596  0.6887  0.4684 -0.0842
   86MOL   C16615636   6.745   2.275   4.566 -0.6463 -0.1786 -0.4960
   86MOL   O16715637   6.831   2.336   4.641 -0.4962  0.1927 -0.3267
   86MOL   O16815638   6.685   2.327   4.454 -0.0663 -0.4612 -0.2939
   86MOL   H16915639   6.736   2.093   4.387 -0.8153 -1.0872 -0.9525
   86MOL   H17015640   6.774   1.953   4.479  2.6798  2.2174 -0.0374
   86MOL   H17115641   6.588   2.160   4.614  1.3830  1.1753  3.1108
   86MOL   H17215642   6.709   2.417   4.439  0.0794 -0.3076  0.8202
   86MOL   C17315643   6.749   2.072   4.728 -0.3286 -0.3329  0.4214
   86MOL   C17415644   6.696   1.944   4.773  0.2836 -0.5737 -0.8368
   86MOL   C17515645   6.788   1.821   4.760  0.8098 -0.4009 -0.0750
   86MOL   O17615646   6.884   1.814   4.681  0.3390 -0.1821  0.2838
   86MOL   O17715647   6.766   1.716   4.844  0.3735  0.1774  0.0458
   86MOL   H17815648   6.726   2.153   4.797 -1.4835  1.0961 -1.5740
   86MOL   H17915649   6.856   2.077   4.708 -0.4255 -2.7152 -0.8983
   86MOL   H18015650   6.663   1.952   4.876 -0.4930  1.6360 -1.2322
   86MOL   H18115651   6.684   1.717   4.890  0.2722  0.1757 -0.1334
   86MOL   H18215652   6.598   1.927   4.728 -0.4824  2.4673 -0.3850
   87MOL     C115653   5.075   3.073   7.490  0.3050 -0.3110 -0.3622
   87MOL     C215654   4.969   3.098   7.385 -0.1118  0.7891  0.5115
   87MOL     C315655   4.829   3.054   7.424 -0.4610 -0.2620 -0.4779
   87MOL     O415656   4.799   2.935   7.420  0.0019 -0.1535 -0.1151
   87MOL     O515657   4.750   3.153   7.477  0.1410  0.2634  0.7024
   87MOL     H615658   5.055   2.977   7.536 -0.8252  0.3007  0.4455
   87MOL     H715659   5.177   3.079   7.452 -0.3964  2.4678 -1.9499
   87MOL     H815660   4.962   3.206   7.381  1.4303  0.8881 -0.4303
   87MOL     H915661   4.779   3.243   7.483  1.5301  0.0227 -1.8683
   87MOL    H1015662   5.069   3.147   7.570 -0.5877  2.1829 -2.6389
   87MOL    C1115663   5.018   3.051   7.244  0.0701 -0.3919 -0.0440
   87MOL    C1215664   4.921   3.047   7.116 -0.2832 -0.0700  0.1292
   87MOL    C1315665   4.865   3.185   7.081  0.2604  1.1483  0.0298
   87MOL    O1415666   4.760   3.226   7.120  0.0664 -0.2703 -0.5943
   87MOL    O1515667   4.956   3.268   7.024  0.0594 -0.2900  0.5153
   87MOL    H1615668   5.055   2.949   7.252 -3.9875 -1.9216  0.9276
   87MOL    H1715669   5.099   3.114   7.208 -0.1833  0.3107  0.6072
   87MOL    H1815670   4.992   3.004   7.046  1.3629 -0.6455  2.0938
   87MOL    H1915671   4.924   3.357   7.017  1.2089  0.1016  0.0467
   87MOL    C2015672   4.805   2.935   7.125 -0.0080 -0.1159  0.0297
   87MOL    C2115673   4.728   2.895   6.995  0.1866 -0.0922 -0.1696
   87MOL    C2215674   4.601   2.978   6.984 -0.4101 -0.2267  0.1209
   87MOL    O2315675   4.515   2.968   7.069 -0.5766  0.1849 -0.4990
   87MOL    O2415676   4.604   3.067   6.880 -0.0078 -0.0503  0.2503
   87MOL    H2515677   4.725   2.950   7.198 -0.1127  0.7219 -0.2579
   87MOL    H2615678   4.854   2.843   7.157 -0.6213 -0.2808  0.4915
   87MOL    H2715679   4.788   2.913   6.906 -0.3960  0.6807 -0.4059
   87MOL    H2815680   4.523   3.116   6.872 -1.6525 -2.2184  2.6704
   87MOL    C2915681   4.698   2.737   6.993  0.2170  0.0361 -0.0059
   87MOL    C3015682   4.821   2.650   6.963  0.1610  1.0122 -0.5328
   87MOL    C3115683   4.867   2.660   6.820 -0.3389  0.2250  0.5078
   87MOL    O3215684   4.942   2.754   6.789 -0.1586  0.2489  0.3193
   87MOL    O3315685   4.813   2.559   6.743  0.6383 -0.8200  0.1014
   87MOL    H3415686   4.628   2.712   6.913 -0.9045  0.1769  0.9140
   87MOL    H3515687   4.652   2.705   7.087  1.5951  0.3707  0.7893
   87MOL    H3615688   4.905   2.679   7.026  0.3169 -0.2435 -0.1622
   87MOL    H3715689   4.840   2.557   6.652  1.7296 -0.0917  0.4035
   87MOL    C3815690   4.784   2.500   7.008  0.1341 -0.1734  0.5215
   87MOL    C3915691   4.904   2.397   6.986  0.6902 -1.0047 -0.1232
   87MOL    C4015692   4.866   2.286   6.882  0.2791 -0.6730  0.3383
   87MOL    O4115693   4.925   2.274   6.770  0.4772  0.0506 -0.2289
   87MOL    O4215694   4.764   2.208   6.928 -0.3208 -0.4866 -0.1105
   87MOL    H4315695   4.690   2.460   6.970 -0.5729  0.4168  1.6190
   87MOL    H4415696   4.762   2.495   7.115 -0.6969 -1.7773  0.2989
   87MOL    H4515697   4.987   2.448   6.939  1.1602 -0.4707  1.2492
   87MOL    H4615698   4.726   2.143   6.870  0.4107  1.0450 -2.3713
   87MOL    C4715699   4.953   2.333   7.111 -0.5160 -0.1203 -0.0256
   87MOL    C4815700   5.013   2.434   7.211 -0.3256  0.0395 -0.0984
   87MOL    C4915701   5.138   2.502   7.154  0.4111 -0.1890 -0.7988
   87MOL    O5015702   5.223   2.458   7.084  0.1270  0.5834  0.2525
   87MOL    O5115703   5.136   2.625   7.208  0.7290  0.0378  0.2107
   87MOL    H5215704   5.042   2.273   7.091 -1.1141 -1.6920  1.8731
   87MOL    H5315705   4.862   2.285   7.146  1.2472 -1.6719  2.5831
   87MOL    H5415706   4.940   2.509   7.241 -1.2368 -0.1244 -1.8863
   87MOL    H5515707   5.185   2.683   7.152 -1.3930  1.6666 -0.0635
   87MOL    C5615708   5.058   2.359   7.340  0.6491 -0.5684  0.3753
   87MOL    C5715709   4.939   2.321   7.429 -0.3672  0.1972  0.1388
   87MOL    C5815710   4.912   2.448   7.520  0.4609  0.5076 -0.7004
   87MOL    O5915711   5.002   2.513   7.577 -0.1266 -0.3554  0.1546
   87MOL    O6015712   4.782   2.483   7.520  0.2395  0.0618  0.4249
   87MOL    H6115713   5.136   2.414   7.392  0.1047  0.4918  0.0694
   87MOL    H6215714   5.109   2.265   7.317  0.1476 -1.2874  2.0725
   87MOL    H6315715   4.859   2.305   7.357 -0.6349 -2.2424  0.9355
   87MOL    H6415716   4.767   2.541   7.593  2.1182  0.5764  0.4185
   87MOL    C6515717   4.967   2.190   7.502  0.0676 -0.0236 -0.1984
   87MOL    C6615718   4.843   2.128   7.578 -0.2268 -0.7070 -0.8483
   87MOL    C6715719   4.864   1.982   7.626  0.4689  0.6896  0.4925
   87MOL    O6815720   4.959   1.906   7.598 -0.4045  0.2392  0.2821
   87MOL    O6915721   4.758   1.953   7.708 -0.3431 -0.0717 -0.0993
   87MOL    H7015722   5.050   2.199   7.572 -0.8100 -0.2661  0.9041
   87MOL    H7115723   4.979   2.111   7.429 -0.4627 -2.2031  2.0229
   87MOL    H7215724   4.831   2.189   7.667 -0.2437 -0.7796 -0.8003
   87MOL    H7315725   4.749   1.860   7.724 -2.5801  0.0923 -0.2307
   87MOL    C7415726   4.707   2.140   7.501 -0.1938 -0.2519 -0.2643
   87MOL    C7515727   4.694   2.073   7.359  0.5098  0.0001 -0.9073
   87MOL    C7615728   4.589   2.158   7.283  0.3727  1.1664  0.4210
   87MOL    O7715729   4.605   2.185   7.162 -0.3546 -0.1931 -0.1436
   87MOL    O7815730   4.476   2.176   7.354 -0.2383 -0.3845 -0.2760
   87MOL    H7915731   4.680   2.244   7.490 -1.6077 -0.4473  1.2459
   87MOL    H8015732   4.625   2.095   7.556 -0.7188 -1.9414 -2.3283
   87MOL    H8115733   4.783   2.075   7.296  1.9092  2.2779  1.0423
   87MOL    H8215734   4.401   2.194   7.300 -0.7229  0.7307  0.7496
   87MOL    C8315735   4.641   1.928   7.383  0.0827  0.2070 -0.2934
   87MOL    C8415736   4.616   1.852   7.252 -0.5012  0.2830 -0.0488
   87MOL    C8515737   4.499   1.753   7.281  0.0421 -0.8460  0.4744
   87MOL    O8615738   4.495   1.641   7.324  0.5544 -0.5033  0.1423
   87MOL    O8715739   4.382   1.812   7.243  0.8810  0.2472 -0.8691
   87MOL    H8815740   4.559   1.912   7.453 -0.6038 -2.9781 -1.7419
   87MOL    H8915741   4.712   1.875   7.446 -1.9084  0.3113  2.1037
   87MOL    H9015742   4.583   1.913   7.168  0.8993  0.1658 -0.7005
   87MOL    H9115743   4.311   1.757   7.273 -0.3362  2.3499  0.2111
   87MOL    C9215744   4.742   1.770   7.204 -0.0577  0.2327  0.5128
   87MOL    C9315745   4.848   1.843   7.123 -0.2985  0.3440 -0.0691
   87MOL    C9415746   4.802   1.876   6.979 -0.4330 -0.4472  0.0580
   87MOL    O9515747   4.876   1.930   6.897 -0.7908 -0.0167 -0.1376
   87MOL    O9615748   4.675   1.840   6.952 -0.1913  0.3512  0.2346
   87MOL    H9715749   4.702   1.688   7.143  0.3600  1.0147 -0.8246
   87MOL    H9815750   4.790   1.723   7.290  0.9281  0.2095 -0.0449
   87MOL    H9915751   4.877   1.936   7.173  2.8106  0.4416 -1.9911
   87MOL   H10015752   4.653   1.869   6.865 -1.9159 -2.4808 -0.3304
   87MOL   C10115753   4.979   1.757   7.122 -0.3790 -0.1173 -0.9895
   87MOL   C10215754   5.060   1.765   7.258 -0.1255  0.0235  0.4772
   87MOL   C10315755   5.169   1.867   7.247 -0.3963  0.3797 -0.4745
   87MOL   O10415756   5.289   1.834   7.250  0.3262 -0.2632 -0.1051
   87MOL   O10515757   5.122   1.995   7.242  0.0160  0.1424  0.7048
   87MOL   H10615758   5.040   1.773   7.033 -0.6412  2.5303 -0.7406
   87MOL   H10715759   4.945   1.655   7.108 -1.3880  0.1249 -0.3367
   87MOL   H10815760   4.995   1.805   7.336 -0.6294 -0.8475  0.5169
   87MOL   H10915761   5.198   2.050   7.233  0.4585 -0.5354  0.2662
   87MOL   C11015762   5.117   1.621   7.284  0.2575 -0.4414 -0.1996
   87MOL   C11115763   5.180   1.588   7.426  0.0636 -0.2134 -0.5727
   87MOL   C11215764   5.246   1.452   7.426 -0.6413 -0.0338 -0.2571
   87MOL   O11315765   5.200   1.354   7.482  0.1634  0.4838  0.1257
   87MOL   O11415766   5.363   1.457   7.354 -0.0325  0.1664  0.0908
   87MOL   H11515767   5.192   1.605   7.206 -0.3243 -0.0980 -0.8285
   87MOL   H11615768   5.037   1.549   7.271 -0.5222  0.4871 -0.5930
   87MOL   H11715769   5.258   1.660   7.450 -2.9115  2.6232  0.9510
   87MOL   H11815770   5.379   1.366   7.333 -2.1606 -0.0846 -0.5626
   87MOL   C11915771   5.060   1.584   7.534 -0.6088  0.1530  0.1003
   87MOL   C12015772   5.104   1.605   7.684 -0.0607  0.5042  0.3517
   87MOL   C12115773   5.206   1.506   7.744  0.5877 -0.1103 -0.3206
   87MOL   O12215774   5.167   1.400   7.781  0.0468 -0.4100  0.1618
   87MOL   O12315775   5.333   1.553   7.737 -0.5110 -0.1359 -0.2484
   87MOL   H12415776   5.006   1.491   7.517 -1.8004  0.6627  0.9848
   87MOL   H12515777   4.981   1.656   7.515 -1.2282 -0.4024  0.5402
   87MOL   H12615778   5.142   1.707   7.687 -1.7636  1.1760  0.1165
   87MOL   H12715779   5.380   1.498   7.797 -0.4995  0.5621  0.3998
   87MOL   C12815780   4.973   1.613   7.774 -0.0034 -0.1482  0.1829
   87MOL   C12915781   5.004   1.650   0.073  0.7313 -0.2708 -0.3046
   87MOL   C13015782   4.881   1.612   0.169 -0.1314  0.0131  0.3026
   87MOL   O13115783   4.773   1.577   0.124  0.1755  0.1254 -0.1272
   87MOL   O13215784   4.907   1.623   0.298 -0.1656  0.0914 -0.3098
   87MOL   H13315785   4.933   1.513   7.762  0.4443 -0.1855 -1.0413
   87MOL   H13415786   4.907   1.688   7.729  0.7128 -1.1992 -2.6980
   87MOL   H13515787   5.085   1.586   0.109  0.6217 -0.2775 -0.0693
   87MOL   H13615788   4.840   1.593   0.357  1.5636  1.4544  2.4280
   87MOL   C13715789   5.045   1.803   0.086  0.3092 -0.0055  0.0471
   87MOL   C13815790   5.197   1.825   0.110 -0.2703  0.2343 -0.2153
   87MOL   C13915791   5.228   1.797   0.259  1.2183 -0.4490 -0.1657
   87MOL   O14015792   5.264   1.886   0.333 -0.0214 -0.2323  0.3584
   87MOL   O14115793   5.240   1.665   0.286  0.2708  0.4055  0.5923
   87MOL   H14215794   4.990   1.855   0.165 -0.3946  1.4783 -1.3862
   87MOL   H14315795   5.004   1.859   0.002 -1.5415 -1.1108  0.2009
   87MOL   H14415796   5.236   1.753   0.039 -0.9337  2.9210 -3.4306
   87MOL   H14515797   5.277   1.654   0.372 -2.6932  1.6769  2.0924
   87MOL   C14615798   5.239   1.967   0.067 -0.4285  0.4360 -0.6767
   87MOL   C14715799   5.254   1.991   7.771  0.3153  0.0341 -0.3429
   87MOL   C14815800   5.374   1.910   7.711  0.4185 -0.1879  0.3345
   87MOL   O14915801   5.473   1.877   7.778 -0.6971  0.3589  0.4743
   87MOL   O15015802   5.346   1.873   7.583 -0.4146 -0.1819 -0.1816
   87MOL   H15115803   5.335   1.989   0.115 -0.1989 -1.2876 -0.3096
   87MOL   H15215804   5.171   2.040   0.111 -1.7320 -1.1295 -0.0220
   87MOL   H15315805   5.166   1.941   7.732 -1.0099 -0.1689  2.7581
   87MOL   H15415806   5.413   1.848   7.521  0.7748  1.8596  0.2117
   87MOL   C15515807   5.256   2.136   7.719 -0.0600  0.0730  0.3341
   87MOL   C15615808   5.384   2.222   7.756  0.6135  0.3351 -0.6072
   87MOL   C15715809   5.370   2.295   0.037 -0.6251 -0.0493  0.5073
   87MOL   O15815810   5.266   2.296   0.097 -0.1592  0.3830  0.8603
   87MOL   O15915811   5.487   2.352   0.090 -0.5277 -0.1413  0.2564
   87MOL   H16015812   5.167   2.185   7.758  0.7113  1.8219 -0.0701
   87MOL   H16115813   5.245   2.123   7.612  1.1632  1.2423  0.0581
   87MOL   H16215814   5.470   2.155   7.760  0.2497 -0.0754  0.6923
   87MOL   H16315815   5.463   2.384   0.176  2.3020  1.1060  0.6430
   87MOL   C16415816   5.403   2.325   7.641  0.1756 -0.5337  0.2436
   87MOL   C16515817   5.467   2.274   7.508  0.4903  0.0505 -0.6831
   87MOL   C16615818   5.605   2.214   7.531 -0.0346  0.3525 -0.0833
   87MOL   O16715819   5.708   2.281   7.564 -0.5358  0.1091 -0.0568
   87MOL   O16815820   5.608   2.076   7.531 -0.5507  0.1959 -0.7633
   87MOL   H16915821   5.456   2.414   7.676 -1.5828  1.6179 -2.4189
   87MOL   H17015822   5.299   2.357   7.628  0.0673 -0.3037  1.5767
   87MOL   H17115823   5.397   2.197   7.474  2.0094 -1.6149 -0.1631
   87MOL   H17215824   5.695   2.053   7.560 -0.8325 -0.5486 -0.5060
   87MOL   C17315825   5.463   2.373   7.387 -0.0492  0.7862 -0.4449
   87MOL   C17415826   5.515   2.316   7.253  0.1445 -0.1957 -0.1325
   87MOL   C17515827   5.480   2.167   7.221  1.1393  0.8513  0.1208
   87MOL   O17615828   5.370   2.121   7.254 -0.2572 -0.2279 -0.3039
   87MOL   O17715829   5.578   2.092   7.159  0.1074 -0.3942  0.3045
   87MOL   H17815830   5.528   2.457   7.411 -1.1720  0.8786  2.4596
   87MOL   H17915831   5.360   2.403   7.369 -0.5993  0.5782  2.0866
   87MOL   H18015832   5.492   2.382   7.169  0.1020 -0.7518 -0.5709
   87MOL   H18115833   5.552   2.001   7.162  0.2701 -0.4092  2.0716
   87MOL   H18215834   5.623   2.323   7.256  0.0834  0.2877  1.4173
   88MOL     C115835   0.027   5.075   6.817 -0.2512  0.7330 -0.1460
   88MOL     C215836   0.156   5.000   6.849  0.8552  0.1368  0.6967
   88MOL     C315837   0.167   4.974   7.008 -0.5308 -0.7174 -0.8907
   88MOL     O415838   0.271   4.972   7.067  0.4131  0.4808 -0.4408
   88MOL     O515839   0.049   4.968   7.068  0.8333  0.3775  0.4069
   88MOL     H615840   7.801   5.010   6.855  1.9686 -1.5879  0.6390
   88MOL     H715841   0.011   5.168   6.872 -0.5710  1.5483 -1.6200
   88MOL     H815842   0.141   4.906   6.795  1.2467  0.8516 -0.6706
   88MOL     H915843   0.069   4.946   7.158  0.4088  0.8721  0.6278
   88MOL    H1015844   7.852   5.085   6.712  1.0100 -0.8688 -0.6615
   88MOL    C1115845   0.283   5.074   6.793 -0.2977 -0.1054  0.0162
   88MOL    C1215846   0.322   5.055   6.649 -0.2581  0.3842 -0.1374
   88MOL    C1315847   0.405   4.922   6.636  0.3602 -0.5490 -0.6718
   88MOL    O1415848   0.353   4.812   6.667 -0.2710  0.0817 -0.6808
   88MOL    O1515849   0.536   4.931   6.596  0.1807  0.0032  0.0631
   88MOL    H1615850   0.365   5.046   6.859 -0.5153 -1.5406 -0.2929
   88MOL    H1715851   0.267   5.178   6.822  1.0606  0.0627  0.2147
   88MOL    H1815852   0.233   5.041   6.587 -1.1386  1.3936  0.8961
   88MOL    H1915853   0.560   4.846   6.629 -1.4075  0.0467  1.3974
   88MOL    C2015854   0.403   5.181   6.589  0.0999  0.5937  0.3662
   88MOL    C2115855   0.319   5.312   6.574  0.2565 -0.0526 -0.2031
   88MOL    C2215856   0.246   5.316   6.438 -0.1692  0.2066  0.4972
   88MOL    O2315857   0.128   5.314   6.420 -0.0004 -0.8049  0.1245
   88MOL    O2415858   0.334   5.312   6.336 -0.3516  0.3004  0.1102
   88MOL    H2515859   0.449   5.159   6.492 -2.8137 -1.6823 -0.6074
   88MOL    H2615860   0.490   5.189   6.654 -1.3147 -0.0618  2.3890
   88MOL    H2715861   0.256   5.316   6.663 -0.6125  0.3760 -0.8284
   88MOL    H2815862   0.288   5.318   6.254 -0.0110  2.5592  0.0640
   88MOL    C2915863   0.426   5.428   6.581  0.6990  0.0889  0.9293
   88MOL    C3015864   0.386   5.572   6.538 -0.2630  0.0389  0.2553
   88MOL    C3115865   0.507   5.670   6.542 -0.0660 -0.9991  0.6124
   88MOL    O3215866   0.506   5.782   6.595  0.6795 -0.8418  0.5321
   88MOL    O3315867   0.607   5.605   6.485  0.0173 -0.1037 -0.1021
   88MOL    H3415868   0.508   5.399   6.516 -0.0361 -2.1931  0.9576
   88MOL    H3515869   0.460   5.435   6.685 -1.0618 -0.6329  1.5786
   88MOL    H3615870   0.354   5.563   6.435  0.0845  0.4642  0.1036
   88MOL    H3715871   0.686   5.656   6.496  1.0658 -1.9209  1.1100
   88MOL    C3815872   0.256   5.630   6.600  0.1473  0.4661 -0.5091
   88MOL    C3915873   0.136   5.665   6.506 -0.5235 -0.0089  0.7178
   88MOL    C4015874   0.172   5.773   6.401  0.0676 -0.3734 -0.3067
   88MOL    O4115875   0.289   5.816   6.381 -0.1608 -0.9362  0.1233
   88MOL    O4215876   0.072   5.790   6.302  0.3236  0.0608 -0.2508
   88MOL    H4315877   0.273   5.705   6.676 -1.8784  0.3323  0.0978
   88MOL    H4415878   0.219   5.557   6.672 -0.7607  0.9765 -0.4525
   88MOL    H4515879   0.106   5.576   6.450 -0.9807 -0.0169  0.9684
   88MOL    H4615880   0.089   5.853   6.234 -1.5597  1.4326  0.4961
   88MOL    C4715881   0.005   5.682   6.581  0.4710 -0.4363 -0.3736
   88MOL    C4815882   7.771   5.559   6.636  0.6223 -0.0769 -0.3253
   88MOL    C4915883   7.687   5.482   6.540  1.0252  0.1203 -0.0974
   88MOL    O5015884   7.644   5.528   6.435 -0.0966 -0.3546  0.0962
   88MOL    O5115885   7.662   5.354   6.580  0.2595  0.0960 -0.1846
   88MOL    H5215886   7.792   5.742   6.517 -0.6888 -1.8791 -0.5657
   88MOL    H5315887   0.039   5.744   6.663  0.9994 -2.7499  1.1920
   88MOL    H5415888   7.847   5.488   6.666 -0.4401 -1.8659 -1.7791
   88MOL    H5515889   7.594   5.317   6.526 -1.3594  1.2920  0.9791
   88MOL    C5615890   7.684   5.609   6.755 -0.1367  0.1063  0.2244
   88MOL    C5715891   7.748   5.661   6.892  0.1846 -0.1286  0.5071
   88MOL    C5815892   0.004   5.568   6.937 -0.3839 -0.0343 -0.5661
   88MOL    O5915893   0.119   5.602   6.963  0.0509 -0.6422  0.4150
   88MOL    O6015894   7.819   5.437   6.939  0.2872  0.0762 -0.1629
   88MOL    H6115895   7.605   5.536   6.772 -2.1915  1.8169 -1.5872
   88MOL    H6215896   7.626   5.696   6.724 -1.2008 -0.7150 -0.1259
   88MOL    H6315897   7.803   5.754   6.876 -0.6240 -0.0733 -2.1813
   88MOL    H6415898   0.044   5.387   6.958  0.1064 -0.4494 -0.7732
   88MOL    C6515899   7.638   5.682   6.996 -0.3653 -0.1213  0.5913
   88MOL    C6615900   7.694   5.727   7.132  0.0639  0.9856  0.5540
   88MOL    C6715901   7.574   5.741   7.224  0.2156 -0.3694 -0.3844
   88MOL    O6815902   7.547   5.659   7.308 -0.1044 -0.2252 -0.1330
   88MOL    O6915903   7.501   5.853   7.210 -0.4123  0.5224 -0.8145
   88MOL    H7015904   7.578   5.591   7.002 -0.8520 -0.1158 -3.2092
   88MOL    H7115905   7.578   5.764   6.957 -0.2546  0.6678  2.0456
   88MOL    H7215906   7.765   5.656   7.173  1.3584  2.4152  0.8482
   88MOL    H7315907   7.432   5.856   7.274  1.4700 -0.7831  1.3890
   88MOL    C7415908   7.787   5.847   7.144  0.5676 -0.1069  0.9005
   88MOL    C7515909   7.848   5.872   7.285  0.1586 -0.0671 -0.5286
   88MOL    C7615910   7.844   6.021   7.310 -0.1427 -0.4264 -0.5216
   88MOL    O7715911   7.756   6.079   7.369 -0.3098  0.0614  0.1294
   88MOL    O7815912   0.094   6.080   7.245 -0.4497  0.5200  0.0673
   88MOL    H7915913   7.732   5.932   7.105  2.0744 -0.8562 -3.1398
   88MOL    H8015914   0.013   5.828   7.071 -1.3481  0.1792 -1.2970
   88MOL    H8115915   7.783   5.826   7.358  1.1943  0.8980  1.0465
   88MOL    H8215916   0.074   6.172   7.240 -0.2472  0.5118 -0.9294
   88MOL    C8315917   0.141   5.812   7.295 -0.1527  0.1376  0.1030
   88MOL    C8415918   0.174   5.765   7.446  0.4320  0.2488  0.5893
   88MOL    C8515919   0.088   5.651   7.510 -0.2157 -0.5200  0.4049
   88MOL    O8615920   7.843   5.611   7.447 -0.2965 -0.1134  0.0887
   88MOL    O8715921   0.137   5.611   7.636  0.0911  0.0039 -0.0867
   88MOL    H8815922   0.217   5.863   7.235  0.5012  0.7395  1.4139
   88MOL    H8915923   0.140   5.716   7.245  3.2433  0.9675 -1.7468
   88MOL    H9015924   0.272   5.717   7.435  1.0826  1.6783 -0.0263
   88MOL    H9115925   0.079   5.540   7.659 -0.4315  0.3506 -0.3250
   88MOL    C9215926   0.187   5.886   7.536  0.5811  0.2183  0.2553
   88MOL    C9315927   0.322   5.969   7.521 -0.2032 -0.9282 -0.8753
   88MOL    C9415928   0.423   5.938   7.640  0.0348 -0.0178 -0.1692
   88MOL    O9515929   0.446   5.998   7.747 -0.3078 -0.2844  0.8098
   88MOL    O9615930   0.476   5.817   7.611  0.3589  0.8905  0.3804
   88MOL    H9715931   0.185   5.853   7.640  3.4244 -0.1327  0.2157
   88MOL    H9815932   0.097   5.948   7.534 -0.4862 -1.2818  1.1501
   88MOL    H9915933   0.363   5.934   7.427  1.2639  2.5615 -1.6175
   88MOL   H10015934   0.530   5.782   7.680 -0.0024  2.2648  1.3781
   88MOL   C10115935   0.308   6.126   7.517  0.1574 -0.3029 -0.3851
   88MOL   C10215936   0.439   6.198   7.456  0.2147  0.1117 -0.9182
   88MOL   C10315937   0.477   6.316   7.551 -0.5306 -0.5713 -0.2994
   88MOL   O10415938   0.447   6.437   7.531 -0.8022 -0.1750  0.0687
   88MOL   O10515939   0.552   6.265   7.648 -0.5880  0.1421  0.4656
   88MOL   H10615940   0.281   6.169   7.613 -1.0194  0.5824 -1.1075
   88MOL   H10715941   0.224   6.157   7.455  1.1952 -0.3329 -1.8309
   88MOL   H10815942   0.519   6.124   7.453 -0.4764 -0.6026 -4.5734
   88MOL   H10915943   0.569   6.338   7.705  3.0345 -0.0181 -0.2997
   88MOL   C11015944   0.422   6.243   7.313  0.5560  0.0456  0.8829
   88MOL   C11115945   0.402   6.125   7.207 -0.4418 -0.3934  0.1238
   88MOL   C11215946   0.533   6.044   7.203  0.1487 -0.3110  0.0116
   88MOL   O11315947   0.643   6.089   7.166 -0.1189 -0.2798  0.1992
   88MOL   O11415948   0.515   5.913   7.240 -0.0551 -0.4116 -0.3408
   88MOL   H11515949   0.501   6.312   7.284 -0.7060  1.2926  0.3328
   88MOL   H11615950   0.324   6.288   7.297  1.2632  0.7904 -1.6191
   88MOL   H11715951   0.322   6.058   7.236 -0.9540  0.6518  1.1569
   88MOL   H11815952   0.593   5.860   7.227  1.3445  1.2634  0.8861
   88MOL   C11915953   0.364   6.175   7.070  0.4082  0.1657 -0.0695
   88MOL   C12015954   0.341   6.057   6.970 -0.2153  0.4374  0.3503
   88MOL   C12115955   0.458   6.033   6.877 -0.0167  0.4954 -0.4427
   88MOL   O12215956   0.529   6.119   6.826  0.9352 -0.0414 -0.6578
   88MOL   O12315957   0.463   5.900   6.840 -0.1341  0.0167  0.1825
   88MOL   H12415958   0.437   6.246   7.031  1.0996 -0.3435  0.2746
   88MOL   H12515959   0.271   6.232   7.071  1.4243  1.8927 -1.6206
   88MOL   H12615960   0.337   5.963   7.025  1.8475 -0.8617 -1.6093
   88MOL   H12715961   0.511   5.904   6.759  0.7697  1.0459  0.7608
   88MOL   C12815962   0.201   6.066   6.895  0.4360 -0.1242  0.3879
   88MOL   C12915963   0.203   6.155   6.764 -0.0713  0.1910 -0.0654
   88MOL   C13015964   0.220   6.307   6.785 -0.0303  0.7349 -0.0585
   88MOL   O13115965   0.151   6.377   6.859  1.2685  0.2015 -0.5915
   88MOL   O13215966   0.304   6.361   6.690  0.3819  0.2036  0.4709
   88MOL   H13315967   0.128   6.106   6.965  0.6811  0.2665  0.4263
   88MOL   H13415968   0.163   5.967   6.872 -1.2362  0.5065  0.3732
   88MOL   H13515969   0.286   6.128   6.698 -1.1353 -0.2738 -1.2287
   88MOL   H13615970   0.305   6.455   6.698 -3.3534  0.4614 -0.7556
   88MOL   C13715971   0.078   6.114   6.680 -0.6638  1.1441 -0.1541
   88MOL   C13815972   0.033   6.187   6.549  0.2923 -0.6550  0.6314
   88MOL   C13915973   7.759   6.121   6.490  0.1337  0.0363  0.2085
   88MOL   O14015974   7.725   6.007   6.522 -0.1242  0.1212  0.1450
   88MOL   O14115975   7.693   6.207   6.411  0.2942 -0.1124  0.1846
   88MOL   H14215976   7.844   6.110   6.747  0.5297 -1.7966  1.2774
   88MOL   H14315977   0.099   6.011   6.654 -0.5892  1.1015  0.0762
   88MOL   H14415978   0.008   6.292   6.566 -0.5385 -0.5431 -1.1641
   88MOL   H14515979   7.615   6.174   6.369  0.5731  0.4389 -0.7904
   88MOL   C14615980   0.153   6.186   6.455  0.6030  0.6780  0.5548
   88MOL   C14715981   0.143   6.258   6.317  0.3484  0.4281 -0.3811
   88MOL   C14815982   0.255   6.209   6.225  0.0536  0.0081 -0.6264
   88MOL   O14915983   0.366   6.172   6.266  0.2221  0.6198 -0.0550
   88MOL   O15015984   0.226   6.230   6.096  0.2518 -0.5180 -0.0390
   88MOL   H15115985   0.174   6.082   6.430 -0.2984  1.0350 -1.7632
   88MOL   H15215986   0.248   6.212   6.502  1.7739 -1.0411 -0.7702
   88MOL   H15315987   0.048   6.229   6.271  0.0674  0.2437  0.3173
   88MOL   H15415988   0.303   6.221   6.043 -0.4099 -0.8821 -0.9459
   88MOL   C15515989   0.132   6.415   6.326 -0.0330 -0.4923  0.0060
   88MOL   C15615990   0.073   6.484   6.208 -0.2557  0.1644 -0.3842
   88MOL   C15715991   0.093   6.637   6.217 -0.2358 -0.8067 -0.0303
   88MOL   O15815992   0.170   6.710   6.148  0.0467 -0.6042  0.2686
   88MOL   O15915993   7.842   6.699   6.282  0.4439  0.2788 -0.2232
   88MOL   H16015994   0.230   6.460   6.333 -1.7348  3.3086  0.6345
   88MOL   H16115995   0.079   6.441   6.417  1.8119  1.4682  0.5400
   88MOL   H16215996   0.126   6.452   6.118 -0.0566  0.0733 -0.2348
   88MOL   H16315997   7.841   6.793   6.275  1.9575  0.3619  0.3150
   88MOL   C16415998   7.778   6.454   6.171  0.0324 -0.1231 -0.1065
   88MOL   C16515999   7.753   6.353   6.063 -0.1862  0.5323 -0.1222
   88MOL   C16616000   7.764   6.429   5.933  0.4589  0.2653 -0.2888
   88MOL   O16716001   7.665   6.453   5.867  0.2926 -0.8050 -0.2884
   88MOL   O16816002   0.041   6.446   5.883  0.2049 -0.4775 -0.8082
   88MOL   H16916003   7.740   6.548   6.131 -0.9346 -0.8105 -0.8018
   88MOL   H17016004   7.734   6.455   6.271  0.4847 -0.2369  0.0959
   88MOL   H17116005   7.834   6.281   6.049  1.5553  2.1184  1.4373
   88MOL   H17216006   0.033   6.487   5.798 -2.9849  1.5610  0.3816
   88MOL   C17316007   7.622   6.274   6.079  0.0471 -0.7048 -0.3177
   88MOL   C17416008   7.625   6.135   6.023 -0.1539  0.1694  0.3572
   88MOL   C17516009   7.689   6.020   6.109  0.1908 -0.0734  0.3677
   88MOL   O17616010   7.812   5.989   6.104  0.2555 -0.2230  0.1191
   88MOL   O17716011   7.593   5.963   6.189 -0.2639 -0.4722 -0.1566
   88MOL   H17816012   7.544   6.335   6.033 -0.1518  0.7995  1.9246
   88MOL   H17916013   7.593   6.288   6.183  0.4895 -0.2940 -0.2451
   88MOL   H18016014   7.526   6.107   5.989 -0.3554  1.1407  0.1283
   88MOL   H18116015   7.627   5.882   6.223 -0.4285 -0.6515 -0.4162
   88MOL   H18216016   7.678   6.138   5.927  1.7186  0.6370  1.3762
   89MOL     C116017   4.932   7.151   3.762  0.6547 -0.1916  0.1292
   89MOL     C216018   5.036   7.178   3.871 -1.2524  0.5850  0.1838
   89MOL     C316019   5.082   7.323   3.863 -0.0043 -0.7894  0.6701
   89MOL     O416020   5.199   7.352   3.837 -1.2597 -0.7171  0.0317
   89MOL     O516021   4.987   7.411   3.881  0.1718 -0.5366 -0.4330
   89MOL     H616022   4.882   7.055   3.768  0.7219 -0.1770  0.9816
   89MOL     H716023   4.856   7.230   3.758  2.9880  2.0876 -0.3609
   89MOL     H816024   4.982   7.167   3.965 -1.4851 -0.1081 -0.0351
   89MOL     H916025   5.019   7.498   3.864 -1.4550  0.1355 -0.1403
   89MOL    H1016026   4.978   7.134   3.664  1.2039  1.2524  0.1243
   89MOL    C1116027   5.159   7.080   3.879 -0.1981  1.1439  0.3204
   89MOL    C1216028   5.115   6.928   3.880 -0.0557  0.2831 -0.4569
   89MOL    C1316029   5.040   6.889   4.008  0.0990  0.5090  0.1977
   89MOL    O1416030   5.025   6.962   4.111 -0.1281  0.0418 -0.4653
   89MOL    O1516031   4.989   6.763   3.998 -0.1074  0.5968  0.0508
   89MOL    H1616032   5.226   7.099   3.963 -0.9559  0.0229  1.1915
   89MOL    H1716033   5.210   7.098   3.784  3.0238 -0.0167  1.7656
   89MOL    H1816034   5.036   6.918   3.805  0.7346  0.0947 -1.2804
   89MOL    H1916035   4.936   6.735   4.071  0.5024  0.6886  0.5363
   89MOL    C2016036   5.237   6.835   3.852  0.6646 -0.2541 -0.5425
   89MOL    C2116037   5.316   6.844   3.716 -0.2685  0.6491  0.4748
   89MOL    C2216038   5.222   6.827   3.589 -0.6158 -0.0527 -0.1078
   89MOL    O2316039   5.172   6.924   3.529  0.4638  0.6243 -0.7223
   89MOL    O2416040   5.205   6.697   3.544 -0.4911 -0.0318 -0.2419
   89MOL    H2516041   5.203   6.735   3.875  0.5844  0.1772  1.2495
   89MOL    H2616042   5.300   6.872   3.933  0.3695  0.4486 -0.6253
   89MOL    H2716043   5.342   6.949   3.720  1.2293  0.2317  2.8444
   89MOL    H2816044   5.138   6.708   3.479  0.4790  1.0383 -1.0765
   89MOL    C2916045   5.436   6.748   3.710  0.3366  0.0524 -0.3312
   89MOL    C3016046   5.569   6.818   3.737 -0.7838  0.1354  0.5488
   89MOL    C3116047   5.678   6.757   3.650  0.0695  0.0058 -0.1943
   89MOL    O3216048   5.672   6.641   3.602 -0.0810 -0.0396  0.2050
   89MOL    O3316049   5.786   6.839   3.629  0.0445 -0.5755 -0.6056
   89MOL    H3416050   5.451   6.693   3.617  1.7869  2.4073 -1.5600
   89MOL    H3516051   5.413   6.674   3.786 -0.7263  0.8808  0.1652
   89MOL    H3616052   5.556   6.923   3.710  1.2006  0.6433  1.4772
   89MOL    H3716053   5.843   6.786   3.575  2.7697  1.6022  0.0273
   89MOL    C3816054   5.604   6.811   3.883  0.4189 -0.6883 -0.1283
   89MOL    C3916055   5.684   6.931   3.944  0.1081  0.1504 -0.4720
   89MOL    C4016056   5.830   6.892   3.926 -0.8476 -0.1414  0.1132
   89MOL    O4116057   5.884   6.797   3.977  0.3458 -0.0748  0.1779
   89MOL    O4216058   5.897   6.977   3.841  0.0222 -0.2645 -0.4930
   89MOL    H4316059   5.643   6.711   3.901  0.2200 -1.3993 -3.3817
   89MOL    H4416060   5.512   6.815   3.941  0.0354 -0.9121 -0.7135
   89MOL    H4516061   5.661   7.009   3.871  0.8328  0.6734 -0.1433
   89MOL    H4616062   5.974   6.939   3.802  0.7314 -2.1194  2.5775
   89MOL    C4716063   5.641   6.986   4.081 -0.0554 -0.3407  0.5997
   89MOL    C4816064   5.683   7.137   4.108 -0.1747 -0.4304  0.3382
   89MOL    C4916065   5.790   7.134   4.216 -0.3281  0.0156 -0.1779
   89MOL    O5016066   5.769   7.177   4.327  0.6719  0.1462 -0.6672
   89MOL    O5116067   5.901   7.067   4.177 -0.7004 -0.4026 -0.3369
   89MOL    H5216068   5.677   6.927   4.166  1.6508  0.4832  0.4810
   89MOL    H5316069   5.533   6.977   4.077 -0.1520  1.0032  0.0724
   89MOL    H5416070   5.738   7.170   4.020 -1.4671  0.9406  0.0377
   89MOL    H5516071   5.962   7.063   4.250 -2.2014 -0.1024  0.9729
   89MOL    C5616072   5.551   7.219   4.142 -0.3055  0.8059  0.8028
   89MOL    C5716073   5.553   7.371   4.136  0.5683 -0.6003  0.3213
   89MOL    C5816074   5.620   7.435   4.258  1.0252  0.3834 -0.6619
   89MOL    O5916075   5.577   7.414   4.372 -0.3093  0.2310 -0.5209
   89MOL    O6016076   5.707   7.532   4.232  0.0185  0.2234 -0.4450
   89MOL    H6116077   5.504   7.188   4.235 -1.5319  2.8708  0.8921
   89MOL    H6216078   5.485   7.196   4.058  0.0170  1.4428  0.3630
   89MOL    H6316079   5.614   7.394   4.049 -2.3907 -0.9911 -1.9392
   89MOL    H6416080   5.724   7.575   4.314  0.0846 -0.9967  0.1960
   89MOL    C6516081   5.411   7.433   4.114 -0.5585  0.1233  0.1242
   89MOL    C6616082   5.399   7.588   4.121 -0.6869  0.7504 -0.1211
   89MOL    C6716083   5.370   7.629   4.267 -0.0492  0.0241 -0.2739
   89MOL    O6816084   5.446   7.709   4.330  0.9311 -0.1629  0.2889
   89MOL    O6916085   5.260   7.572   4.317  0.6095 -0.6488  0.2739
   89MOL    H7016086   5.350   7.383   4.189 -1.4072  1.1891  0.1655
   89MOL    H7116087   5.373   7.392   4.020 -0.1455 -0.2045  0.0998
   89MOL    H7216088   5.493   7.630   4.085  0.4248 -0.0284  1.8211
   89MOL    H7316089   5.244   7.616   4.399 -1.4337  1.1095 -1.0076
   89MOL    C7416090   5.292   7.638   4.030 -0.4586 -0.1829  0.3618
   89MOL    C7516091   5.269   7.792   4.012 -0.3431  0.0909 -0.2008
   89MOL    C7616092   5.148   7.852   4.080  0.5972  1.1398  0.5807
   89MOL    O7716093   5.040   0.011   4.025  0.1619  0.5824  0.2768
   89MOL    O7816094   5.159   0.040   4.210  0.4627 -0.0840  0.4540
   89MOL    H7916095   5.200   7.598   4.072  0.9444 -0.3648  3.3699
   89MOL    H8016096   5.293   7.587   3.933 -1.6429 -0.9573  0.7559
   89MOL    H8116097   5.349   7.840   4.068 -1.5397  2.1174 -0.1585
   89MOL    H8216098   5.083   0.086   4.243 -0.6803 -2.4971  1.2953
   89MOL    C8316099   5.286   7.835   3.868  0.2293 -0.1019  0.0084
   89MOL    C8416100   5.430   0.024   3.821 -0.1581  0.6204 -0.6164
   89MOL    C8516101   5.473   0.167   3.847  0.5861 -0.1187  0.4810
   89MOL    O8616102   5.539   0.229   3.760  0.3682 -0.4795  0.3467
   89MOL    O8716103   5.429   0.214   3.970  0.5783  0.5321 -0.1240
   89MOL    H8816104   5.218   0.068   3.861 -0.3809 -0.5102  0.8284
   89MOL    H8916105   5.246   7.760   3.800  0.0807  0.4535 -0.5296
   89MOL    H9016106   5.498   7.814   3.879 -0.3977  0.6938 -0.2532
   89MOL    H9116107   5.476   0.295   3.982 -0.4888  0.7773  2.6428
   89MOL    C9216108   5.454   7.834   3.673  0.7166  0.0415 -0.1581
   89MOL    C9316109   5.484   7.678   3.648  0.2125 -0.7734 -0.0657
   89MOL    C9416110   5.620   7.646   3.702 -1.0478 -0.7619  0.0591
   89MOL    O9516111   5.641   7.599   3.814  0.0587 -0.4037 -0.1833
   89MOL    O9616112   5.721   7.678   3.619  0.5877  0.1556 -0.4559
   89MOL    H9716113   5.534   0.029   3.616 -1.2637 -0.3335 -3.4052
   89MOL    H9816114   5.362   0.010   3.622  1.6397  3.0716 -0.2239
   89MOL    H9916115   5.414   7.617   3.706  0.3287 -0.6526  0.2003
   89MOL   H10016116   5.809   7.645   3.632  0.8453  0.8958 -0.3125
   89MOL   C10116117   5.481   7.630   3.501 -0.4724  0.0315 -0.1202
   89MOL   C10216118   5.348   7.597   3.439 -0.0004  0.8617  0.2497
   89MOL   C10316119   5.237   7.707   3.453 -0.6570  0.7061  0.2291
   89MOL   O10416120   5.148   7.710   3.537 -0.0847  0.5888  0.3182
   89MOL   O10516121   5.257   7.802   3.358 -0.5390 -1.0062 -0.2137
   89MOL   H10616122   5.552   7.549   3.484 -1.0347  0.0013 -2.5539
   89MOL   H10716123   5.523   7.709   3.439  0.4705  1.3881  2.1706
   89MOL   H10816124   5.382   7.587   3.336 -1.9819 -0.5101 -0.3003
   89MOL   H10916125   5.323   7.781   3.294 -0.9579  0.2241 -1.0778
   89MOL   C11016126   5.292   7.459   3.472  0.0764 -0.4325  0.0204
   89MOL   C11116127   5.232   7.368   3.357 -0.3958 -0.4231  0.7416
   89MOL   C11216128   5.347   7.276   3.298 -0.7612  0.5451  0.1485
   89MOL   O11316129   5.409   7.299   3.195 -0.4364  0.3922 -0.0482
   89MOL   O11416130   5.383   7.169   3.375  0.1979  0.3788 -1.0405
   89MOL   H11516131   5.216   7.467   3.550  0.8244  1.3814  0.5671
   89MOL   H11616132   5.359   7.395   3.530 -0.3492  1.8158  3.1246
   89MOL   H11716133   5.158   7.306   3.408 -0.4175 -0.2650  0.9023
   89MOL   H11816134   5.341   7.157   3.459 -0.8203  0.0637 -1.5927
   89MOL   C11916135   5.146   7.448   3.257  0.6209  0.2648  0.2206
   89MOL   C12016136   5.087   7.371   3.135 -0.6959  0.0000  0.1605
   89MOL   C12116137   5.025   7.468   3.031 -0.5946  0.4577 -1.4293
   89MOL   O12216138   5.034   7.586   3.029  0.2515 -0.1787  0.1233
   89MOL   O12316139   4.976   7.404   2.930 -0.2484  0.3712  0.3558
   89MOL   H12416140   5.213   7.521   3.212 -0.9839  0.6776 -1.5948
   89MOL   H12516141   5.072   7.505   3.311  1.1309 -0.1836  1.4063
   89MOL   H12616142   5.170   7.321   3.085 -1.1974  1.0850 -1.8043
   89MOL   H12716143   4.945   7.460   2.862 -3.8963 -0.8387  0.9250
   89MOL   C12816144   4.981   7.270   3.185 -0.9903 -0.3140 -0.1783
   89MOL   C12916145   5.025   7.122   3.220 -0.4377  0.1152 -0.3638
   89MOL   C13016146   5.096   7.033   3.107  0.6247  0.1071 -0.6736
   89MOL   O13116147   5.147   6.924   3.123  0.0206 -0.2587  0.1109
   89MOL   O13216148   5.085   7.100   2.988  0.8543 -0.1017 -0.2990
   89MOL   H13316149   4.907   7.254   3.107 -2.1191 -0.6699  0.9280
   89MOL   H13416150   4.927   7.326   3.262  2.0258  1.2057  0.8789
   89MOL   H13516151   5.098   7.129   3.301 -0.9223  1.5695 -0.0250
   89MOL   H13616152   5.117   7.052   2.914 -0.0575 -0.2901 -0.5727
   89MOL   C13716153   4.915   7.038   3.287 -0.3587 -0.1218  0.1873
   89MOL   C13816154   4.805   6.984   3.191  0.0948 -0.2641  0.5508
   89MOL   C13916155   4.685   7.082   3.164  0.1609 -0.2848  0.5556
   89MOL   O14016156   4.596   7.052   3.087 -0.4049  0.3157  0.0425
   89MOL   O14116157   4.685   7.201   3.232 -0.5050 -0.2957  0.1103
   89MOL   H14216158   4.874   7.096   3.369 -0.7496  1.5921 -1.1845
   89MOL   H14316159   4.959   6.951   3.336  0.0148  0.5787  1.0995
   89MOL   H14416160   4.850   6.965   3.094  0.5452  1.0851  0.4845
   89MOL   H14516161   4.602   7.243   3.217 -0.8534 -1.2559 -0.7381
   89MOL   C14616162   4.751   6.842   3.236 -0.0398  0.1773  0.2534
   89MOL   C14716163   4.703   6.820   3.377 -0.6194 -0.3750 -0.5417
   89MOL   C14816164   4.704   6.664   3.410 -0.0008 -0.5843  0.7200
   89MOL   O14916165   4.624   6.589   3.359 -0.4632 -0.5911  1.1440
   89MOL   O15016166   4.791   6.634   3.505 -0.6992 -0.5436  0.4139
   89MOL   H15116167   4.837   6.776   3.229 -0.4031 -0.2989  0.3164
   89MOL   H15216168   4.684   6.794   3.165  1.3616  0.6450 -1.4226
   89MOL   H15316169   4.769   6.882   3.437 -1.4406 -2.6148  2.8161
   89MOL   H15416170   4.784   6.541   3.516 -1.4956 -0.3938  1.2664
   89MOL   C15516171   4.560   6.876   3.396 -0.3811 -0.4713 -0.6297
   89MOL   C15616172   4.505   6.874   3.542 -0.4684 -0.0856  0.3993
   89MOL   C15716173   4.358   6.922   3.537 -0.0328  0.3614  0.5367
   89MOL   O15816174   4.263   6.848   3.512  0.3654 -0.0853  0.0224
   89MOL   O15916175   4.345   7.052   3.569  0.5532 -0.5550  0.2673
   89MOL   H16016176   4.488   6.815   3.341 -0.1149 -0.8093 -0.6057
   89MOL   H16116177   4.550   6.980   3.364 -0.3436 -0.2924 -0.0692
   89MOL   H16216178   4.487   6.774   3.583  2.0813  0.3948  2.8624
   89MOL   H16316179   4.254   7.075   3.576  0.6571 -0.5514  1.8713
   89MOL   C16416180   4.589   6.944   3.653 -0.2085  0.2103  0.5383
   89MOL   C16516181   4.578   6.875   3.795 -0.0556  0.1445  0.3639
   89MOL   C16616182   4.585   6.990   3.900  0.1685  0.5647  0.3288
   89MOL   O16716183   4.484   7.053   3.941  0.3653  0.5065  0.4778
   89MOL   O16816184   4.713   7.014   3.950  0.1706  0.6115  0.4737
   89MOL   H16916185   4.559   7.049   3.662  0.3940  0.6317 -2.1485
   89MOL   H17016186   4.694   6.959   3.629 -0.4321 -0.8893 -1.1527
   89MOL   H17116187   4.481   6.829   3.811 -0.9983  2.0385  0.2720
   89MOL   H17216188   4.699   7.068   4.026 -3.7500 -1.8480  1.6688
   89MOL   C17316189   4.695   6.775   3.818 -0.4107  1.0248  0.3130
   89MOL   C17416190   4.663   6.672   3.934 -0.2505  0.3998 -0.1500
   89MOL   C17516191   4.658   6.737   4.073 -0.1989 -0.2993  0.7806
   89MOL   O17616192   4.760   6.766   4.131 -0.3786  0.2061  0.3457
   89MOL   O17716193   4.531   6.777   4.103 -0.4464  0.0072  0.1431
   89MOL   H17816194   4.792   6.821   3.835 -0.2014 -0.7633  4.3659
   89MOL   H17916195   4.712   6.715   3.729 -1.8636 -1.3635  1.6116
   89MOL   H18016196   4.575   6.609   3.922 -2.4228  2.9015  2.1523
   89MOL   H18116197   4.531   6.833   4.179 -0.9541 -0.3523  0.4130
   89MOL   H18216198   4.746   6.601   3.940  0.5160  1.2746 -0.2181
   90MOL     C116199   6.532   5.738   5.425  0.0838 -0.0514 -0.5097
   90MOL     C216200   6.436   5.643   5.501  0.2990  0.0816  0.2826
   90MOL     C316201   6.444   5.496   5.457 -0.0520  0.4125  0.0203
   90MOL     O416202   6.420   5.455   5.339 -0.1121 -0.0045 -0.1855
   90MOL     O516203   6.474   5.411   5.565  0.6276 -0.2031  0.2568
   90MOL     H616204   6.521   5.835   5.472 -3.8631 -1.7446  2.3336
   90MOL     H716205   6.638   5.714   5.430  0.0056 -0.3296 -0.1398
   90MOL     H816206   6.481   5.651   5.600 -2.4242  0.2015  1.5470
   90MOL     H916207   6.470   5.467   5.641  0.0108  1.0903 -0.7012
   90MOL    H1016208   6.511   5.754   5.319  1.5912  3.3964 -0.3422
   90MOL    C1116209   6.292   5.706   5.501  0.5339  0.3245  0.5652
   90MOL    C1216210   6.183   5.616   5.565  0.4503 -0.2538 -0.1920
   90MOL    C1316211   6.055   5.622   5.481  0.4740  0.5254 -0.3464
   90MOL    O1416212   5.947   5.670   5.522 -0.0905 -0.1587 -0.3554
   90MOL    O1516213   6.075   5.568   5.356  0.0638  0.1524 -0.0521
   90MOL    H1616214   6.274   5.717   5.394 -0.7683 -1.5193  0.5779
   90MOL    H1716215   6.293   5.804   5.549  1.8676  0.0454  1.1353
   90MOL    H1816216   6.223   5.515   5.564  0.2037 -0.3765  1.1316
   90MOL    H1916217   6.003   5.600   5.304  0.5534  1.9146  0.3301
   90MOL    C2016218   6.153   5.648   5.716  0.5221  0.3170 -0.8135
   90MOL    C2116219   6.112   5.513   5.788 -0.4541 -0.0741  0.2542
   90MOL    C2216220   6.028   5.534   5.913  0.0683 -0.4719 -0.0075
   90MOL    O2316221   6.019   5.633   5.984  0.4252 -0.2800  0.4202
   90MOL    O2416222   5.965   5.417   5.937 -0.5486 -0.0070 -0.0593
   90MOL    H2516223   6.067   5.714   5.723 -0.6132 -0.9992 -1.9403
   90MOL    H2616224   6.237   5.698   5.764  0.9957 -0.5068 -0.7675
   90MOL    H2716225   6.035   5.474   5.721 -1.0270  1.9114 -0.3057
   90MOL    H2816226   5.920   5.426   6.020  0.1493 -2.1650  0.5722
   90MOL    C2916227   6.222   5.410   5.803 -0.2604  0.0702  0.3065
   90MOL    C3016228   6.323   5.418   5.926 -0.1270  0.0445 -0.4467
   90MOL    C3116229   6.402   5.546   5.920 -0.1928 -0.7110 -0.4169
   90MOL    O3216230   6.485   5.567   5.827  0.0834 -0.3443  0.2350
   90MOL    O3316231   6.349   5.640   5.999  0.1512 -0.3235 -0.6385
   90MOL    H3416232   6.280   5.391   5.714  1.3753 -2.3472  1.8386
   90MOL    H3516233   6.154   5.325   5.797 -1.1524  0.8215 -0.3915
   90MOL    H3616234   6.268   5.418   6.021  1.0757 -0.9505  0.2547
   90MOL    H3716235   6.382   5.722   5.966 -0.5689  0.0706 -0.3748
   90MOL    C3816236   6.414   5.295   5.933  0.0515  0.0662  0.5258
   90MOL    C3916237   6.471   5.255   6.073  0.2143 -0.0802  0.1936
   90MOL    C4016238   6.555   5.129   6.061 -1.2547  0.0040 -0.1151
   90MOL    O4116239   6.530   5.042   5.980 -0.2377  0.7646  0.2368
   90MOL    O4216240   6.656   5.140   6.154 -0.6719 -0.4272 -0.5218
   90MOL    H4316241   6.495   5.310   5.862 -1.6196  0.9154 -1.2373
   90MOL    H4416242   6.351   5.216   5.894  1.2143 -0.8491  0.4622
   90MOL    H4516243   6.543   5.332   6.103  1.2003 -0.7168 -0.5161
   90MOL    H4616244   6.714   5.067   6.137 -0.2375 -0.0989 -0.4766
   90MOL    C4716245   6.361   5.231   6.187  0.3708  0.0151  0.3934
   90MOL    C4816246   6.217   5.169   6.150 -0.9176 -0.9246  0.2568
   90MOL    C4916247   6.133   5.166   6.275  0.2146  0.0129 -0.1761
   90MOL    O5016248   6.018   5.218   6.280  0.0514  0.2374 -0.3018
   90MOL    O5116249   6.188   5.112   6.386 -0.7632  0.3464 -0.0481
   90MOL    H5216250   6.335   5.325   6.234 -1.0533 -1.0559  1.7887
   90MOL    H5316251   6.401   5.164   6.263 -0.5302 -3.8962 -2.4059
   90MOL    H5416252   6.168   5.235   6.077 -1.0929  0.0341  1.2279
   90MOL    H5516253   6.138   5.133   6.463  0.6920  0.4756  0.8921
   90MOL    C5616254   6.225   5.025   6.085  0.5211  0.1894 -0.5068
   90MOL    C5716255   6.089   4.950   6.063 -0.1201 -0.7732  0.1673
   90MOL    C5816256   6.103   4.808   6.113  0.7800 -0.2345 -0.4207
   90MOL    O5916257   6.206   4.769   6.165  0.1029 -0.0485  0.4863
   90MOL    O6016258   5.993   4.734   6.116 -0.0959  0.2544  0.0221
   90MOL    H6116259   6.293   4.964   6.146  0.1387  0.3835  0.1241
   90MOL    H6216260   6.279   5.038   5.991  0.5615 -0.2387 -0.5428
   90MOL    H6316261   6.008   4.986   6.128 -0.4947 -1.1285 -0.0992
   90MOL    H6416262   6.008   4.647   6.150 -0.0300  0.0503 -0.5216
   90MOL    C6516263   6.044   4.953   5.916 -0.4168  0.6993  0.3690
   90MOL    C6616264   6.129   4.875   5.805  0.0837  0.8371  1.4371
   90MOL    C6716265   6.231   4.960   5.731 -0.3303  0.1392  0.0946
   90MOL    O6816266   6.228   5.080   5.712  0.2596  0.0719 -0.0288
   90MOL    O6916267   6.315   4.883   5.654  0.6513  0.0307  0.2024
   90MOL    H7016268   6.041   5.058   5.888  0.2306  1.1772  2.0494
   90MOL    H7116269   5.939   4.924   5.915 -0.5095  0.8795  2.8088
   90MOL    H7216270   6.194   4.798   5.847  0.8402  0.4239 -0.4396
   90MOL    H7316271   6.372   4.925   5.592 -0.4246 -1.4837 -1.9101
   90MOL    C7416272   6.040   4.809   5.694 -0.2815 -0.7304 -0.1592
   90MOL    C7516273   5.972   4.688   5.752 -0.0278 -0.1534  0.4501
   90MOL    C7616274   6.067   4.570   5.778 -0.1746  0.0771  0.0536
   90MOL    O7716275   6.149   4.537   5.698  0.0703 -0.2581 -0.0474
   90MOL    O7816276   6.047   4.503   5.892 -0.1334 -0.1435 -0.9568
   90MOL    H7916277   6.092   4.789   5.600  0.0088  0.7144 -0.3051
   90MOL    H8016278   5.975   4.888   5.656  1.3690  0.3249 -0.8515
   90MOL    H8116279   5.949   4.719   5.854  0.1890  0.4226  0.3269
   90MOL    H8216280   6.111   4.433   5.883 -0.0870 -0.2969  0.3987
   90MOL    C8316281   5.844   4.636   5.686  0.2784 -0.3581 -0.1120
   90MOL    C8416282   5.715   4.628   5.775  0.9246 -0.2311 -0.1598
   90MOL    C8516283   5.612   4.536   5.703 -0.4544 -0.4932 -0.3716
   90MOL    O8616284   5.590   4.429   5.758 -0.6370  0.4680  0.2765
   90MOL    O8716285   5.560   4.582   5.588 -0.6138  0.1027 -0.0180
   90MOL    H8816286   5.867   4.536   5.648 -2.8256 -0.5459 -1.6770
   90MOL    H8916287   5.820   4.700   5.601 -2.4322 -0.0935  0.7979
   90MOL    H9016288   5.733   4.582   5.872  2.0094  1.5418  0.5174
   90MOL    H9116289   5.510   4.510   5.554  0.5210 -0.4071 -0.6196
   90MOL    C9216290   5.651   4.768   5.788  0.8795  0.9785 -0.2261
   90MOL    C9316291   5.549   4.795   5.902 -0.8570  0.0543  0.4788
   90MOL    C9416292   5.588   4.731   6.034  0.0393  0.2560 -0.0222
   90MOL    O9516293   5.543   4.620   6.065 -0.2902  0.1587  0.4952
   90MOL    O9616294   5.691   4.790   6.103 -0.1476  0.6350 -0.3595
   90MOL    H9716295   5.608   4.807   5.696  2.2157  1.0130 -0.8372
   90MOL    H9816296   5.737   4.834   5.799  1.8773 -0.4851  0.7983
   90MOL    H9916297   5.572   4.901   5.912 -2.8456  0.5387  0.1608
   90MOL   H10016298   5.700   4.741   6.183 -0.0622 -0.2443 -0.9052
   90MOL   C10116299   5.398   4.773   5.880  0.1983 -0.4595 -0.2718
   90MOL   C10216300   5.321   4.901   5.831  0.2486  0.0331 -0.6749
   90MOL   C10316301   5.302   5.000   5.947 -0.5694 -0.1681  0.2451
   90MOL   O10416302   5.345   4.980   6.061 -0.2504 -0.0593  0.4751
   90MOL   O10516303   5.223   5.102   5.911 -0.2425 -0.2176  0.2307
   90MOL   H10616304   5.347   4.739   5.970  0.7875  0.9259  0.5958
   90MOL   H10716305   5.391   4.682   5.820  2.6054 -0.6389 -0.3356
   90MOL   H10816306   5.384   4.937   5.750  2.1010  2.0237  1.5655
   90MOL   H10916307   5.191   5.143   5.990  0.5328  1.3431 -0.2424
   90MOL   C11016308   5.181   4.863   5.773  0.6150 -0.2746  0.0405
   90MOL   C11116309   5.188   4.781   5.642  0.3427  0.1327  0.3089
   90MOL   C11216310   5.216   4.859   5.515 -0.1762 -0.3185  0.6497
   90MOL   O11316311   5.139   4.951   5.482 -0.1907  0.4744  0.1302
   90MOL   O11416312   5.328   4.819   5.441 -0.3913 -0.1966  0.2378
   90MOL   H11516313   5.126   4.956   5.762  0.6460  0.0692  2.5336
   90MOL   H11616314   5.127   4.817   5.856 -2.2965 -1.2643 -2.2826
   90MOL   H11716315   5.278   4.719   5.644 -0.0101 -0.5844 -3.2478
   90MOL   H11816316   5.353   4.879   5.372  2.5980 -0.9221  0.6142
   90MOL   C11916317   5.064   4.685   5.634  0.0343  0.1123  0.7153
   90MOL   C12016318   5.064   4.562   5.720  0.6947  0.6661  0.1016
   90MOL   C12116319   5.121   4.442   5.645  0.2843 -0.1453  0.1361
   90MOL   O12216320   5.063   4.393   5.546 -0.0213  0.4648  0.0417
   90MOL   O12316321   5.241   4.398   5.682 -0.5229  0.9268  0.5934
   90MOL   H12416322   5.056   4.652   5.530  0.4411  0.5962  0.5287
   90MOL   H12516323   4.973   4.745   5.646 -0.4671 -0.5065  0.0471
   90MOL   H12616324   5.126   4.576   5.809 -2.4128  0.6513  2.3419
   90MOL   H12716325   5.280   4.336   5.622 -1.4775 -0.0896  1.0076
   90MOL   C12816326   4.921   4.528   5.781  0.1302  0.4374 -0.0944
   90MOL   C12916327   4.877   4.632   5.889  0.1887 -0.1030 -0.0031
   90MOL   C13016328   4.892   4.561   6.025 -0.1256 -0.2043  0.1383
   90MOL   O13116329   4.812   4.480   6.067  0.5566 -0.0682  0.2170
   90MOL   O13216330   5.012   4.583   6.087  0.5791  0.7385 -0.3745
   90MOL   H13316331   4.907   4.424   5.810  0.0029  0.0964 -1.3702
   90MOL   H13416332   4.848   4.538   5.701 -1.0068 -0.7053  0.7844
   90MOL   H13516333   4.946   4.716   5.896  2.6392 -1.9735 -1.1007
   90MOL   H13616334   5.033   4.519   6.153  0.1671  0.4201 -0.5453
   90MOL   C13716335   4.729   4.683   5.878  0.4284 -0.2377 -0.3817
   90MOL   C13816336   4.697   4.818   5.809  0.2507 -0.5275  1.0792
   90MOL   C13916337   4.644   4.793   5.668  0.7657 -0.1294  0.2458
   90MOL   O14016338   4.522   4.782   5.640  0.0035  0.1146 -0.4567
   90MOL   O14116339   4.743   4.781   5.569 -0.6510  0.7103  0.2744
   90MOL   H14216340   4.701   4.691   5.983  1.1030  2.8963 -0.3876
   90MOL   H14316341   4.663   4.603   5.843  0.8880 -0.0096 -1.8004
   90MOL   H14416342   4.609   4.853   5.863 -0.9875 -2.6978  0.5195
   90MOL   H14516343   4.699   4.782   5.485 -0.1758 -0.8155 -0.0029
   90MOL   C14616344   4.809   4.922   5.812 -0.1100  0.1429  0.7126
   90MOL   C14716345   4.791   5.067   5.780 -0.2188  0.5818 -0.4540
   90MOL   C14816346   4.889   5.108   5.668 -0.5140  0.7757 -0.4453
   90MOL   O14916347   5.001   5.152   5.694  0.2813 -0.5103 -0.3142
   90MOL   O15016348   4.840   5.094   5.544 -0.5151  0.2460 -0.2477
   90MOL   H15116349   4.886   4.876   5.751 -1.7444 -1.7054 -0.0076
   90MOL   H15216350   4.866   4.930   5.905  2.1168 -0.5769 -0.5664
   90MOL   H15316351   4.689   5.060   5.740 -0.7787 -1.2000  1.2226
   90MOL   H15416352   4.898   5.127   5.477 -0.4565 -0.1318 -0.3829
   90MOL   C15516353   4.785   5.168   5.899 -0.1068  0.5689 -0.3036
   90MOL   C15616354   4.672   5.137   6.006 -0.3416 -0.3110  0.1605
   90MOL   C15716355   4.535   5.187   5.954 -0.6575 -0.5360 -0.3262
   90MOL   O15816356   4.522   5.304   5.910 -0.9794 -0.2160 -0.2147
   90MOL   O15916357   4.442   5.085   5.953 -0.2916 -0.0040  0.0336
   90MOL   H16016358   4.772   5.268   5.857 -0.1337  1.3320  1.4814
   90MOL   H16116359   4.885   5.173   5.943 -0.5427 -0.2881  0.8055
   90MOL   H16216360   4.665   5.029   6.023  2.6038 -0.9129 -1.9273
   90MOL   H16316361   4.365   5.133   5.926 -1.6348 -1.1693  1.6873
   90MOL   C16416362   4.706   5.194   6.150  0.4484 -0.2654 -0.0628
   90MOL   C16516363   4.611   5.143   6.267 -1.1639 -0.0188 -0.5124
   90MOL   C16616364   4.548   5.265   6.342  0.2572 -0.3673 -0.3990
   90MOL   O16716365   4.609   5.372   6.347 -0.1957  0.2145  0.0529
   90MOL   O16816366   4.423   5.242   6.398  0.2921 -0.1515 -0.5811
   90MOL   H16916367   4.698   5.303   6.143  1.2035 -0.1437  0.8807
   90MOL   H17016368   4.811   5.172   6.170  1.1533  3.6733  0.9786
   90MOL   H17116369   4.517   5.097   6.236 -1.4004  0.0634  0.0785
   90MOL   H17216370   4.408   5.319   6.451  0.2820 -0.3198 -0.3374
   90MOL   C17316371   4.675   5.044   6.369 -0.4266  0.2330  0.2648
   90MOL   C17416372   4.715   4.911   6.305 -0.0710 -0.2158  0.1982
   90MOL   C17516373   4.596   4.828   6.263  0.0907  0.6359 -0.1590
   90MOL   O17616374   4.534   4.762   6.342 -0.1167  0.0144  0.3379
   90MOL   O17716375   4.565   4.840   6.131  0.4027 -0.0895  0.1337
   90MOL   H17816376   4.608   5.017   6.450 -0.5369 -0.1077  0.0607
   90MOL   H17916377   4.759   5.093   6.418 -0.6824 -0.0113  0.9458
   90MOL   H18016378   4.780   4.937   6.221 -0.4809  0.8205  0.1959
   90MOL   H18116379   4.482   4.802   6.109 -1.0743  2.8673  0.3401
   90MOL   H18216380   4.773   4.863   6.383 -0.1710 -0.2285  0.2644
   91MOL     C116381   5.688   6.648   3.147  0.3016  0.6073 -0.0515
   91MOL     C216382   5.560   6.724   3.172  0.7330  0.4370 -0.2678
   91MOL     C316383   5.580   6.857   3.241 -0.0752  0.3256 -0.3246
   91MOL     O416384   5.687   6.902   3.277 -0.0736  0.5170 -0.4449
   91MOL     O516385   5.470   6.933   3.232  0.4848  0.1179  0.4649
   91MOL     H616386   5.722   6.687   3.052 -2.2733 -1.6894 -2.0065
   91MOL     H716387   5.747   6.672   3.235 -0.0438 -2.6764  1.1378
   91MOL     H816388   5.511   6.741   3.076  0.7336  1.0611 -0.1600
   91MOL     H916389   5.485   7.020   3.265 -0.0098  0.2503  0.3450
   91MOL    H1016390   5.682   6.542   3.124 -3.3897  0.8182 -0.4930
   91MOL    C1116391   5.459   6.639   3.259  0.3966 -0.1277 -0.0318
   91MOL    C1216392   5.422   6.495   3.233 -0.2503 -0.1859  0.1418
   91MOL    C1316393   5.425   6.450   3.085 -0.0250 -0.6468  0.3054
   91MOL    O1416394   5.360   6.510   3.002  0.4797  0.2709 -0.0214
   91MOL    O1516395   5.515   6.353   3.051 -0.3870 -0.3842  0.4408
   91MOL    H1616396   5.369   6.698   3.277 -0.1759 -0.5837 -1.3664
   91MOL    H1716397   5.501   6.629   3.359  1.2041 -1.2200 -0.4740
   91MOL    H1816398   5.508   6.445   3.279  0.5422  1.2285  0.2214
   91MOL    H1916399   5.515   6.341   2.957 -0.5395 -1.3672  0.5522
   91MOL    C2016400   5.304   6.438   3.313 -0.0235  0.2208  0.2388
   91MOL    C2116401   5.156   6.443   3.262  0.5403  0.4470  0.2755
   91MOL    C2216402   5.095   6.585   3.239 -0.5462 -0.0607  0.3354
   91MOL    O2316403   5.033   6.642   3.324  0.7670  0.3285  0.6304
   91MOL    O2416404   5.136   6.642   3.123 -0.9585 -0.0305  0.0639
   91MOL    H2516405   5.321   6.468   3.416  0.8951 -1.5690  0.6356
   91MOL    H2616406   5.330   6.332   3.321  0.0081  0.4029  2.7112
   91MOL    H2716407   5.156   6.385   3.170  0.7665  0.1573  0.4582
   91MOL    H2816408   5.127   6.736   3.126  1.8446  0.3750 -1.9587
   91MOL    C2916409   5.065   6.369   3.363 -0.0600  0.1341 -0.1070
   91MOL    C3016410   4.917   6.333   3.319 -0.1512  0.1898  0.6440
   91MOL    C3116411   4.851   6.256   3.437 -0.8819 -0.0409  0.8509
   91MOL    O3216412   4.833   6.136   3.444 -0.1572  0.0618  0.9048
   91MOL    O3316413   4.830   6.345   3.538  0.2078  0.4954  0.2618
   91MOL    H3416414   5.079   6.426   3.454  0.3539 -1.1313  0.6335
   91MOL    H3516415   5.112   6.272   3.381  0.5213  0.2893 -0.7390
   91MOL    H3616416   4.850   6.419   3.325 -2.1088 -1.3132  0.8444
   91MOL    H3716417   4.778   6.291   3.597 -1.1038 -0.2642 -1.5383
   91MOL    C3816418   4.898   6.261   3.186 -0.0776  0.0032  1.1196
   91MOL    C3916419   4.849   6.357   3.073  0.3587  0.0074 -0.6841
   91MOL    C4016420   4.712   6.421   3.107 -0.1199 -0.6478  0.0500
   91MOL    O4116421   4.626   6.359   3.170 -0.0301 -0.4555 -0.2730
   91MOL    O4216422   4.710   6.546   3.067 -0.1912  0.2464 -0.3108
   91MOL    H4316423   4.821   6.185   3.198  1.1757 -0.9101  3.6583
   91MOL    H4416424   4.989   6.213   3.150 -1.0231 -0.0530 -1.2659
   91MOL    H4516425   4.914   6.445   3.066  0.7867 -0.1330  1.0800
   91MOL    H4616426   4.632   6.591   3.095 -2.4554 -2.7422 -1.5860
   91MOL    C4716427   4.834   6.273   2.947  0.2655  0.1709  0.5684
   91MOL    C4816428   4.956   6.239   2.857 -0.1877 -0.4354 -0.0625
   91MOL    C4916429   5.055   6.359   2.865 -0.7235  0.8699  0.0433
   91MOL    O5016430   5.037   6.470   2.809  0.0059 -0.6221 -0.0331
   91MOL    O5116431   5.168   6.327   2.934  0.3582  0.1347 -0.0320
   91MOL    H5216432   4.755   6.318   2.886  0.9282  0.9086  0.2391
   91MOL    H5316433   4.798   6.174   2.974  0.8141 -0.1869 -0.0235
   91MOL    H5416434   4.992   6.147   2.902  0.0468  0.1507  0.9871
   91MOL    H5516435   5.226   6.401   2.933  1.3736 -0.6440 -0.1471
   91MOL    C5616436   4.921   6.213   2.706 -0.7088  0.0401 -0.0100
   91MOL    C5716437   4.807   6.112   2.673  0.0786  0.7299  0.6185
   91MOL    C5816438   4.867   5.969   2.688 -0.2342 -0.1598 -0.4199
   91MOL    O5916439   4.957   5.923   2.618 -0.7743  0.0890 -0.3194
   91MOL    O6016440   4.785   5.897   2.775 -0.3385 -0.4000 -0.0128
   91MOL    H6116441   5.003   6.174   2.646 -1.3211  0.9152 -1.4635
   91MOL    H6216442   4.898   6.310   2.661 -0.0142  0.7056  1.0470
   91MOL    H6316443   4.721   6.133   2.736 -1.3499 -0.5763 -0.8429
   91MOL    H6416444   4.806   5.805   2.770  1.0131 -0.0500 -1.1570
   91MOL    C6516445   4.746   6.126   2.528 -0.3141 -0.0688  0.1697
   91MOL    C6616446   4.596   6.076   2.512 -0.6916 -0.2629 -0.8049
   91MOL    C6716447   4.592   5.984   2.397 -0.3900  0.1316  0.0832
   91MOL    O6816448   4.565   5.868   2.411 -0.3225 -0.1452  0.0982
   91MOL    O6916449   4.622   6.037   2.274 -0.3120 -0.2594 -0.3315
   91MOL    H7016450   4.817   6.076   2.463 -0.8254  0.3152 -0.6959
   91MOL    H7116451   4.743   6.231   2.501 -1.4861  0.0278  0.6338
   91MOL    H7216452   4.572   6.007   2.593  1.2156  0.3107  0.2938
   91MOL    H7316453   4.621   5.980   2.199  1.0412 -0.5000 -0.1813
   91MOL    C7416454   4.491   6.192   2.514  0.1613 -0.3226 -0.2408
   91MOL    C7516455   4.461   6.281   2.387  0.5593  0.4989 -0.2574
   91MOL    C7616456   4.576   6.352   2.313 -0.6481 -0.3571 -0.1127
   91MOL    O7716457   4.629   6.312   2.208  0.1402  0.4746  0.5988
   91MOL    O7816458   4.604   6.464   2.385  0.2634 -0.1132  0.5561
   91MOL    H7916459   4.517   6.260   2.595 -0.7060 -0.6126  0.2802
   91MOL    H8016460   4.409   6.130   2.550  1.1309 -1.7968 -0.5007
   91MOL    H8116461   4.419   6.213   2.312  0.0561 -0.6324  1.0277
   91MOL    H8216462   4.684   6.507   2.359 -0.3019  0.3135 -0.5161
   91MOL    C8316463   4.349   6.390   2.415  0.0459 -0.2513  0.0489
   91MOL    C8416464   4.205   6.348   2.444 -0.0096  0.0549  1.2074
   91MOL    C8516465   4.179   6.298   2.585 -0.2294 -0.7513  0.0738
   91MOL    O8616466   4.240   6.338   2.682 -0.1887 -0.3127 -0.1287
   91MOL    O8716467   4.066   6.229   2.591  0.3942 -0.5138  0.7240
   91MOL    H8816468   4.352   6.461   2.332  1.7508  0.2375  0.4953
   91MOL    H8916469   4.392   6.446   2.497  0.2847  1.2752 -1.1023
   91MOL    H9016470   4.148   6.441   2.442  1.1939  0.8130  1.1351
   91MOL    H9116471   4.048   6.192   2.677 -0.6067  0.3491  0.8982
   91MOL    C9216472   4.156   6.271   2.319 -0.4933 -0.3132 -0.8445
   91MOL    C9316473   3.995   6.269   2.270 -0.6797 -0.0804 -0.2280
   91MOL    C9416474   3.949   6.128   2.217 -0.1026 -0.3759 -0.8678
   91MOL    O9516475   4.032   6.040   2.179 -0.5456 -0.3523 -0.0070
   91MOL    O9616476   3.815   6.108   2.216  0.6713 -0.2405  0.2714
   91MOL    H9716477   4.186   6.167   2.332  1.2322  0.6802  4.0044
   91MOL    H9816478   4.216   6.308   2.235  1.3100  0.0260  0.5719
   91MOL    H9916479   3.936   6.272   2.362  0.3553  0.2512  0.4423
   91MOL   H10016480   3.776   6.175   2.269 -0.2188 -0.6058  0.0878
   91MOL   C10116481   3.963   6.384   2.173  0.4344 -0.1889 -0.6766
   91MOL   C10216482   3.980   6.529   2.234 -0.3065 -0.4832 -0.2796
   91MOL   C10316483   3.878   6.544   2.350  0.1666 -0.5256  0.1167
   91MOL   O10416484   3.755   6.541   2.333  0.4488 -0.2926  0.7976
   91MOL   O10516485   3.929   6.575   2.473 -0.0857 -0.4443 -0.1587
   91MOL   H10616486   3.860   6.376   2.139  0.3594 -0.3283 -0.4219
   91MOL   H10716487   4.027   6.376   2.085  1.6275  2.7034 -0.1437
   91MOL   H10816488   4.076   6.543   2.284 -1.8048  2.0176  2.0389
   91MOL   H10916489   3.858   6.587   2.534  2.0871 -0.3560  2.4235
   91MOL   C11016490   3.961   6.646   2.134  0.5695 -0.1206 -0.1449
   91MOL   C11116491   4.064   6.651   2.019  0.3723 -0.3323 -0.2253
   91MOL   C11216492   4.193   6.727   2.060  0.2620 -0.2216 -0.1613
   91MOL   O11316493   4.248   6.826   2.007 -0.1189  0.0551 -0.3406
   91MOL   O11416494   4.254   6.669   2.168  0.2433  0.6475  0.5133
   91MOL   H11516495   3.971   6.743   2.183 -0.7970 -0.0804  0.0506
   91MOL   H11616496   3.863   6.645   2.086  0.4167 -1.0637  0.1944
   91MOL   H11716497   4.111   6.559   1.983 -0.9431 -2.0080  2.2195
   91MOL   H11816498   4.333   6.720   2.178  0.9433 -0.7386  2.4084
   91MOL   C11916499   3.988   6.706   1.889 -0.0296  0.0424  0.6932
   91MOL   C12016500   3.937   6.605   1.781  0.8318 -0.1144  0.1122
   91MOL   C12116501   4.036   6.497   1.742  0.4264  0.0099  0.4251
   91MOL   O12216502   4.151   6.516   1.706 -0.1877 -0.1740 -0.5697
   91MOL   O12316503   3.980   6.378   1.753 -0.2014  0.5595  0.5844
   91MOL   H12416504   4.058   6.764   1.828  0.0107 -1.1644 -0.4288
   91MOL   H12516505   3.907   6.768   1.928 -0.0986 -0.9821  2.1956
   91MOL   H12616506   3.852   6.571   1.840  0.3190  1.0566  0.0676
   91MOL   H12716507   4.048   6.318   1.725  0.3427  1.6563 -0.4696
   91MOL   C12816508   3.889   6.689   1.658  0.0737  0.2576  0.1716
   91MOL   C12916509   3.836   6.615   1.536  0.3503 -0.2502 -1.0791
   91MOL   C13016510   3.718   6.520   1.575 -0.0610  0.0728  0.2217
   91MOL   O13116511   3.640   6.554   1.656  0.1463  0.1688  0.8683
   91MOL   O13216512   3.723   6.400   1.509  0.0663  0.0485  0.1219
   91MOL   H13316513   3.978   6.744   1.626  0.6919 -0.4105  0.7217
   91MOL   H13416514   3.815   6.758   1.698  0.0047  0.1780  0.1789
   91MOL   H13516515   3.794   6.697   1.477 -0.1743 -0.6954 -1.3274
   91MOL   H13616516   3.660   6.341   1.546 -0.8451  1.7428  1.3387
   91MOL   C13716517   3.944   6.549   1.445 -0.1428 -0.3711  0.4233
   91MOL   C13816518   3.918   6.540   1.290  0.3441  0.7060 -0.4262
   91MOL   C13916519   3.778   6.554   1.236 -0.4878  0.6769 -0.1712
   91MOL   O14016520   3.714   6.455   1.193 -0.1271 -0.3019 -0.3486
   91MOL   O14116521   3.729   6.684   1.235 -0.5899  1.1461 -0.1009
   91MOL   H14216522   3.972   6.452   1.485 -0.0460 -0.7176 -0.4742
   91MOL   H14316523   4.035   6.606   1.460 -0.7061  0.3396  1.2082
   91MOL   H14416524   3.965   6.628   1.246  1.0969 -0.3514 -1.7848
   91MOL   H14516525   3.637   6.693   1.216 -1.0291 -0.3487  1.1471
   91MOL   C14616526   3.997   6.419   1.225  0.2334 -0.1864 -0.0172
   91MOL   C14716527   3.968   6.270   1.269 -0.3985  0.5302 -0.4626
   91MOL   C14816528   4.046   6.231   1.396 -0.0913 -0.1276 -0.3616
   91MOL   O14916529   4.163   6.259   1.411  0.0534 -0.2701 -0.4803
   91MOL   O15016530   3.971   6.157   1.487 -0.2207  0.2568 -0.4287
   91MOL   H15116531   4.099   6.457   1.232  0.2945 -0.3196 -0.1750
   91MOL   H15216532   3.970   6.438   1.122 -1.0396 -1.1722  0.1091
   91MOL   H15316533   3.870   6.292   1.312 -0.6096 -0.2533 -0.5318
   91MOL   H15416534   3.880   6.148   1.464  0.5210 -2.8033 -2.3555
   91MOL   C15516535   3.963   6.153   1.155 -0.2672  0.0920  0.2425
   91MOL   C15616536   4.102   6.115   1.103 -0.0467  0.0219  0.1924
   91MOL   C15716537   4.171   6.235   1.034 -0.2554 -0.2908 -0.3728
   91MOL   O15816538   4.122   6.294   0.935 -0.0837  0.0801 -0.0718
   91MOL   O15916539   4.286   6.263   1.094  1.0650  0.1828 -0.0225
   91MOL   H16016540   3.898   6.169   1.069 -0.2345 -2.4637 -0.2934
   91MOL   H16116541   3.926   6.058   1.193  0.0030 -0.4189 -0.7344
   91MOL   H16216542   4.171   6.089   1.183  0.4894 -0.3825 -0.3918
   91MOL   H16316543   4.328   6.334   1.049 -0.9318  0.9019 -0.8160
   91MOL   C16416544   4.114   5.991   1.012  0.6833 -0.0095  0.4065
   91MOL   C16516545   4.100   5.853   1.077 -0.4157  0.3724 -0.3579
   91MOL   C16616546   4.176   5.837   1.204  0.9799  0.0233 -0.1291
   91MOL   O16716547   4.294   5.815   1.218 -0.3716 -0.0650 -0.6002
   91MOL   O16816548   4.100   5.882   1.310 -0.5088 -0.0461  0.4343
   91MOL   H16916549   4.203   5.980   0.950 -0.2089 -0.1470 -0.8541
   91MOL   H17016550   4.027   5.997   0.948  2.3857  1.0807 -1.8708
   91MOL   H17116551   3.993   5.844   1.096 -0.4861  1.9502  0.1339
   91MOL   H17216552   4.148   5.905   1.388 -0.6529  0.4187  0.3877
   91MOL   C17316553   4.138   5.738   0.983  0.0731  0.3777  0.0034
   91MOL   C17416554   4.029   5.690   0.890 -0.2389  0.2087  0.4048
   91MOL   C17516555   3.888   5.664   0.946 -0.3235  0.0669  0.2323
   91MOL   O17616556   3.792   5.723   0.897 -0.2611 -0.3731  0.8513
   91MOL   O17716557   3.897   5.582   1.051  0.5056  0.3411 -0.1675
   91MOL   H17816558   4.152   5.648   1.043 -0.2360 -1.5026 -2.6576
   91MOL   H17916559   4.236   5.738   0.934  0.3538  0.3541  0.5576
   91MOL   H18016560   4.033   5.755   0.802 -1.1225 -0.1634  0.0874
   91MOL   H18116561   3.822   5.571   1.108 -0.2193 -0.3811 -1.2421
   91MOL   H18216562   4.050   5.594   0.843  2.7066  0.1614  1.7192
   92MOL     C116563   4.849   0.933   5.589 -0.0147 -0.4068  1.0690
   92MOL     C216564   4.940   1.045   5.644 -0.0473 -0.1168  0.9332
   92MOL     C316565   4.922   1.073   5.792 -0.0685 -0.3442  0.1283
   92MOL     O416566   4.929   1.186   5.839 -0.0547 -0.1583  0.1388
   92MOL     O516567   4.910   0.954   5.851  0.3209  0.8076  0.1744
   92MOL     H616568   4.846   0.835   5.636  0.2376 -0.3751  1.1504
   92MOL     H716569   4.744   0.960   5.595 -0.9397 -3.9882  2.1218
   92MOL     H816570   5.038   0.997   5.636 -0.7203 -1.1137 -1.6620
   92MOL     H916571   4.871   0.948   5.937  1.0356 -2.6091  0.3351
   92MOL    H1016572   4.871   0.907   5.485 -1.5875  0.5597  0.4675
   92MOL    C1116573   4.926   1.185   5.564  0.0570 -0.2129 -0.1475
   92MOL    C1216574   5.036   1.216   5.462  0.2196  0.0123  0.7629
   92MOL    C1316575   5.057   1.106   5.351  0.4340 -0.9885 -0.2506
   92MOL    O1416576   5.145   1.023   5.360  0.1088  0.2721 -0.2132
   92MOL    O1516577   4.964   1.123   5.252  0.2461 -0.2033 -0.2421
   92MOL    H1616578   4.916   1.275   5.626 -0.0076  0.1846 -0.7279
   92MOL    H1716579   4.832   1.178   5.509  0.9999  0.1390 -1.8450
   92MOL    H1816580   4.998   1.310   5.421 -0.4666  0.3043  2.0450
   92MOL    H1916581   4.972   1.053   5.189  0.2276  0.2548 -0.7591
   92MOL    C2016582   5.174   1.248   5.522 -0.0951 -0.3115  0.0405
   92MOL    C2116583   5.176   1.355   5.634  0.6772 -0.0386 -0.0509
   92MOL    C2216584   5.139   1.494   5.591 -0.1847 -0.7210 -0.9980
   92MOL    O2316585   5.221   1.590   5.582 -0.0718  0.1145 -0.6124
   92MOL    O2416586   5.011   1.513   5.557 -0.6406 -0.2070 -0.0838
   92MOL    H2516587   5.237   1.291   5.444  0.2909 -1.8318 -0.4977
   92MOL    H2616588   5.218   1.156   5.559 -0.3059  0.2448  1.7332
   92MOL    H2716589   5.104   1.341   5.715  0.5108  0.5344 -0.0943
   92MOL    H2816590   4.994   1.597   5.518  2.0440  0.6865  0.5913
   92MOL    C2916591   5.319   1.359   5.701 -0.1523  0.4146  0.4016
   92MOL    C3016592   5.395   1.247   5.787  0.4808 -0.0145  0.1250
   92MOL    C3116593   5.296   1.193   5.900  0.0810  0.1256  0.6509
   92MOL    O3216594   5.253   1.080   5.909  0.6713 -0.5863 -0.4358
   92MOL    O3316595   5.266   1.297   5.980 -0.1442  0.1207  0.0504
   92MOL    H3416596   5.321   1.453   5.757 -0.5147  1.1206 -0.7523
   92MOL    H3516597   5.385   1.373   5.616 -3.1600 -1.6536 -2.3869
   92MOL    H3616598   5.423   1.162   5.724  2.6391  2.6287 -2.6079
   92MOL    H3716599   5.189   1.265   6.025  1.1634 -2.5656  0.4914
   92MOL    C3816600   5.530   1.281   5.850  0.7153  0.2089  0.2499
   92MOL    C3916601   5.612   1.168   5.907  0.1470  0.0729 -0.4258
   92MOL    C4016602   5.711   1.226   6.007  0.2734  0.0598  0.2096
   92MOL    O4116603   5.818   1.274   5.973 -0.3701 -0.0525 -0.1812
   92MOL    O4216604   5.674   1.219   6.136 -0.0177 -0.0046 -0.1160
   92MOL    H4316605   5.500   1.352   5.927 -0.1075 -2.2365  2.2667
   92MOL    H4416606   5.594   1.336   5.781  1.5942  1.0898  1.7345
   92MOL    H4516607   5.552   1.104   5.971 -0.5258  0.0361 -1.0912
   92MOL    H4616608   5.733   1.258   6.200 -1.1531  1.9881 -0.2236
   92MOL    C4716609   5.679   1.075   5.800 -0.6092  0.0999  0.5544
   92MOL    C4816610   5.760   0.951   5.843  0.4633 -0.2719 -0.2781
   92MOL    C4916611   5.675   0.854   5.933 -0.1366  1.2077  0.1361
   92MOL    O5016612   5.701   0.830   6.054  0.0968 -0.0788 -0.7260
   92MOL    O5116613   5.554   0.801   5.881 -0.3716  0.8602  0.2492
   92MOL    H5216614   5.737   1.140   5.734 -1.5933  2.3133  1.8158
   92MOL    H5316615   5.604   1.042   5.728  0.0686 -0.2693  0.0066
   92MOL    H5416616   5.777   0.887   5.757 -0.2792 -0.9622  0.0811
   92MOL    H5516617   5.500   0.766   5.951  1.7807 -0.8399  1.1006
   92MOL    C5616618   5.896   0.972   5.904 -0.6765  0.0279  0.2620
   92MOL    C5716619   6.003   0.869   5.853 -0.5615  0.3891 -0.5669
   92MOL    C5816620   5.979   0.737   5.912  0.6476  0.5706 -0.1774
   92MOL    O5916621   6.026   0.699   6.017  0.4824  0.1779  0.9716
   92MOL    O6016622   5.895   0.667   5.838 -0.3354  0.2187 -0.4839
   92MOL    H6116623   5.883   0.992   6.011  1.5746  2.5346  0.1118
   92MOL    H6216624   5.939   1.060   5.856  1.0693 -0.9796 -0.0247
   92MOL    H6316625   5.993   0.861   5.745 -1.6009  0.2984 -0.4697
   92MOL    H6416626   5.887   0.588   5.890 -2.3143  1.0277  0.5014
   92MOL    C6516627   6.152   0.913   5.874  0.7006 -0.1565 -0.2638
   92MOL    C6616628   6.245   0.913   5.753  0.5132  0.7328 -0.2544
   92MOL    C6716629   6.289   0.771   5.719  0.3757 -0.4362 -0.6106
   92MOL    O6816630   6.399   0.721   5.735 -0.1740  0.4461  0.0461
   92MOL    O6916631   6.184   0.706   5.670 -0.0283  0.0161  0.8452
   92MOL    H7016632   6.199   0.854   5.953  0.6455  1.3415  0.9282
   92MOL    H7116633   6.165   1.017   5.907 -0.0998 -0.2968  0.5077
   92MOL    H7216634   6.181   0.949   5.672 -1.6785  1.3434  1.6874
   92MOL    H7316635   6.199   0.617   5.644 -0.6940  0.4093 -0.9747
   92MOL    C7416636   6.375   1.002   5.762 -0.8965 -0.7702  0.5562
   92MOL    C7516637   6.448   1.041   5.627  0.0494  0.4780  0.3268
   92MOL    C7616638   6.576   0.966   5.592 -0.7686 -0.5779 -0.3007
   92MOL    O7716639   6.587   0.886   5.496 -0.2330 -0.1228  0.1809
   92MOL    O7816640   6.678   1.001   5.682 -0.3813 -0.2082  0.1567
   92MOL    H7916641   6.449   0.949   5.821 -1.6877 -2.4903  0.0087
   92MOL    H8016642   6.368   1.090   5.827 -1.9241 -0.4214 -0.0172
   92MOL    H8116643   6.385   1.006   5.545 -0.7975  0.9227  0.7836
   92MOL    H8216644   6.643   1.074   5.731 -1.7564 -0.8372  0.1473
   92MOL    C8316645   6.472   1.196   5.611 -0.0333  0.2944  0.8185
   92MOL    C8416646   6.342   1.275   5.597  1.4024 -0.3063  0.0777
   92MOL    C8516647   6.264   1.248   5.467 -0.4618 -0.8888  0.4889
   92MOL    O8616648   6.321   1.268   5.357 -0.4793  0.8398 -0.3721
   92MOL    O8716649   6.140   1.200   5.484  0.0378 -0.0010 -0.2533
   92MOL    H8816650   6.528   1.217   5.520  0.4751 -1.0060  0.8303
   92MOL    H8916651   6.534   1.227   5.696  0.7170 -1.9044  1.0912
   92MOL    H9016652   6.271   1.243   5.673 -0.4238 -0.5370 -1.6964
   92MOL    H9116653   6.091   1.176   5.407  1.1143 -1.0574 -0.6169
   92MOL    C9216654   6.359   1.427   5.617  0.3282 -0.5627 -0.6490
   92MOL    C9316655   6.417   1.474   5.754  0.4185 -0.4091 -0.3092
   92MOL    C9416656   6.336   1.407   5.871  0.2270  0.0607 -0.5207
   92MOL    O9516657   6.208   1.409   5.874  0.1831  0.0260 -0.4869
   92MOL    O9616658   6.407   1.342   5.963  0.0700  0.6045 -0.1883
   92MOL    H9716659   6.256   1.461   5.610 -0.1938 -1.5216  1.8647
   92MOL    H9816660   6.410   1.475   5.533  3.8265 -1.2876  0.9353
   92MOL    H9916661   6.520   1.442   5.765  0.7972  0.7778 -0.3612
   92MOL   H10016662   6.349   1.301   6.025 -0.3098  0.7715 -0.4350
   92MOL   C10116663   6.409   1.629   5.767  0.4536 -0.1014 -0.3728
   92MOL   C10216664   6.507   1.692   5.876 -0.1704  0.4295  0.6571
   92MOL   C10316665   6.470   1.844   5.903  0.4207  0.0699 -0.7065
   92MOL   O10416666   6.405   1.887   5.999 -0.3016  0.2797  0.4007
   92MOL   O10516667   6.526   1.919   5.812  0.8932 -0.2082 -0.2607
   92MOL   H10616668   6.306   1.658   5.790  0.6616 -1.1045  2.0014
   92MOL   H10716669   6.416   1.668   5.666 -1.6445  0.8689 -0.1741
   92MOL   H10816670   6.466   1.650   5.967  0.5156 -2.9891 -0.5402
   92MOL   H10916671   6.501   2.010   5.820  3.4763  0.5900 -0.6230
   92MOL   C11016672   6.665   1.674   5.867  1.1788  0.7589 -0.2546
   92MOL   C11116673   6.728   1.559   5.953  0.0792  0.2426 -0.0121
   92MOL   C11216674   6.681   1.570   6.098 -0.4888 -0.1743 -0.5432
   92MOL   O11316675   6.640   1.668   6.149  0.1371 -0.2599 -0.1931
   92MOL   O11416676   6.707   1.448   6.160 -0.0558 -0.2968  0.2373
   92MOL   H11516677   6.717   1.763   5.901  3.0465 -1.2747  2.4335
   92MOL   H11616678   6.699   1.662   5.764  2.0103 -1.8260  0.2819
   92MOL   H11716679   6.692   1.465   5.911  0.8141 -1.5244  3.1768
   92MOL   H11816680   6.683   1.452   6.251 -0.0304 -1.5822  0.3069
   92MOL   C11916681   6.882   1.565   5.935 -0.5769 -0.4721 -0.2731
   92MOL   C12016682   6.940   1.478   5.817 -0.1712  0.6023  0.2137
   92MOL   C12116683   6.979   1.340   5.867  0.8222 -0.1989  0.2943
   92MOL   O12216684   6.908   1.236   5.863  0.1089 -0.2669  0.1230
   92MOL   O12316685   7.096   1.348   5.935 -0.5809 -0.5009 -0.5553
   92MOL   H12416686   6.934   1.535   6.026 -1.7800  0.1203  0.6253
   92MOL   H12516687   6.904   1.670   5.914  0.1829 -0.6919 -0.6166
   92MOL   H12616688   6.860   1.470   5.744  0.0073 -2.5293  0.3007
   92MOL   H12716689   7.115   1.275   5.992  1.4526  2.2833  2.5100
   92MOL   C12816690   7.052   1.554   5.753 -0.1682 -0.3274  0.0321
   92MOL   C12916691   7.159   1.490   5.651 -0.5382 -0.3536  0.0095
   92MOL   C13016692   7.296   1.571   5.675  0.1966 -0.4402 -0.2728
   92MOL   O13116693   7.347   1.643   5.589  0.4700 -0.4372 -0.4950
   92MOL   O13216694   7.353   1.556   5.801  0.0899 -0.2808  0.2838
   92MOL   H13316695   7.096   1.608   5.836  0.2567 -3.3842  1.8429
   92MOL   H13416696   6.997   1.625   5.691  1.1209  3.1869  2.7874
   92MOL   H13516697   7.192   1.394   5.689 -0.0224  0.3297  1.3091
   92MOL   H13616698   7.310   1.492   5.856 -0.8438 -0.3614 -0.5270
   92MOL   C13716699   7.109   1.490   5.499 -0.1263  0.1031  0.2890
   92MOL   C13816700   6.981   1.403   5.465 -0.3646 -0.3896 -0.2579
   92MOL   C13916701   7.001   1.245   5.477 -0.2603  0.7466  0.2789
   92MOL   O14016702   7.100   1.191   5.527  0.5657 -0.6582 -0.1357
   92MOL   O14116703   6.891   1.178   5.423  0.1158  0.1700 -0.5146
   92MOL   H14216704   7.187   1.458   5.431  0.9510 -1.0434  2.0367
   92MOL   H14316705   7.098   1.592   5.463  0.6586 -0.6391 -2.1241
   92MOL   H14416706   6.904   1.441   5.532  0.6283  0.6729  0.3126
   92MOL   H14516707   6.897   1.085   5.432  1.3736  0.0900 -1.9037
   92MOL   C14616708   6.929   1.450   5.328  0.4205  0.3758 -0.2709
   92MOL   C14716709   7.010   1.412   5.201  0.0444  0.0205  0.7603
   92MOL   C14816710   7.117   1.513   5.163 -0.0690  0.8810  0.0697
   92MOL   O14916711   7.117   1.632   5.200 -0.2268  0.4810  0.7944
   92MOL   O15016712   7.211   1.448   5.083 -0.5331 -0.2527  0.1202
   92MOL   H15116713   6.935   1.559   5.333  0.9004  0.4258 -1.5728
   92MOL   H15216714   6.828   1.411   5.315  0.3502  0.0272  1.3182
   92MOL   H15316715   7.068   1.324   5.230  3.3234  1.3436 -1.4911
   92MOL   H15416716   7.281   1.508   5.063  1.1427 -1.7622  1.3274
   92MOL   C15516717   6.915   1.379   5.087 -0.3100  0.3364  0.6030
   92MOL   C15616718   6.888   1.226   5.069  0.1201 -0.0613  0.1429
   92MOL   C15716719   7.007   1.155   5.002 -0.1379 -0.2276 -0.0720
   92MOL   O15816720   7.052   1.043   5.038  0.5946 -0.2331 -0.5371
   92MOL   O15916721   7.036   1.213   4.885 -0.6736 -0.0886  0.0653
   92MOL   H16016722   6.933   1.438   4.997  1.8066 -1.4103 -0.1310
   92MOL   H16116723   6.814   1.417   5.108 -1.0571 -1.7130  0.8361
   92MOL   H16216724   6.891   1.182   5.169 -0.0167 -1.4328 -0.4356
   92MOL   H16316725   7.097   1.158   4.838  0.7216 -2.4257  4.3561
   92MOL   C16416726   6.753   1.196   4.998  0.1410 -0.3541  1.2947
   92MOL   C16516727   6.665   1.103   5.079  0.4042 -0.2465  0.1942
   92MOL   C16616728   6.725   0.967   5.107  0.7459 -0.2373 -0.4127
   92MOL   O16716729   6.719   0.882   5.022  0.2864  0.3595  0.0434
   92MOL   O16816730   6.768   0.933   5.229  0.6871  0.1692 -0.2291
   92MOL   H16916731   6.778   1.156   4.900  0.2846 -2.9316  2.3580
   92MOL   H17016732   6.691   1.285   4.987  1.4961  0.3719 -0.6117
   92MOL   H17116733   6.649   1.153   5.175 -0.8820  1.2827 -0.7983
   92MOL   H17216734   6.790   0.841   5.228 -2.1424 -0.5541 -1.3477
   92MOL   C17316735   6.522   1.085   5.034  0.4824 -0.1460 -1.1389
   92MOL   C17416736   6.440   1.217   5.037  0.3663  0.0620 -0.1827
   92MOL   C17516737   6.291   1.194   5.027 -1.0353  0.5473 -0.3642
   92MOL   O17616738   6.231   1.089   5.029 -0.4526  0.5615  0.2916
   92MOL   O17716739   6.223   1.310   5.046  0.6135 -0.5278  0.1719
   92MOL   H17816740   6.478   1.018   5.109  1.3826  0.8032  0.2684
   92MOL   H17916741   6.516   1.049   4.932 -0.6874 -5.2861  0.5477
   92MOL   H18016742   6.452   1.256   5.138  1.3332  0.6184 -0.5041
   92MOL   H18116743   6.136   1.286   5.076  0.0724 -0.2043 -1.1223
   92MOL   H18216744   6.468   1.296   4.967  0.6003 -0.4297 -0.6502
   93MOL     C116745   0.548   3.743   7.084 -0.1013  0.1876 -0.9915
   93MOL     C216746   0.452   3.830   7.176  0.1544 -0.9323  0.0179
   93MOL     C316747   0.385   3.944   7.097 -0.1760  0.1065  0.0490
   93MOL     O416748   0.332   4.047   7.142  0.6466  0.2353  0.0359
   93MOL     O516749   0.390   3.917   6.965  0.1398 -0.3101 -0.2315
   93MOL     H616750   0.586   3.802   7.001  1.8552  0.4654  0.0620
   93MOL     H716751   0.636   3.699   7.131 -1.7665 -1.5113  0.6283
   93MOL     H816752   0.374   3.762   7.212  2.1911 -2.0750  2.4002
   93MOL     H916753   0.366   3.994   6.916  0.4927  0.6953  1.1797
   93MOL    H1016754   0.490   3.665   7.036  0.4535  0.3914 -1.9946
   93MOL    C1116755   0.534   3.877   7.305 -0.5171  0.4275  0.0179
   93MOL    C1216756   0.655   3.961   7.288 -0.2997  0.0422  0.3618
   93MOL    C1316757   0.767   3.914   7.379 -0.2620  0.2511 -1.1300
   93MOL    O1416758   0.751   3.911   7.498  0.0797 -0.1495  0.1832
   93MOL    O1516759   0.888   3.892   7.321 -0.5877 -0.2743  0.3338
   93MOL    H1616760   0.563   3.779   7.344  1.6971  0.1367 -2.2514
   93MOL    H1716761   0.474   3.916   7.387 -2.0760  0.2675 -1.0199
   93MOL    H1816762   0.694   3.956   7.187 -0.8585  0.7281  0.1025
   93MOL    H1916763   0.967   3.880   7.371 -0.4520 -0.5198  0.0645
   93MOL    C2016764   0.626   4.110   7.297  0.6317 -0.4913  0.3910
   93MOL    C2116765   0.732   4.208   7.244  0.4981  0.1910  0.3279
   93MOL    C2216766   0.776   4.192   7.100 -0.2571  0.2858 -0.3881
   93MOL    O2316767   0.894   4.151   7.077 -0.2628 -0.2812  0.1759
   93MOL    O2416768   0.679   4.200   7.016  0.0762  0.1633 -0.2853
   93MOL    H2516769   0.599   4.150   7.395 -1.2491  1.7827 -0.9926
   93MOL    H2616770   0.531   4.133   7.250  0.5976 -0.2924  0.5521
   93MOL    H2716771   0.669   4.297   7.240 -0.3287 -0.4102  0.0833
   93MOL    H2816772   0.710   4.178   6.929 -0.2783 -0.8891 -0.1524
   93MOL    C2916773   0.844   4.239   7.348  0.4089 -0.6705 -0.1735
   93MOL    C3016774   0.858   4.393   7.387 -0.3359  0.7186 -0.1326
   93MOL    C3116775   0.954   4.459   7.288  1.0977 -0.3205  0.5397
   93MOL    O3216776   1.074   4.455   7.297  0.4248  0.5131 -0.4345
   93MOL    O3316777   0.883   4.514   7.185 -0.2049 -0.3687 -0.0646
   93MOL    H3416778   0.937   4.202   7.308 -0.8232 -2.2554 -1.6244
   93MOL    H3516779   0.827   4.180   7.438 -1.0945 -0.7318 -0.4756
   93MOL    H3616780   0.766   4.449   7.367  0.5503  2.7154  1.2563
   93MOL    H3716781   0.935   4.575   7.134  0.0603 -1.6643 -1.3847
   93MOL    C3816782   0.897   4.401   7.531 -0.7398 -0.9466  0.5729
   93MOL    C3916783   0.798   4.363   7.643  0.6441 -0.2847 -0.4260
   93MOL    C4016784   0.661   4.439   7.633 -0.1828  0.4217  0.0957
   93MOL    O4116785   0.657   4.564   7.614  0.4683 -0.3672 -0.6661
   93MOL    O4216786   0.554   4.357   7.644  0.5699  0.3072 -0.4851
   93MOL    H4316787   0.928   4.504   7.551  0.7379 -1.2890  0.0924
   93MOL    H4416788   0.989   4.344   7.543  1.5314  2.7373  1.6967
   93MOL    H4516789   0.772   4.258   7.635 -0.1496  0.0891 -3.3844
   93MOL    H4616790   0.476   4.409   7.662 -0.7059 -0.0427 -4.4509
   93MOL    C4716791   0.869   4.373   7.781  0.2465  0.3642  0.6180
   93MOL    C4816792   0.795   4.316   0.051  0.6179  0.5160 -0.1074
   93MOL    C4916793   0.679   4.407   0.101 -0.0117 -0.4583 -0.1775
   93MOL    O5016794   0.661   4.519   0.059  0.1383 -0.0787 -0.1655
   93MOL    O5116795   0.592   4.338   0.185  0.0956  0.4851 -0.6518
   93MOL    H5216796   0.889   4.479   7.799 -2.5213  1.4429 -2.2678
   93MOL    H5316797   0.963   4.319   7.774  1.4844  2.3233  1.6320
   93MOL    H5416798   0.754   4.223   0.013 -1.9488  1.5825 -0.0465
   93MOL    H5516799   0.519   4.392   0.212 -0.3796 -1.2393  1.6562
   93MOL    C5616800   0.900   4.289   0.164 -0.9767  0.3800  0.1824
   93MOL    C5716801   0.989   4.398   0.221 -0.1305 -0.8451  0.0534
   93MOL    C5816802   1.141   4.379   0.189  0.3130 -0.0974  0.8128
   93MOL    O5916803   1.217   4.307   0.247 -0.6068 -0.3982 -0.0786
   93MOL    O6016804   1.169   4.440   0.072 -0.6832  0.1159 -0.1186
   93MOL    H6116805   0.969   4.214   0.125  0.5130  1.8964 -0.1715
   93MOL    H6216806   0.855   4.242   0.252 -0.9419 -0.2977 -0.1615
   93MOL    H6316807   0.959   4.489   0.170 -2.5550 -1.7227 -0.1213
   93MOL    H6416808   1.248   4.422   0.023 -1.3464 -0.2756 -1.0697
   93MOL    C6516809   0.960   4.434   0.372 -0.4077  0.5670  0.8457
   93MOL    C6616810   0.983   4.584   0.408  1.4128  0.5133 -0.0581
   93MOL    C6716811   1.122   4.630   0.404  0.0424  0.4626  0.1797
   93MOL    O6816812   1.177   4.669   0.300 -0.0563  0.4141 -0.2892
   93MOL    O6916813   1.191   4.604   0.520 -0.3987 -0.3425  0.3073
   93MOL    H7016814   1.019   4.371   0.438 -0.5455  1.6668  2.0370
   93MOL    H7116815   0.853   4.415   0.381 -0.6397  1.0308 -0.7067
   93MOL    H7216816   0.942   4.652   0.333 -2.1469 -0.0345  1.3299
   93MOL    H7316817   1.284   4.616   0.508 -0.4003  0.1012  0.7627
   93MOL    C7416818   0.914   4.632   0.539 -0.0930 -0.3179 -0.1838
   93MOL    C7516819   0.759   4.626   0.548 -0.2196  0.4154 -0.2386
   93MOL    C7616820   0.682   4.693   0.437  0.0119 -0.2539  0.7748
   93MOL    O7716821   0.600   4.788   0.455  0.8589  0.5305  0.1420
   93MOL    O7816822   0.690   4.623   0.319 -0.3518 -0.2065  0.1865
   93MOL    H7916823   0.948   4.734   0.558 -0.8981 -0.1790  0.5418
   93MOL    H8016824   0.958   4.568   0.616 -2.5973 -0.2739  1.3246
   93MOL    H8116825   0.736   4.521   0.530 -0.3760  0.5043 -0.5690
   93MOL    H8216826   0.642   4.658   0.245 -0.1539  0.9256  0.5741
   93MOL    C8316827   0.716   4.679   0.691  1.3623  0.4425 -0.7992
   93MOL    C8416828   0.569   4.632   0.726 -0.3181 -0.3253 -0.7402
   93MOL    C8516829   0.499   4.746   0.790 -0.1366  0.1417 -0.3407
   93MOL    O8616830   0.493   4.764   0.912  0.1980 -0.3560 -0.8330
   93MOL    O8716831   0.465   4.840   0.699 -0.1812  0.5006  0.4208
   93MOL    H8816832   0.719   4.788   0.695  1.2776  0.4387 -0.6397
   93MOL    H8916833   0.783   4.649   0.772 -0.2839  0.8039  0.7187
   93MOL    H9016834   0.510   4.625   0.635 -1.3739 -1.4291  0.0073
   93MOL    H9116835   0.476   4.815   0.608 -0.4589 -0.9480  0.7693
   93MOL    C9216836   0.562   4.491   0.794  0.3487  0.8600 -0.3262
   93MOL    C9316837   0.621   4.370   0.715  0.3273  0.1744  0.1811
   93MOL    C9416838   0.549   4.345   0.586  0.4955 -0.1762  0.1477
   93MOL    O9516839   0.437   4.386   0.558 -0.0588 -0.8201  0.5081
   93MOL    O9616840   0.619   4.275   0.493 -0.7680  0.4264 -0.1105
   93MOL    H9716841   0.465   4.465   0.838  0.1366  1.8092 -0.2114
   93MOL    H9816842   0.625   4.512   0.880  2.2320  0.5630 -1.6122
   93MOL    H9916843   0.722   4.407   0.695 -0.5575  2.7296  0.1727
   93MOL   H10016844   0.560   4.256   0.422  0.9445 -0.5981 -1.2867
   93MOL   C10116845   0.640   4.233   0.794 -0.1136 -0.4206 -0.0863
   93MOL   C10216846   0.757   4.132   0.753  0.3412 -0.5248  0.3438
   93MOL   C10316847   0.892   4.200   0.714  0.1040  0.0365 -0.4525
   93MOL   O10416848   0.952   4.183   0.607  0.2516 -0.0718  0.3504
   93MOL   O10516849   0.930   4.290   0.811  0.5984 -0.8467  0.0526
   93MOL   H10616850   0.543   4.184   0.802 -1.1231  1.7377  1.1577
   93MOL   H10716851   0.665   4.267   0.894  0.3230  1.8576 -0.9517
   93MOL   H10816852   0.781   4.078   0.844 -0.4262 -2.9388 -0.8522
   93MOL   H10916853   1.004   4.339   0.778 -0.8970  1.5119  0.1295
   93MOL   C11016854   0.704   4.019   0.660 -0.1419 -0.5655  0.1362
   93MOL   C11116855   0.749   3.876   0.705 -0.3303  0.1822 -0.4994
   93MOL   C11216856   0.640   3.824   0.807  0.6939  0.2966 -0.2660
   93MOL   O11316857   0.544   3.763   0.758 -0.8417 -0.0985 -0.1912
   93MOL   O11416858   0.657   3.859   0.934  0.0340 -0.4050  0.4893
   93MOL   H11516859   0.734   4.051   0.560  1.4916  3.5044  1.8409
   93MOL   H11616860   0.596   4.021   0.655 -0.1562 -1.1126  0.2145
   93MOL   H11716861   0.739   3.808   0.620 -0.3759  1.0324 -1.1855
   93MOL   H11816862   0.589   3.821   0.988  0.1109 -1.7166 -0.3224
   93MOL   C11916863   0.901   3.867   0.755 -0.0333 -0.4367 -0.3770
   93MOL   C12016864   0.962   3.733   0.722  0.0313  0.2650 -0.7418
   93MOL   C12116865   0.901   3.621   0.816 -0.2108 -0.0383  0.1518
   93MOL   O12216866   0.901   3.621   0.939 -0.0995 -0.2865 -0.0661
   93MOL   O12316867   0.838   3.526   0.743  0.2790  0.3765  0.2448
   93MOL   H12416868   0.909   3.896   0.860 -2.3249 -0.8987 -0.0365
   93MOL   H12516869   0.959   3.942   0.703 -0.8316  0.2479 -0.2940
   93MOL   H12616870   0.948   3.719   0.615  2.2307  0.6667 -1.0952
   93MOL   H12716871   0.866   3.540   0.654  3.5389 -0.7489  1.0190
   93MOL   C12816872   1.118   3.749   0.729  0.3024  0.5616 -0.0665
   93MOL   C12916873   1.188   3.622   0.683 -0.4092  0.2346  0.2402
   93MOL   C13016874   1.211   3.519   0.796 -0.4457  0.9057 -0.2744
   93MOL   O13116875   1.250   3.547   0.910 -0.3125  0.2485  0.1463
   93MOL   O13216876   1.212   3.393   0.753 -0.2201 -0.7602  0.7367
   93MOL   H13316877   1.153   3.772   0.830  3.8018  1.8127 -1.4733
   93MOL   H13416878   1.148   3.841   0.678 -0.3580  0.8119 -0.0044
   93MOL   H13516879   1.125   3.568   0.612  0.3670 -0.3708  0.0002
   93MOL   H13616880   1.230   3.332   0.823 -1.0265 -1.2007  0.5663
   93MOL   C13716881   1.327   3.655   0.609 -0.2581  0.0095  0.1101
   93MOL   C13816882   1.304   3.707   0.472 -0.1701  0.6019 -0.2883
   93MOL   C13916883   1.242   3.598   0.379 -0.1057 -0.3213  0.0516
   93MOL   O14016884   1.259   3.478   0.401  0.8172 -0.4617  0.0016
   93MOL   O14116885   1.159   3.651   0.283  0.1103 -0.4915 -1.0205
   93MOL   H14216886   1.396   3.571   0.617 -1.2955 -0.8618 -0.0371
   93MOL   H14316887   1.375   3.733   0.668 -2.3392  0.2936  1.4955
   93MOL   H14416888   1.242   3.796   0.463 -0.6975  0.3201  0.5474
   93MOL   H14516889   1.111   3.578   0.246  0.8592 -1.3025 -0.4421
   93MOL   C14616890   1.440   3.757   0.406  0.4234 -0.1650 -0.0354
   93MOL   C14716891   1.433   3.873   0.308 -1.0112 -0.0245 -0.6903
   93MOL   C14816892   1.350   3.998   0.366 -0.1255  0.2200  0.6060
   93MOL   O14916893   1.230   4.019   0.347 -0.5503 -0.7154 -0.4708
   93MOL   O15016894   1.431   4.069   0.452  0.6233 -0.0906  0.3659
   93MOL   H15116895   1.481   3.671   0.354  1.4933 -1.1285  2.3593
   93MOL   H15216896   1.513   3.789   0.481  1.8583  1.4291 -2.0574
   93MOL   H15316897   1.534   3.912   0.297 -1.5586  2.0065  1.0455
   93MOL   H15416898   1.380   4.148   0.460  0.2432 -0.3749  0.8053
   93MOL   C15516899   1.384   3.835   0.170 -0.1918 -0.8446  0.8357
   93MOL   C15616900   1.461   3.892   0.039  0.5197  0.3340 -0.0433
   93MOL   C15716901   1.608   3.864   0.048  0.8121 -0.4081 -0.4212
   93MOL   O15816902   1.701   3.937   0.042 -0.0139  0.2585 -0.5273
   93MOL   O15916903   1.621   3.729   0.066  0.0428 -0.0110  0.1048
   93MOL   H16016904   1.278   3.861   0.165  0.5590  1.9706 -2.9721
   93MOL   H16116905   1.393   3.727   0.164 -1.9718 -0.9917  0.2564
   93MOL   H16216906   1.411   3.843   7.808  0.4691 -1.1696  0.8547
   93MOL   H16316907   1.711   3.702   0.073  0.9254  3.2142  2.1967
   93MOL   C16416908   1.436   4.047   0.010  0.0900  0.4592 -0.2827
   93MOL   C16516909   1.439   4.103   7.717 -0.3491 -0.2904  0.1105
   93MOL   C16616910   1.462   4.258   7.717 -0.4859  0.1830 -0.0270
   93MOL   O16716911   1.378   4.338   7.753  0.2154  0.0763  0.2223
   93MOL   O16816912   1.584   4.296   7.671  0.1950 -0.4766  0.2109
   93MOL   H16916913   1.512   4.106   0.061  1.6713 -2.4066  0.7602
   93MOL   H17016914   1.342   4.075   0.057 -0.1131 -0.9623  0.1785
   93MOL   H17116915   1.521   4.060   7.660  1.3262  2.6406  0.2481
   93MOL   H17216916   1.648   4.230   7.690  0.0715 -0.3864  0.9557
   93MOL   C17316917   1.312   4.066   7.627 -0.6107 -0.9889 -0.2095
   93MOL   C17416918   1.181   4.041   7.707 -0.5611  0.0488  0.2427
   93MOL   C17516919   1.058   3.994   7.614  0.0782 -0.1087 -0.4541
   93MOL   O17616920   1.070   3.911   7.524 -0.4706 -0.1124  0.2910
   93MOL   O17716921   0.941   4.051   7.652 -0.6660 -0.1259 -0.4250
   93MOL   H17816922   1.334   3.973   7.573  0.3295 -0.4141 -0.8404
   93MOL   H17916923   1.296   4.145   7.554  0.9126 -0.0852  0.4017
   93MOL   H18016924   1.178   3.956   7.775 -1.1362  1.4992  2.0595
   93MOL   H18116925   0.870   4.028   7.593 -1.9548  0.6680  0.7740
   93MOL   H18216926   1.155   4.123   7.774  2.9931  1.3727  0.1304
   94MOL     C116927   4.279   1.694   2.204  0.8377  0.4131  0.4914
   94MOL     C216928   4.358   1.731   2.323 -0.3741  0.0062  0.0651
   94MOL     C316929   4.346   1.881   2.345  0.3371 -0.0998 -0.0751
   94MOL     O416930   4.384   1.963   2.263  0.0914 -0.3258  0.3370
   94MOL     O516931   4.303   1.911   2.471 -0.3892  0.0974  0.9645
   94MOL     H616932   4.284   1.585   2.196 -2.5993  0.3577 -2.3316
   94MOL     H716933   4.175   1.720   2.223  0.8271  1.8164 -1.3605
   94MOL     H816934   4.314   1.676   2.406  1.7334 -1.7882  0.0202
   94MOL     H916935   4.288   2.001   2.496  1.4604  0.4730  0.7703
   94MOL    H1016936   4.306   1.733   2.106  3.4515  0.4359  1.1957
   94MOL    C1116937   4.508   1.697   2.328 -0.4695 -0.7219  0.3510
   94MOL    C1216938   4.586   1.716   2.197 -0.1784  0.1292  0.0709
   94MOL    C1316939   4.576   1.586   2.116  0.4811  0.1755  0.9050
   94MOL    O1416940   4.574   1.480   2.172  0.2689  0.1763  0.0932
   94MOL    O1516941   4.576   1.606   1.984 -0.3309 -0.0933 -0.3275
   94MOL    H1616942   4.506   1.594   2.365  0.5713 -0.4616  1.1552
   94MOL    H1716943   4.550   1.765   2.402  2.6003  0.3924 -2.2658
   94MOL    H1816944   4.543   1.796   2.136  2.0407  1.3028  0.0130
   94MOL    H1916945   4.584   1.695   1.951  1.6623  0.0100  0.3864
   94MOL    C2016946   4.731   1.763   2.218  0.6580 -0.3846  0.4847
   94MOL    C2116947   4.765   1.915   2.235 -0.4952  0.4615 -0.0088
   94MOL    C2216948   4.755   1.970   2.380  0.5501  0.4296 -0.0976
   94MOL    O2316949   4.655   2.021   2.428 -0.3421 -0.3570 -0.4097
   94MOL    O2416950   4.869   1.957   2.451 -0.2393  0.3592 -0.0817
   94MOL    H2516951   4.787   1.732   2.130  1.9397  1.8469  0.4718
   94MOL    H2616952   4.778   1.714   2.303  0.3182 -3.0896 -0.8398
   94MOL    H2716953   4.870   1.911   2.205 -1.3058 -0.7734 -2.8260
   94MOL    H2816954   4.858   1.995   2.537  1.2144 -0.4108  0.4641
   94MOL    C2916955   4.694   2.006   2.128 -0.2224  0.2333  0.4741
   94MOL    C3016956   4.789   2.126   2.081  0.6035 -0.4038 -0.5515
   94MOL    C3116957   4.758   2.258   2.161 -0.3490 -0.7480  0.1541
   94MOL    O3216958   4.652   2.320   2.160 -0.2872  0.1357  0.2159
   94MOL    O3316959   4.867   2.304   2.227 -0.0722 -0.6819 -0.4501
   94MOL    H3416960   4.590   2.030   2.149 -0.1970 -0.9669  1.9898
   94MOL    H3516961   4.683   1.940   2.042  2.3165  0.5337 -0.1120
   94MOL    H3616962   4.894   2.103   2.096  0.8104  0.2760 -0.9257
   94MOL    H3716963   4.839   2.375   2.283 -1.0652 -1.9158  0.6486
   94MOL    C3816964   4.761   2.163   1.927  0.5949 -0.1175 -0.3679
   94MOL    C3916965   4.832   2.289   1.875  0.3591  0.1357 -0.5190
   94MOL    C4016966   4.792   2.310   1.729 -0.4757 -0.2088 -0.4133
   94MOL    O4116967   4.873   2.343   1.643 -0.2193 -0.1721  0.3300
   94MOL    O4216968   4.651   2.297   1.710  0.2676  0.2152  0.5068
   94MOL    H4316969   4.654   2.167   1.909  0.6357 -3.1500 -1.5593
   94MOL    H4416970   4.789   2.069   1.880 -1.4958 -1.6715  1.3975
   94MOL    H4516971   4.790   2.379   1.920  0.4066  0.8550 -1.8885
   94MOL    H4616972   4.642   2.292   1.616  3.6852 -0.5635  0.1656
   94MOL    C4716973   4.990   2.300   1.894  0.1675  0.1883 -0.4970
   94MOL    C4816974   5.048   2.439   1.867  0.1318 -0.1232  0.0279
   94MOL    C4916975   5.167   2.424   1.777 -0.0756 -0.1423 -0.3174
   94MOL    O5016976   5.285   2.443   1.815 -0.0175  0.4408  0.8498
   94MOL    O5116977   5.136   2.383   1.654 -0.2832 -0.0841  0.0165
   94MOL    H5216978   5.031   2.221   1.830 -0.2365 -0.2591 -0.1989
   94MOL    H5316979   5.020   2.262   1.992 -0.4473  1.3133  0.1329
   94MOL    H5416980   4.979   2.498   1.806  1.4430  1.5726  0.1467
   94MOL    H5516981   5.043   2.369   1.643 -0.4182  1.4229 -0.8463
   94MOL    C5616982   5.072   2.516   1.999  1.0100  0.2572 -0.2214
   94MOL    C5716983   5.063   2.672   2.002 -0.2451  0.1805 -0.1160
   94MOL    C5816984   4.926   2.722   2.028 -0.3343  0.0609 -0.5000
   94MOL    O5916985   4.884   2.783   2.125  0.4252  0.3801 -0.3161
   94MOL    O6016986   4.849   2.680   1.929 -0.0567  0.5227 -0.2108
   94MOL    H6116987   5.172   2.501   2.040  0.1932 -1.8870  1.0760
   94MOL    H6216988   4.994   2.485   2.068  0.0771  0.8632 -0.9928
   94MOL    H6316989   5.105   2.699   2.099  1.7309  1.5501 -1.3121
   94MOL    H6416990   4.757   2.674   1.946  0.4836 -0.4295  2.5889
   94MOL    C6516991   5.132   2.746   1.886  0.6303 -0.2948  0.3156
   94MOL    C6616992   5.173   2.894   1.920 -0.1704 -0.5827 -0.2402
   94MOL    C6716993   5.272   2.898   2.034 -0.3369  0.3519  0.2309
   94MOL    O6816994   5.376   2.837   2.027 -0.2075 -0.4699  0.1432
   94MOL    O6916995   5.235   2.977   2.139 -0.2097 -0.4297 -0.6646
   94MOL    H7016996   5.084   2.743   1.788 -1.5471 -0.0055  1.3618
   94MOL    H7116997   5.220   2.684   1.869  0.6686  0.0578 -0.8738
   94MOL    H7216998   5.235   2.925   1.836 -0.3295 -0.6276 -0.3751
   94MOL    H7316999   5.293   2.993   2.212 -0.3724  0.0030 -0.6321
   94MOL    C7417000   5.058   2.997   1.922  0.3083  0.5146  1.1003
   94MOL    C7517001   4.970   3.018   1.791 -1.0701  0.7855  0.2886
   94MOL    C7617002   5.056   3.094   1.694 -0.7215  0.8885 -0.2499
   94MOL    O7717003   5.134   3.185   1.729  0.2923  0.1419 -0.1969
   94MOL    O7817004   5.033   3.078   1.562  0.3682  0.0673  0.7603
   94MOL    H7917005   5.088   3.094   1.963 -1.9910  2.5198 -1.6922
   94MOL    H8017006   4.995   2.970   2.007 -1.2786 -0.8813 -0.4846
   94MOL    H8117007   4.948   2.920   1.748 -1.1901  1.1388 -0.4441
   94MOL    H8217008   5.073   3.144   1.507  0.8246 -0.6138  0.2597
   94MOL    C8317009   4.835   3.087   1.827  0.6099 -0.1978 -0.5029
   94MOL    C8417010   4.719   3.090   1.723 -0.0461  0.2180 -0.3099
   94MOL    C8517011   4.701   2.963   1.635 -0.2625 -0.5591 -0.3767
   94MOL    O8617012   4.718   2.955   1.512 -0.0934 -0.4800 -0.8745
   94MOL    O8717013   4.672   2.848   1.703  0.1264  0.2885  0.1304
   94MOL    H8817014   4.859   3.190   1.854 -2.6447  0.5895 -0.4240
   94MOL    H8917015   4.796   3.036   1.915  1.9029 -3.5266 -1.7606
   94MOL    H9017016   4.628   3.100   1.781  1.9604  0.6108  2.8914
   94MOL    H9117017   4.673   2.785   1.632  3.3133  0.1745  0.1990
   94MOL    C9217018   4.734   3.226   1.637 -1.1311  0.0441 -0.0987
   94MOL    C9317019   4.595   3.286   1.593  0.1093  0.1585 -0.8322
   94MOL    C9417020   4.622   3.383   1.477  0.0632  0.5821 -0.7268
   94MOL    O9517021   4.650   3.499   1.500 -0.2740 -0.6235  0.2144
   94MOL    O9617022   4.647   3.323   1.361  0.6300  0.0044 -0.1082
   94MOL    H9717023   4.798   3.195   1.554  0.6779 -0.3473  1.4014
   94MOL    H9817024   4.800   3.293   1.694 -1.4016 -0.8287  1.2723
   94MOL    H9917025   4.537   3.207   1.545 -0.4720  0.1112 -0.0603
   94MOL   H10017026   4.687   3.381   1.298 -0.5461  1.9226  0.8540
   94MOL   C10117027   4.529   3.349   1.717 -0.3136  0.5131  0.4959
   94MOL   C10217028   4.384   3.310   1.754 -0.1340 -0.3434 -0.9139
   94MOL   C10317029   4.277   3.339   1.647  0.0497  0.7085 -0.4945
   94MOL   O10417030   4.216   3.250   1.591 -0.4155 -0.4568 -0.0586
   94MOL   O10517031   4.262   3.474   1.627  0.3602  0.3238  0.5795
   94MOL   H10617032   4.519   3.458   1.710  0.8489  0.7088  1.7066
   94MOL   H10717033   4.601   3.334   1.797 -0.7080  0.8271  0.9142
   94MOL   H10817034   4.378   3.202   1.768 -1.9071 -0.0089  1.2457
   94MOL   H10917035   4.203   3.500   1.558 -0.1848  2.6423  1.8709
   94MOL   C11017036   4.352   3.389   1.885  0.0273  0.0067 -0.5936
   94MOL   C11117037   4.224   3.334   1.954  0.2689  0.5878  1.0676
   94MOL   C11217038   4.167   3.439   2.049 -0.5339  0.2422  0.3505
   94MOL   O11317039   4.221   3.478   2.149  0.1421  0.0348  0.2328
   94MOL   O11417040   4.038   3.464   2.025  0.3520 -0.9567 -0.2842
   94MOL   H11517041   4.352   3.497   1.872  0.2603  0.0856  0.0267
   94MOL   H11617042   4.440   3.377   1.949  1.8950  2.9330 -2.4996
   94MOL   H11717043   4.143   3.306   1.887 -0.3758  0.7065  1.7948
   94MOL   H11817044   4.007   3.527   2.089 -0.0563 -0.1098 -1.2917
   94MOL   C11917045   4.248   3.202   2.023  0.2556  0.1288 -0.6517
   94MOL   C12017046   4.114   3.141   2.089  0.0540  0.0076  0.2689
   94MOL   C12117047   4.115   3.160   2.239  0.6191  0.3424  0.0795
   94MOL   O12217048   4.210   3.141   2.311 -0.4353  0.1989 -0.5394
   94MOL   O12317049   3.997   3.204   2.292 -0.2587 -0.4792  0.0868
   94MOL   H12417050   4.325   3.225   2.096 -1.3292  1.3660  0.6726
   94MOL   H12517051   4.295   3.124   1.963  0.3230 -0.3268 -0.0056
   94MOL   H12617052   4.027   3.189   2.045 -1.0473 -3.4107 -1.4220
   94MOL   H12717053   3.998   3.211   2.386 -0.0976 -1.0119  0.1269
   94MOL   C12817054   4.110   2.984   2.060 -0.0040  0.4791 -0.1679
   94MOL   C12917055   4.053   2.945   1.923  0.0373 -0.3983 -0.9583
   94MOL   C13017056   3.896   2.938   1.932  0.0408 -0.7928 -0.4144
   94MOL   O13117057   3.832   2.849   1.872 -0.1023  0.6088  0.1507
   94MOL   O13217058   3.844   3.047   1.988  0.4441 -0.1580 -0.1544
   94MOL   H13317059   4.052   2.936   2.139 -0.7267 -0.5145 -1.2727
   94MOL   H13417060   4.210   2.951   2.088  0.0225  0.5780 -0.1470
   94MOL   H13517061   4.080   3.023   1.851 -1.7076  0.8114 -0.3557
   94MOL   H13617062   3.750   3.043   1.979  0.5035 -0.0837 -0.8672
   94MOL   C13717063   4.117   2.810   1.869 -0.5003 -0.1023  0.0385
   94MOL   C13817064   4.264   2.827   1.812 -0.0315  0.1236 -0.3209
   94MOL   C13917065   4.262   2.883   1.671  0.3952 -0.2434  0.2111
   94MOL   O14017066   4.188   2.840   1.583 -0.2114  0.0736 -0.2197
   94MOL   O14117067   4.358   2.981   1.670  0.4321  0.1003 -0.2971
   94MOL   H14217068   4.057   2.768   1.788 -1.5436  0.0240  0.7285
   94MOL   H14317069   4.104   2.742   1.954 -1.9533 -0.7863 -0.6989
   94MOL   H14417070   4.322   2.886   1.883 -1.3063  2.6546 -1.2988
   94MOL   H14517071   4.361   3.012   1.580  4.4134  0.9492  0.0278
   94MOL   C14617072   4.341   2.686   1.816 -0.8240 -0.5608  0.0137
   94MOL   C14717073   4.367   2.620   1.959  0.0949 -0.1305  0.2336
   94MOL   C14817074   4.482   2.689   2.039 -0.0009  0.7183 -0.4982
   94MOL   O14917075   4.600   2.673   2.002  0.8297 -0.0538  0.3319
   94MOL   O15017076   4.437   2.773   2.145  0.1843  0.0048  0.3495
   94MOL   H15117077   4.434   2.712   1.765 -0.9892  1.3581  0.6371
   94MOL   H15217078   4.293   2.624   1.741 -0.3204 -1.9282  0.7984
   94MOL   H15317079   4.275   2.631   2.017 -1.2799  1.1428 -2.1324
   94MOL   H15417080   4.511   2.820   2.181 -0.9281  0.1968  2.4705
   94MOL   C15517081   4.386   2.468   1.944  0.0005 -0.3063 -0.2814
   94MOL   C15617082   4.326   2.388   2.069 -0.0026 -0.6429 -0.6709
   94MOL   C15717083   4.380   2.250   2.062 -0.0380 -0.9167  0.5208
   94MOL   O15817084   4.417   2.193   1.962 -0.0746 -0.1489 -0.5535
   94MOL   O15917085   4.369   2.196   2.183 -0.4340 -0.8989 -0.2059
   94MOL   H16017086   4.488   2.440   1.919 -0.1164  0.1831 -1.3126
   94MOL   H16117087   4.323   2.440   1.859 -2.4973 -1.3392  1.8315
   94MOL   H16217088   4.370   2.426   2.161  0.3704 -0.9304 -0.7274
   94MOL   H16317089   4.392   2.105   2.193  1.9535 -0.2303  0.7260
   94MOL   C16417090   4.174   2.371   2.067 -0.0232 -0.0884  0.3686
   94MOL   C16517091   4.108   2.349   2.201  0.4114  0.5115 -0.7208
   94MOL   C16617092   3.955   2.319   2.192 -0.6292 -0.3665  0.5896
   94MOL   O16717093   3.893   2.318   2.090 -0.2585 -0.4391  0.0735
   94MOL   O16817094   3.895   2.315   2.316 -0.1143  0.0959  0.2316
   94MOL   H16917095   4.142   2.299   1.992  0.5223 -0.4549  0.4833
   94MOL   H17017096   4.131   2.465   2.034 -0.0902  0.2877  1.4888
   94MOL   H17117097   4.143   2.252   2.239 -1.3147  0.7798  1.7116
   94MOL   H17217098   3.800   2.310   2.318 -0.0749 -1.1831 -0.3639
   94MOL   C17317099   4.139   2.452   2.312  0.6330  0.3572 -0.3493
   94MOL   C17417100   4.091   2.595   2.285  0.0723 -0.2370  0.5802
   94MOL   C17517101   4.148   2.695   2.391  0.7169 -0.2263 -0.9672
   94MOL   O17617102   4.152   2.673   2.510  0.1636 -0.5174  0.1673
   94MOL   O17717103   4.193   2.808   2.337 -0.1823 -0.4051  0.4951
   94MOL   H17817104   4.243   2.461   2.343  0.2014 -0.9375  1.5150
   94MOL   H17917105   4.095   2.421   2.407  1.2074  1.9058  0.4468
   94MOL   H18017106   4.119   2.638   2.189 -1.1433 -0.8263 -0.0478
   94MOL   H18117107   4.244   2.866   2.392 -1.5815  0.3709  0.9985
   94MOL   H18217108   3.984   2.583   2.296  0.2059 -0.7555  1.3471
   95MOL     C117109   1.533   0.773   7.129 -0.3339 -0.9147  0.4703
   95MOL     C217110   1.474   0.858   7.014  0.2439  0.1421  0.5032
   95MOL     C317111   1.335   0.904   7.054  0.0972  0.5243 -0.0588
   95MOL     O417112   1.238   0.825   7.069  0.3595  0.1714 -0.6645
   95MOL     O517113   1.326   1.036   7.069 -0.3606  0.4349  0.3939
   95MOL     H617114   1.532   0.826   7.224  2.3942  1.0894 -0.5459
   95MOL     H717115   1.482   0.678   7.139  0.3499 -1.5697 -1.8457
   95MOL     H817116   1.536   0.947   7.000  1.5090 -1.1834 -2.6610
   95MOL     H917117   1.241   1.048   7.110  0.1546  1.2829  1.2229
   95MOL    H1017118   1.638   0.762   7.102 -0.2889  1.0293 -0.2747
   95MOL    C1117119   1.481   0.764   6.894  0.3886 -0.8222 -0.5810
   95MOL    C1217120   1.496   0.807   6.749  0.2030 -0.4537 -0.1620
   95MOL    C1317121   1.362   0.872   6.700  0.4404  0.2648  0.3899
   95MOL    O1417122   1.322   0.984   6.729 -0.0863  0.6885  0.3317
   95MOL    O1517123   1.280   0.779   6.653  0.0251 -0.1439  0.0881
   95MOL    H1617124   1.390   0.705   6.889 -0.9001  1.2955 -2.3518
   95MOL    H1717125   1.549   0.682   6.919  0.2222 -0.4199  1.3253
   95MOL    H1817126   1.562   0.894   6.753  1.6315 -1.5791  1.8235
   95MOL    H1917127   1.202   0.829   6.635  1.1550  1.3734 -0.7503
   95MOL    C2017128   1.551   0.704   6.657  0.5089  0.3701 -0.6028
   95MOL    C2117129   1.698   0.719   6.634  0.1063 -0.1424 -0.3841
   95MOL    C2217130   1.749   0.613   6.532  0.4519 -0.5631 -0.2138
   95MOL    O2317131   1.674   0.533   6.477  0.1163 -0.7461  0.4360
   95MOL    O2417132   1.882   0.621   6.511  0.2960 -0.3485 -0.5519
   95MOL    H2517133   1.509   0.707   6.556  1.2803 -0.4588 -0.9646
   95MOL    H2617134   1.528   0.605   6.697  0.7245 -0.7376 -3.1125
   95MOL    H2717135   1.700   0.810   6.572  0.0163  0.1067 -0.0223
   95MOL    H2817136   1.904   0.560   6.442 -1.0846  0.6313 -1.8932
   95MOL    C2917137   1.795   0.725   6.759  0.5547 -0.1350  0.1136
   95MOL    C3017138   1.861   0.594   6.818 -0.9451 -1.2448 -0.4519
   95MOL    C3117139   1.760   0.487   6.867 -0.1179  0.3437 -0.0169
   95MOL    O3217140   1.724   0.470   6.981  0.8766  0.3936  0.1652
   95MOL    O3317141   1.720   0.414   6.766  0.2377  0.6065  0.5151
   95MOL    H3417142   1.747   0.785   6.836 -1.3567 -1.0706 -0.3379
   95MOL    H3517143   1.887   0.777   6.733  0.9534 -0.0696  1.5655
   95MOL    H3617144   1.932   0.560   6.743  0.1009 -0.9358  0.3833
   95MOL    H3717145   1.671   0.344   6.807  0.9186  0.8038  1.7158
   95MOL    C3817146   1.953   0.627   6.943 -0.0127  0.1390  0.3319
   95MOL    C3917147   2.056   0.520   6.979 -0.0346 -0.4432 -1.1486
   95MOL    C4017148   2.136   0.580   7.097 -0.1868 -0.2843  0.5639
   95MOL    O4117149   2.103   0.555   7.215  0.8120 -0.5058  0.7430
   95MOL    O4217150   2.238   0.664   7.065 -0.3097  0.4132  0.0759
   95MOL    H4317151   1.893   0.648   7.032 -0.3596  1.4240 -0.1943
   95MOL    H4417152   2.003   0.720   6.916  0.3960  0.1873  1.2407
   95MOL    H4517153   2.007   0.433   7.023  0.6060 -0.4134 -0.3663
   95MOL    H4617154   2.288   0.682   7.142  0.2210 -0.6659 -0.0019
   95MOL    C4717155   2.143   0.479   6.866  0.0098 -0.3806  0.2603
   95MOL    C4817156   2.274   0.398   6.896 -0.4184  0.6963  0.8854
   95MOL    C4917157   2.371   0.430   6.781 -0.9188 -0.0697 -0.6182
   95MOL    O5017158   2.381   0.380   6.669  0.1583 -0.7271 -0.1470
   95MOL    O5117159   2.436   0.544   6.815 -0.1497 -0.7550  0.3007
   95MOL    H5217160   2.162   0.566   6.804  0.0925  0.6026  1.6568
   95MOL    H5317161   2.083   0.422   6.795 -0.9600  0.6915  0.2117
   95MOL    H5417162   2.333   0.429   6.982 -2.3829  1.0289  2.1563
   95MOL    H5517163   2.488   0.577   6.743  0.0636  0.3710  0.9502
   95MOL    C5617164   2.259   0.251   6.897 -0.0379 -0.0159  0.1869
   95MOL    C5717165   2.181   0.193   7.014  0.2879  0.1628  0.1546
   95MOL    C5817166   2.249   0.083   7.095 -0.0484 -0.6772 -0.3132
   95MOL    O5917167   2.276   0.096   7.219 -0.3961 -0.1681  0.5154
   95MOL    O6017168   2.281   7.829   7.027 -0.3604 -0.2317  0.5806
   95MOL    H6117169   2.358   0.208   6.889  0.0660  0.4725 -1.2475
   95MOL    H6217170   2.225   0.210   6.802  2.0711 -2.4116  0.4187
   95MOL    H6317171   2.160   0.274   7.083 -2.1364 -1.7616  1.7650
   95MOL    H6417172   2.318   7.749   7.061  0.2199 -0.7045 -1.0850
   95MOL    C6517173   2.041   0.135   6.967 -0.1654 -0.7638  0.0285
   95MOL    C6617174   1.936   0.072   7.059 -0.7664 -0.1620 -0.5131
   95MOL    C6717175   1.813   0.050   6.963 -0.7697  0.8189  0.1727
   95MOL    O6817176   1.772   7.793   6.934  0.5606 -0.1465  0.0249
   95MOL    O6917177   1.758   0.166   6.919  0.4739 -0.4205 -0.0400
   95MOL    H7017178   2.069   0.063   6.889  1.0861  2.0171 -2.1508
   95MOL    H7117179   1.993   0.214   6.911 -0.5495 -1.4865 -0.6783
   95MOL    H7217180   1.967   7.825   7.089 -0.6075 -0.1640 -0.6837
   95MOL    H7317181   1.676   0.134   6.884  0.5128  0.1293 -0.6388
   95MOL    C7417182   1.915   0.155   7.183 -0.2970 -0.0651  0.4511
   95MOL    C7517183   1.837   0.077   7.290 -0.3074  0.5524  0.3773
   95MOL    C7617184   1.683   0.068   7.284  0.1653 -0.9291  0.0995
   95MOL    O7717185   1.615   0.132   7.208  0.2603 -0.0516  0.3083
   95MOL    O7817186   1.641   7.841   7.384  0.3541  0.0610 -0.2274
   95MOL    H7917187   1.867   0.250   7.164  0.6599  0.3512  0.1062
   95MOL    H8017188   2.013   0.175   7.227  0.1559  0.2515 -0.6979
   95MOL    H8117189   1.868   7.825   7.295 -0.4480  0.5557  1.4122
   95MOL    H8217190   1.547   7.838   7.387  0.2946  2.2882  0.8010
   95MOL    C8317191   1.875   0.139   7.429 -0.1908  0.2065  0.0756
   95MOL    C8417192   1.801   0.262   7.490  0.0628 -0.5689  1.1144
   95MOL    C8517193   1.828   0.385   7.400 -0.5674 -0.0572  0.2189
   95MOL    O8617194   1.744   0.447   7.336 -0.4860 -0.0084 -0.6084
   95MOL    O8717195   1.952   0.429   7.417  0.2951  0.0168  0.6144
   95MOL    H8817196   1.984   0.149   7.424  0.0618 -2.5691 -1.4866
   95MOL    H8917197   1.859   0.061   7.503 -0.4554  0.6784  0.5173
   95MOL    H9017198   1.694   0.241   7.491  0.2040 -1.4141  0.1409
   95MOL    H9117199   1.965   0.501   7.358  0.5748 -1.0545 -0.6790
   95MOL    C9217200   1.848   0.280   7.643  0.0414 -0.2021  0.2923
   95MOL    C9317201   1.771   0.370   7.744 -0.1178 -0.0057 -0.0682
   95MOL    C9417202   1.626   0.323   7.762  0.0842  0.7584 -0.0894
   95MOL    O9517203   1.552   0.292   7.666  0.3276  0.2282  0.0706
   95MOL    O9617204   1.593   0.318   0.035  0.0756 -0.1128  0.3862
   95MOL    H9717205   1.951   0.316   7.643  0.4512 -1.2733 -1.6431
   95MOL    H9817206   1.873   0.184   7.688  0.1889 -0.5382 -0.4889
   95MOL    H9917207   1.817   0.351   7.841  3.2971 -1.1422 -1.8102
   95MOL   H10017208   1.507   0.278   0.032  0.4432 -0.9556  0.9503
   95MOL   C10117209   1.782   0.523   7.704 -0.0615 -0.9697 -0.6594
   95MOL   C10217210   1.722   0.623   7.811  0.4612 -0.3891  0.5859
   95MOL   C10317211   1.722   0.766   7.756  0.6879  0.0525 -0.0588
   95MOL   O10417212   1.629   0.850   7.785 -0.2876 -0.4452  0.3948
   95MOL   O10517213   1.836   0.812   7.693  0.4528  0.2078  0.2142
   95MOL   H10617214   1.741   0.564   7.611  1.0008  2.2225  0.2416
   95MOL   H10717215   1.887   0.549   7.696  0.0622 -1.4253 -0.5127
   95MOL   H10817216   1.617   0.596   7.804  0.4610  0.3506 -3.3785
   95MOL   H10917217   1.834   0.906   7.683  0.4927 -0.0974 -3.0481
   95MOL   C11017218   1.772   0.611   0.101 -0.5276  0.7832  0.2279
   95MOL   C11117219   1.718   0.716   0.207  0.2759 -0.2215  0.2497
   95MOL   C11217220   1.797   0.700   0.333 -0.1083 -0.3022  0.0844
   95MOL   O11317221   1.877   0.782   0.376  0.2981 -0.0282  0.3805
   95MOL   O11417222   1.773   0.578   0.386 -0.1296  0.0804  0.3572
   95MOL   H11517223   1.880   0.605   0.111 -0.2701  3.6239 -0.2686
   95MOL   H11617224   1.720   0.524   0.140  0.3302 -0.5000 -1.4088
   95MOL   H11717225   1.745   0.811   0.159 -2.1189  0.1886 -0.3221
   95MOL   H11817226   1.832   0.574   0.460  3.2501 -0.8222 -2.2337
   95MOL   C11917227   1.559   0.704   0.225  0.2922 -0.3634 -0.2761
   95MOL   C12017228   1.487   0.829   0.270 -0.3993  0.3034  0.0718
   95MOL   C12117229   1.485   0.850   0.420  0.4672 -0.0764  0.3325
   95MOL   O12217230   1.568   0.789   0.487  0.1016  0.0403 -0.1961
   95MOL   O12317231   1.400   0.945   0.466  0.2127 -0.0112 -0.0807
   95MOL   H12417232   1.536   0.613   0.280  2.5650 -1.8680 -1.7589
   95MOL   H12517233   1.519   0.682   0.126  1.8010 -0.2645 -0.9152
   95MOL   H12617234   1.537   0.913   0.222  1.2448 -0.0693  1.1170
   95MOL   H12717235   1.418   0.939   0.559 -1.6692  2.0719  0.4435
   95MOL   C12817236   1.338   0.834   0.217 -0.5101  0.5641  0.0813
   95MOL   C12917237   1.244   0.720   0.272 -0.2327  0.3844  0.1050
   95MOL   C13017238   1.264   0.581   0.212 -0.2922  0.4036 -0.1504
   95MOL   O13117239   1.272   0.561   0.089  0.4561  0.7050 -0.4410
   95MOL   O13217240   1.276   0.479   0.303 -0.1869 -0.6601 -0.3973
   95MOL   H13317241   1.335   0.826   0.109 -2.4026  0.9926  0.0964
   95MOL   H13417242   1.292   0.931   0.236 -0.4821  0.8953 -1.5218
   95MOL   H13517243   1.263   0.713   0.379  0.1004  1.1367  0.0995
   95MOL   H13617244   1.280   0.395   0.259  0.1950 -0.3850 -0.8968
   95MOL   C13717245   1.100   0.759   0.264 -0.2789  0.5011  0.0398
   95MOL   C13817246   1.058   0.869   0.364 -0.1768  0.3021  0.2706
   95MOL   C13917247   1.031   0.812   0.504 -0.3492  0.3226  0.0561
   95MOL   O14017248   0.915   0.800   0.560 -0.2222  0.0186  0.5492
   95MOL   O14117249   1.147   0.797   0.573  0.2345  0.0445  0.5981
   95MOL   H14217250   1.030   0.676   0.266  1.1129 -0.7059  4.0723
   95MOL   H14317251   1.083   0.811   0.170  0.8297  1.7400  0.5036
   95MOL   H14417252   1.132   0.948   0.379 -1.7236  1.8065  0.2567
   95MOL   H14517253   1.134   0.749   0.653  3.0036  1.6819  2.0931
   95MOL   C14617254   0.937   0.945   0.307  0.1944  0.8948  0.7375
   95MOL   C14717255   0.906   1.097   0.355  0.5624 -0.5342  0.2141
   95MOL   C14817256   0.765   1.141   0.320  0.1163 -0.6489  0.5946
   95MOL   O14917257   0.678   1.063   0.285  0.5461  0.0657 -0.3785
   95MOL   O15017258   0.752   1.277   0.326 -0.2121  0.2923 -0.1216
   95MOL   H15117259   0.853   0.878   0.330 -1.0139  1.7273 -1.1483
   95MOL   H15217260   0.940   0.952   0.198  0.4532  0.3981  0.7109
   95MOL   H15317261   0.909   1.096   0.464  0.1809 -2.4263  0.2197
   95MOL   H15417262   0.679   1.310   0.277 -0.8487  0.6967  1.0778
   95MOL   C15517263   1.015   1.203   0.318  0.5843 -0.9196  0.2349
   95MOL   C15617264   1.031   1.250   0.167  0.1452  0.1191 -0.1849
   95MOL   C15717265   1.125   1.156   0.084 -0.0720 -0.2308 -0.3304
   95MOL   O15817266   1.071   1.067   0.012 -0.1773 -0.1235  0.4432
   95MOL   O15917267   1.261   1.178   0.102 -0.1620  0.4568 -0.2996
   95MOL   H16017268   1.109   1.168   0.360  2.0167  1.2097 -1.1181
   95MOL   H16117269   0.994   1.286   0.385 -2.7409  0.8537 -2.7831
   95MOL   H16217270   0.937   1.222   0.119  0.6297 -2.7048  0.4272
   95MOL   H16317271   1.298   1.121   0.036 -0.2865 -0.9741  0.8528
   95MOL   C16417272   1.062   1.396   0.149  0.2766  0.2902 -0.1998
   95MOL   C16517273   0.979   1.470   0.045 -0.0058 -0.2052 -0.0390
   95MOL   C16617274   0.996   1.396   7.765  0.0950 -0.7183 -0.6512
   95MOL   O16717275   0.903   1.335   7.713 -0.4636 -0.0305 -0.3549
   95MOL   O16817276   1.117   1.406   7.718  0.4453  0.1066  0.0460
   95MOL   H16917277   1.169   1.413   0.138  0.2882 -0.0542 -0.6313
   95MOL   H17017278   1.036   1.435   0.247 -1.8359 -1.5405 -0.0121
   95MOL   H17117279   0.872   1.466   0.066 -0.1902 -1.4304 -1.1461
   95MOL   H17217280   1.125   1.366   7.633  2.5905 -1.4404  0.9544
   95MOL   C17317281   1.018   1.618   0.034  0.0064 -0.0460  0.2814
   95MOL   C17417282   0.948   1.704   7.776  0.0052  0.4837  0.1153
   95MOL   C17517283   0.789   1.705   7.785  0.0457 -0.3582 -0.0713
   95MOL   O17617284   0.726   1.685   0.031  0.3030 -0.9685 -0.7591
   95MOL   O17717285   0.729   1.751   7.668 -0.1636 -0.0748 -0.3046
   95MOL   H17817286   1.126   1.631   0.023 -0.2764  2.0443 -0.1259
   95MOL   H17917287   0.993   1.675   0.123  1.0639  0.6953  0.1138
   95MOL   H18017288   0.958   1.811   7.797  2.3349  0.4993 -0.9138
   95MOL   H18117289   0.637   1.762   7.685  0.0912 -0.8727  1.8645
   95MOL   H18217290   0.994   1.691   7.678  0.3678  0.2212  0.3235
   96MOL     C117291   2.253   6.767   1.448  0.1829  0.4300 -0.7972
   96MOL     C217292   2.355   6.768   1.335  0.2417  0.5903 -0.3876
   96MOL     C317293   2.281   6.749   1.199  0.3335  0.5305 -0.5164
   96MOL     O417294   2.249   6.846   1.130 -0.0745 -0.3735 -0.0399
   96MOL     O517295   2.277   6.615   1.158 -0.1367 -0.0065  0.0504
   96MOL     H617296   2.217   6.668   1.473  1.1562  0.1774 -0.3654
   96MOL     H717297   2.291   6.816   1.538  1.5594 -0.3858 -0.9211
   96MOL     H817298   2.395   6.869   1.326  0.5069  0.3510 -2.0048
   96MOL     H917299   2.235   6.607   1.073 -0.6119 -0.6461  0.3319
   96MOL    H1017300   2.167   6.829   1.425 -2.1801 -2.2741  0.5373
   96MOL    C1117301   2.477   6.676   1.349  0.4864  0.6678  0.4267
   96MOL    C1217302   2.556   6.695   1.482 -0.9471 -0.0729  0.3234
   96MOL    C1317303   2.634   6.824   1.468  0.0057  0.1104 -0.2589
   96MOL    O1417304   2.604   6.929   1.527 -0.3440  0.3443  0.3979
   96MOL    O1517305   2.743   6.820   1.382  0.3736  0.0606  0.4602
   96MOL    H1617306   2.535   6.676   1.256 -3.1448  0.6584 -1.9422
   96MOL    H1717307   2.428   6.579   1.359  0.4434  0.4500 -1.5581
   96MOL    H1817308   2.481   6.724   1.556  0.6477  0.2396  1.8628
   96MOL    H1917309   2.769   6.909   1.365 -0.7349  0.6160  1.5922
   96MOL    C2017310   2.627   6.575   1.552  0.0081 -0.6525 -0.0336
   96MOL    C2117311   2.542   6.450   1.603  0.0470 -0.3846 -0.0127
   96MOL    C2217312   2.446   6.514   1.707  0.5919  0.2238  0.2469
   96MOL    O2317313   2.324   6.516   1.687  0.5262  0.2401  1.0092
   96MOL    O2417314   2.512   6.565   1.812  0.2321 -0.1323 -0.1697
   96MOL    H2517315   2.685   6.614   1.635  0.2775 -0.0358 -0.5106
   96MOL    H2617316   2.703   6.532   1.486 -0.2766  0.6498 -1.2494
   96MOL    H2717317   2.486   6.423   1.513  0.9872  2.7420 -1.6211
   96MOL    H2817318   2.453   6.602   1.876  0.1369 -2.9816  1.4362
   96MOL    C2917319   2.627   6.336   1.660 -0.5598 -0.0109  0.1950
   96MOL    C3017320   2.696   6.252   1.545 -0.1066  0.1548  0.1753
   96MOL    C3117321   2.609   6.131   1.520 -0.0921  0.1736  0.0716
   96MOL    O3217322   2.636   6.013   1.540  0.1795 -0.3159  0.0399
   96MOL    O3317323   2.493   6.170   1.456 -0.2006 -0.3177  0.0738
   96MOL    H3417324   2.588   6.272   1.739  1.2643  0.3753  1.4301
   96MOL    H3517325   2.712   6.374   1.717 -0.1792 -1.1482  0.3919
   96MOL    H3617326   2.701   6.311   1.453 -1.4484  0.0618  0.0269
   96MOL    H3717327   2.452   6.090   1.427 -0.2709  0.8145 -3.1310
   96MOL    C3817328   2.839   6.214   1.584  0.2426  0.1803  0.2391
   96MOL    C3917329   2.930   6.126   1.491  0.5749  0.3082 -0.1447
   96MOL    C4017330   2.950   5.973   1.507 -0.2951  0.5859  0.5597
   96MOL    O4117331   2.955   5.913   1.614 -0.2150  0.3175 -0.3898
   96MOL    O4217332   2.965   5.905   1.390 -0.3349 -0.0477 -0.2096
   96MOL    H4317333   2.835   6.154   1.675 -0.4412 -0.4898 -0.2203
   96MOL    H4417334   2.901   6.302   1.599  1.0894 -0.2361 -0.7310
   96MOL    H4517335   2.876   6.135   1.396 -0.1076  0.8104  0.2828
   96MOL    H4617336   2.970   5.961   1.314  0.1359  0.8255  0.4548
   96MOL    C4717337   3.063   6.196   1.456 -0.3077  0.1122 -0.3422
   96MOL    C4817338   3.050   6.301   1.329 -0.1046  0.2515 -0.1428
   96MOL    C4917339   3.062   6.220   1.194  0.1538  0.3120  0.1368
   96MOL    O5017340   3.038   6.104   1.184  0.2623 -0.5332 -0.1850
   96MOL    O5117341   3.080   6.296   1.089 -0.0149 -0.1662 -0.3663
   96MOL    H5217342   3.143   6.126   1.434 -0.9944 -0.7569 -0.0916
   96MOL    H5317343   3.092   6.243   1.550  1.1060 -0.4554 -0.4945
   96MOL    H5417344   2.953   6.350   1.327 -0.9374 -1.3222  0.4604
   96MOL    H5517345   3.063   6.247   1.010 -1.0062 -1.1049  0.4233
   96MOL    C5617346   3.159   6.415   1.330 -0.5570  0.6097 -0.0272
   96MOL    C5717347   3.147   6.522   1.440 -0.3294 -0.0665  0.3160
   96MOL    C5817348   3.003   6.579   1.457  0.8017  0.3026  0.1624
   96MOL    O5917349   2.947   6.612   1.562  0.1141  0.5350  0.1068
   96MOL    O6017350   2.950   6.608   1.335 -1.0195 -0.2377 -0.1661
   96MOL    H6117351   3.156   6.477   1.240 -0.1490 -0.8104 -1.0466
   96MOL    H6217352   3.256   6.366   1.333 -1.4325 -1.2871 -1.4101
   96MOL    H6317353   3.170   6.474   1.535 -0.2305 -1.4910 -0.4156
   96MOL    H6417354   2.875   6.663   1.352 -0.1603  1.0015 -0.3833
   96MOL    C6517355   3.260   6.633   1.426 -0.1069 -0.0925  0.0557
   96MOL    C6617356   3.254   6.714   1.295 -0.3167  0.0273 -0.1040
   96MOL    C6717357   3.365   6.671   1.199  0.1400 -0.0850 -0.1679
   96MOL    O6817358   3.471   6.726   1.200  0.2750  0.6019  0.4552
   96MOL    O6917359   3.332   6.577   1.110  0.0033 -0.1771  0.3112
   96MOL    H7017360   3.362   6.599   1.444 -0.0053  0.3381  0.3008
   96MOL    H7117361   3.245   6.694   1.515 -0.6997  0.4408 -0.4072
   96MOL    H7217362   3.166   6.693   1.233  0.6061 -2.3465 -0.6334
   96MOL    H7317363   3.405   6.577   1.051 -0.3153 -0.8332 -0.0845
   96MOL    C7417364   3.240   6.867   1.314  0.3823  0.6347  0.0310
   96MOL    C7517365   3.359   6.959   1.357  0.6169 -0.5062  0.3243
   96MOL    C7617366   3.451   6.914   1.472 -0.1947 -0.4951  0.1972
   96MOL    O7717367   3.554   6.865   1.450  0.3018 -0.4663 -0.2699
   96MOL    O7817368   3.412   6.956   1.598  0.5629 -0.1438  0.2700
   96MOL    H7917369   3.149   6.874   1.375  1.9543  1.0821  2.3740
   96MOL    H8017370   3.210   6.898   1.214  0.3829 -0.3754 -0.2913
   96MOL    H8117371   3.433   6.968   1.278  1.7631  1.3390  1.5611
   96MOL    H8217372   3.485   6.925   1.650  0.8194  2.4532  1.5733
   96MOL    C8317373   3.308   7.101   1.381 -0.4232  0.2093  0.0783
   96MOL    C8417374   3.412   7.218   1.359  1.0308  0.0270 -0.2774
   96MOL    C8517375   3.370   7.337   1.446  0.1842 -0.0445 -0.0967
   96MOL    O8617376   3.283   7.411   1.404  0.1051 -0.0806 -0.1131
   96MOL    O8717377   3.451   7.364   1.556  0.0899  0.5185 -0.0932
   96MOL    H8817378   3.259   7.102   1.478 -1.7767  1.9025 -0.5763
   96MOL    H8917379   3.223   7.118   1.314 -2.4879 -0.8475  2.3498
   96MOL    H9017380   3.516   7.196   1.384  0.2975 -1.6033  1.4584
   96MOL    H9117381   3.521   7.302   1.563 -0.0327  0.4212  0.2529
   96MOL    C9217382   3.414   7.255   1.207 -0.1482 -0.1471 -0.7739
   96MOL    C9317383   3.492   7.382   1.146 -0.0824  0.0599 -0.5796
   96MOL    C9417384   3.476   7.377   0.989 -0.3481 -0.1659  0.8577
   96MOL    O9517385   3.415   7.292   0.927  0.0713 -0.5406  0.6633
   96MOL    O9617386   3.526   7.491   0.927 -0.0899  0.5053  0.5856
   96MOL    H9717387   3.308   7.270   1.186 -0.3655  1.5345  1.2687
   96MOL    H9817388   3.429   7.166   1.147  2.0848  0.9504 -1.8802
   96MOL    H9917389   3.443   7.476   1.174  0.1744  0.3646 -1.1523
   96MOL   H10017390   3.518   7.477   0.834 -0.7455  0.1921  0.6882
   96MOL   C10117391   3.639   7.399   1.189 -0.0809  0.3380  0.1419
   96MOL   C10217392   3.666   7.519   1.283  0.1894 -0.2898  0.1803
   96MOL   C10317393   3.643   7.656   1.203  0.0695 -1.2848 -0.4076
   96MOL   O10417394   3.538   7.715   1.220 -0.0864  0.3322  0.2272
   96MOL   O10517395   3.729   7.686   1.113  0.4157  0.1263  0.1697
   96MOL   H10617396   3.708   7.405   1.106 -1.3293 -0.6665 -0.9892
   96MOL   H10717397   3.662   7.304   1.236  2.3328  1.4097  1.2205
   96MOL   H10817398   3.601   7.531   1.369  1.1340  0.4865  0.8021
   96MOL   H10917399   3.708   7.772   1.080  2.3164  1.1640  1.5520
   96MOL   C11017400   3.814   7.517   1.327 -0.5577  0.1148  0.1051
   96MOL   C11117401   3.860   7.396   1.406  0.3007 -0.6377 -0.3664
   96MOL   C11217402   3.776   7.363   1.530 -0.5050  0.5955 -0.6172
   96MOL   O11317403   3.703   7.262   1.541  0.2328  0.3147  0.4167
   96MOL   O11417404   3.777   7.458   1.622  0.4644 -0.4328 -0.2298
   96MOL   H11517405   3.811   7.596   1.402 -1.0672  0.5057 -0.3209
   96MOL   H11617406   3.887   7.534   1.247 -2.2313  1.8349 -1.1208
   96MOL   H11717407   3.843   7.310   1.341  0.6466  0.3712 -1.8165
   96MOL   H11817408   3.718   7.432   1.691  0.4404  0.5572  0.1431
   96MOL   C11917409   4.008   7.396   1.441 -0.4221  0.2058 -0.0427
   96MOL   C12017410   4.086   7.284   1.380 -0.6300 -0.2797  0.3603
   96MOL   C12117411   4.231   7.271   1.440 -0.4037 -0.3890 -0.4419
   96MOL   O12217412   4.298   7.168   1.443  0.0805 -0.4240 -0.2367
   96MOL   O12317413   4.274   7.387   1.493 -0.2507  0.2211  0.9102
   96MOL   H12417414   4.018   7.399   1.550  0.6591  1.5136 -0.1623
   96MOL   H12517415   4.052   7.491   1.411  0.1822 -0.5961 -1.7332
   96MOL   H12617416   4.034   7.193   1.409  0.0510 -0.3051  1.5015
   96MOL   H12717417   4.356   7.379   1.540  0.6926  1.1979 -0.5334
   96MOL   C12817418   4.086   7.287   1.226 -0.5087 -0.0638  0.5462
   96MOL   C12917419   4.108   7.152   1.157 -0.1771 -0.3260 -0.4975
   96MOL   C13017420   4.243   7.151   1.084 -0.6026 -0.4205  0.0616
   96MOL   O13117421   4.304   7.246   1.032 -0.1607  0.1315  0.4810
   96MOL   O13217422   4.294   7.028   1.068 -0.0485  0.2172  0.4823
   96MOL   H13317423   4.176   7.347   1.211 -0.8724  0.7343  1.4795
   96MOL   H13417424   4.000   7.338   1.183 -0.0957  0.7638  0.6760
   96MOL   H13517425   4.106   7.078   1.237 -0.9099  0.8386  0.5850
   96MOL   H13617426   4.369   7.029   1.011 -1.5084 -0.4256 -1.5148
   96MOL   C13717427   4.003   7.116   1.047  0.0385 -0.5506  0.7655
   96MOL   C13817428   3.861   7.095   1.100  0.5149  0.6097 -0.8769
   96MOL   C13917429   3.856   6.981   1.203  0.9331  0.2481  0.4395
   96MOL   O14017430   3.944   6.903   1.222 -0.1289 -0.1822 -0.4056
   96MOL   O14117431   3.737   6.971   1.267  0.0712  0.3049 -0.6314
   96MOL   H14217432   4.034   7.032   0.985  0.0804  1.1234 -1.5063
   96MOL   H14317433   4.004   7.195   0.973  1.1832  0.2871  1.6463
   96MOL   H14417434   3.831   7.189   1.146  0.1863 -0.3186  0.8575
   96MOL   H14517435   3.733   6.896   1.324 -2.1048  0.5057 -0.4917
   96MOL   C14617436   3.757   7.070   0.991  0.1222 -0.3785  0.5848
   96MOL   C14717437   3.758   6.961   0.876  0.5694  0.1796  0.0830
   96MOL   C14817438   3.624   6.951   0.804  0.1754  0.0890  1.1852
   96MOL   O14917439   3.508   6.964   0.854  0.0590 -0.1464 -0.4603
   96MOL   O15017440   3.638   6.929   0.668 -0.8441  0.5206  0.2097
   96MOL   H15117441   3.760   7.165   0.937 -0.2829  0.7839  2.5641
   96MOL   H15217442   3.655   7.053   1.026  0.4783  0.7355  2.2235
   96MOL   H15317443   3.815   6.986   0.786  2.5556  3.5059  2.1462
   96MOL   H15417444   3.547   6.906   0.654 -1.4631  2.3120  1.0742
   96MOL   C15517445   3.802   6.825   0.940 -0.4832 -0.5480  0.0462
   96MOL   C15617446   3.795   6.693   0.854 -0.0532 -1.1441  0.8120
   96MOL   C15717447   3.662   6.617   0.874 -0.5126  0.4979  0.3536
   96MOL   O15817448   3.565   6.656   0.938  0.0701 -0.6698 -0.4778
   96MOL   O15917449   3.669   6.497   0.809  0.0408 -0.0056 -0.1174
   96MOL   H16017450   3.753   6.816   1.037 -0.2560 -1.2283  0.1031
   96MOL   H16117451   3.908   6.843   0.962 -0.5856  0.5508 -0.3138
   96MOL   H16217452   3.790   6.720   0.749  0.0322 -0.8408  0.8860
   96MOL   H16317453   3.585   6.455   0.817 -0.6600  1.7387  2.3685
   96MOL   C16417454   3.929   6.615   0.868 -0.4374  0.4676 -0.7791
   96MOL   C16517455   4.051   6.663   0.782 -0.0566 -0.1605 -0.4333
   96MOL   C16617456   4.029   6.625   0.631 -0.1695  0.0538 -0.2045
   96MOL   O16717457   3.930   6.563   0.595 -0.5247 -0.0369 -0.4120
   96MOL   O16817458   4.123   6.681   0.547 -0.8319  0.1208  0.0322
   96MOL   H16917459   3.912   6.512   0.836 -2.3564  1.0773 -1.7672
   96MOL   H17017460   3.943   6.610   0.976 -1.3076 -1.2029 -0.7242
   96MOL   H17117461   4.048   6.771   0.796  0.1773 -0.3869  1.5566
   96MOL   H17217462   4.075   6.668   0.467  0.2205 -2.4542 -0.2481
   96MOL   C17317463   4.189   6.612   0.825 -0.3123  0.6783 -0.1131
   96MOL   C17417464   4.232   6.638   0.977 -0.5035 -0.1064  0.0013
   96MOL   C17517465   4.363   6.576   1.005  0.5778 -0.4756 -0.0977
   96MOL   O17617466   4.390   6.462   0.978  0.2924 -0.0971 -0.2321
   96MOL   O17717467   4.442   6.663   1.075 -0.1003 -0.2542  0.2967
   96MOL   H17817468   4.260   6.645   0.749 -1.6268 -0.0085 -1.6839
   96MOL   H17917469   4.190   6.508   0.792 -1.9931  1.5481 -3.1598
   96MOL   H18017470   4.243   6.740   1.014 -1.0002  0.2479 -0.8126
   96MOL   H18117471   4.526   6.623   1.091  0.4818 -0.4484 -2.8292
   96MOL   H18217472   4.165   6.601   1.055  0.3331 -3.5826 -0.8724
   97MOL     C117473   3.913   5.030   3.379 -0.1896 -0.7609 -0.1708
   97MOL     C217474   3.832   5.086   3.269  0.1404  0.7456  0.0762
   97MOL     C317475   3.709   5.149   3.324  0.7480 -0.1370 -1.0089
   97MOL     O417476   3.681   5.267   3.310 -0.5385 -0.1916 -0.1736
   97MOL     O517477   3.622   5.066   3.389 -0.3578 -0.2194  0.2409
   97MOL     H617478   3.917   5.105   3.458  0.5301 -1.8863  0.8723
   97MOL     H717479   3.861   4.941   3.414 -1.5326 -0.5818 -1.6623
   97MOL     H817480   3.889   5.168   3.225  3.2752 -0.9606  0.8170
   97MOL     H917481   3.666   4.984   3.408 -2.3023 -1.1174  0.9438
   97MOL    H1017482   4.019   5.020   3.355  0.4718  0.1808  2.2368
   97MOL    C1117483   3.812   4.968   3.171  0.5411  0.1847 -0.0964
   97MOL    C1217484   3.766   4.997   3.024 -0.1036 -0.9011  0.1503
   97MOL    C1317485   3.856   5.115   2.971 -0.1781  0.1974  0.0290
   97MOL    O1417486   3.825   5.230   2.959  0.0370  0.4388  0.0716
   97MOL    O1517487   3.973   5.064   2.937 -0.0773  0.5093 -0.3296
   97MOL    H1617488   3.752   4.887   3.212  0.1635 -1.5302 -3.8033
   97MOL    H1717489   3.907   4.915   3.159 -1.2462 -2.4520 -3.7378
   97MOL    H1817490   3.790   4.912   2.960 -1.9973 -1.6958  0.4516
   97MOL    H1917491   4.011   5.144   2.904 -5.9927  3.4898 -0.5744
   97MOL    C2017492   3.616   5.022   3.009  0.7192 -0.5314 -0.5783
   97MOL    C2117493   3.554   4.969   2.874 -0.2215 -0.0096 -0.3774
   97MOL    C2217494   3.526   4.823   2.859  0.2123  0.2362 -0.5351
   97MOL    O2317495   3.562   4.737   2.939 -0.0175 -0.4967 -0.5585
   97MOL    O2417496   3.449   4.792   2.751 -0.3145  0.8441 -0.2647
   97MOL    H2517497   3.606   5.130   3.016  1.6090 -0.4990  0.2681
   97MOL    H2617498   3.560   4.976   3.090 -0.1379 -0.3456 -1.0599
   97MOL    H2717499   3.456   5.016   2.887 -0.0790  0.0830  0.4097
   97MOL    H2817500   3.441   4.705   2.715  3.2504 -0.6052  2.1497
   97MOL    C2917501   3.601   5.032   2.739 -0.0383  0.3488 -0.1014
   97MOL    C3017502   3.738   5.009   2.664 -0.2753 -0.0713 -0.0787
   97MOL    C3117503   3.778   5.146   2.602  0.1653 -0.1090  0.1299
   97MOL    O3217504   3.778   5.239   2.680 -0.1172 -0.5926  0.1886
   97MOL    O3317505   3.828   5.144   2.474 -0.0155  0.2392 -0.9434
   97MOL    H3417506   3.574   5.137   2.744  0.3692  0.4039  1.0248
   97MOL    H3517507   3.527   5.011   2.662  0.0591  1.0326 -0.3839
   97MOL    H3617508   3.810   4.978   2.740  0.0774 -0.9733 -0.7704
   97MOL    H3717509   3.869   5.229   2.467 -0.4803  0.6961  1.6665
   97MOL    C3817510   3.727   4.910   2.552 -0.2097  0.5192  0.3969
   97MOL    C3917511   3.862   4.853   2.496 -0.2063 -0.1494  0.0867
   97MOL    C4017512   3.843   4.823   2.348  0.3893 -0.1377  0.3023
   97MOL    O4117513   3.831   4.716   2.301 -0.0073  0.3115 -0.1609
   97MOL    O4217514   3.807   4.937   2.279  0.5957 -0.0506 -0.3519
   97MOL    H4317515   3.660   4.955   2.479 -0.9809 -0.1105  0.7080
   97MOL    H4417516   3.668   4.824   2.584  0.0316 -0.0085 -0.5752
   97MOL    H4517517   3.947   4.920   2.502  0.6854 -1.0856 -1.6117
   97MOL    H4617518   3.817   5.009   2.339  0.1725 -0.0240 -0.3136
   97MOL    C4717519   3.887   4.731   2.583 -0.1549  0.2943 -0.2140
   97MOL    C4817520   4.040   4.701   2.611 -0.0090  0.5791  0.1482
   97MOL    C4917521   4.111   4.637   2.487 -0.1231 -0.4330  0.2035
   97MOL    O5017522   4.228   4.658   2.460 -0.1376  0.0520 -0.5035
   97MOL    O5117523   4.038   4.543   2.428 -0.1124  0.2754 -0.0885
   97MOL    H5217524   3.831   4.651   2.535  0.9339 -0.9519  0.5504
   97MOL    H5317525   3.848   4.744   2.684  1.8012 -2.4776  0.9817
   97MOL    H5417526   4.091   4.795   2.630  2.8043 -0.7074 -0.7344
   97MOL    H5517527   4.109   4.507   2.377  0.7964  0.3402  1.0988
   97MOL    C5617528   4.051   4.609   2.732 -0.0460 -1.1614 -0.2240
   97MOL    C5717529   4.192   4.557   2.773 -0.2504  0.3372 -0.3392
   97MOL    C5817530   4.196   4.408   2.808  0.0427 -0.6287 -0.3336
   97MOL    O5917531   4.189   4.383   2.925  0.0795  0.0392 -0.5404
   97MOL    O6017532   4.199   4.331   2.698 -0.3464 -0.0907  0.4138
   97MOL    H6117533   3.982   4.530   2.703  2.0918 -2.4366 -1.9877
   97MOL    H6217534   4.004   4.666   2.812  0.3280 -0.1002 -0.7571
   97MOL    H6317535   4.272   4.570   2.700 -0.1693  5.9855  0.4888
   97MOL    H6417536   4.197   4.238   2.718  0.1112  0.1073  1.3937
   97MOL    C6517537   4.243   4.645   2.889 -0.8498  1.0928 -0.1559
   97MOL    C6617538   4.394   4.607   2.926 -0.0837  0.0013  0.3830
   97MOL    C6717539   4.429   4.668   3.062 -0.2899 -0.0187  0.5481
   97MOL    O6817540   4.535   4.727   3.080  0.0974 -0.1286 -0.6724
   97MOL    O6917541   4.349   4.629   3.165 -0.0388 -0.5176 -0.4925
   97MOL    H7017542   4.179   4.634   2.977 -0.5213  1.5688  0.1411
   97MOL    H7117543   4.245   4.750   2.859  0.5820  1.4894  1.2720
   97MOL    H7217544   4.399   4.499   2.944 -0.6026 -0.5766 -2.5489
   97MOL    H7317545   4.376   4.662   3.250 -0.2679  0.0394 -0.6352
   97MOL    C7417546   4.499   4.649   2.812 -0.0367 -0.5342 -0.2546
   97MOL    C7517547   4.576   4.524   2.749  0.6889  0.3736 -0.1471
   97MOL    C7617548   4.703   4.508   2.820 -0.2416  0.3196  0.2735
   97MOL    O7717549   4.810   4.509   2.760  0.8562 -0.4363  0.7327
   97MOL    O7817550   4.691   4.504   2.959 -0.1251  0.5924 -0.0850
   97MOL    H7917551   4.578   4.717   2.841 -0.8494  0.1851  0.3171
   97MOL    H8017552   4.460   4.712   2.732 -1.1188 -0.5324  0.2655
   97MOL    H8117553   4.506   4.443   2.767 -0.0804  1.0889  0.1120
   97MOL    H8217554   4.778   4.510   2.995 -0.7526  2.7645  1.1373
   97MOL    C8317555   4.584   4.527   2.597  0.6659  0.0105 -0.2055
   97MOL    C8417556   4.639   4.393   2.532  0.4703 -0.1956  0.4248
   97MOL    C8517557   4.730   4.443   2.421  0.2485  0.2374  0.9467
   97MOL    O8617558   4.705   4.442   2.303 -0.3441  0.3380 -0.4399
   97MOL    O8717559   4.846   4.496   2.480  0.0385  0.7000 -0.1685
   97MOL    H8817560   4.636   4.619   2.571 -0.6889  0.6415 -0.7075
   97MOL    H8917561   4.483   4.541   2.558  0.6138  1.8012  0.5153
   97MOL    H9017562   4.704   4.342   2.602  0.3079 -1.4047 -0.2859
   97MOL    H9117563   4.851   4.480   2.573  1.0128 -1.2368 -0.5241
   97MOL    C9217564   4.525   4.295   2.497  0.6737  0.8302 -0.1948
   97MOL    C9317565   4.558   4.144   2.502  0.0622  0.0036  0.2497
   97MOL    C9417566   4.570   4.101   2.649 -0.2167 -0.2574 -0.5942
   97MOL    O9517567   4.565   4.177   2.742  0.4216 -0.7522 -0.2894
   97MOL    O9617568   4.598   3.965   2.659  0.1421  0.1616  0.2214
   97MOL    H9717569   4.496   4.316   2.394 -2.2729  0.0480  0.4317
   97MOL    H9817570   4.435   4.308   2.557  0.8010 -2.4940  0.8448
   97MOL    H9917571   4.469   4.094   2.462 -1.5036  2.0500  1.1070
   97MOL   H10017572   4.609   3.968   2.753  2.9027 -2.5428  0.0825
   97MOL   C10117573   4.678   4.100   2.400 -0.1429 -0.3059 -0.2366
   97MOL   C10217574   4.638   3.996   2.299  0.4833 -0.6743  0.1900
   97MOL   C10317575   4.585   3.866   2.369 -0.1815  0.1842  0.6732
   97MOL   O10417576   4.465   3.837   2.373  0.3815 -0.7945  0.2003
   97MOL   O10517577   4.681   3.787   2.419 -0.9284  0.5671 -0.7882
   97MOL   H10617578   4.762   4.066   2.460 -0.8050  1.1064  1.5281
   97MOL   H10717579   4.712   4.183   2.338 -0.6142 -0.2957 -0.4888
   97MOL   H10817580   4.554   4.042   2.248 -0.6141 -0.4542  2.1485
   97MOL   H10917581   4.630   3.711   2.442 -1.7113  0.8304 -1.6168
   97MOL   C11017582   4.750   3.961   2.201 -1.0652  0.2144 -0.0102
   97MOL   C11117583   4.790   4.077   2.111 -0.6435 -0.5292  0.1984
   97MOL   C11217584   4.671   4.139   2.032  0.1543 -0.7297  0.0198
   97MOL   O11317585   4.611   4.075   1.944  0.3966 -0.0366 -0.1068
   97MOL   O11417586   4.629   4.255   2.078  0.3674 -0.3031  0.2694
   97MOL   H11517587   4.710   3.892   2.127 -2.6231  1.1344 -0.0527
   97MOL   H11617588   4.831   3.905   2.248 -1.0974  2.6588  3.1130
   97MOL   H11717589   4.844   4.149   2.172  0.5049 -1.5860  0.4337
   97MOL   H11817590   4.562   4.296   2.026  0.5818 -1.3262 -0.8428
   97MOL   C11917591   4.894   4.018   2.007 -0.3813 -0.9442 -0.0691
   97MOL   C12017592   4.967   4.129   1.934  0.3352  0.1386  0.1295
   97MOL   C12117593   5.037   4.073   1.806 -0.5161  0.6698  0.4499
   97MOL   O12217594   4.994   4.096   1.696  0.6567  0.1880 -0.2229
   97MOL   O12317595   5.140   3.986   1.831 -0.3281 -0.4694 -0.3672
   97MOL   H12417596   4.842   3.951   1.940  0.5568 -1.0033 -0.7451
   97MOL   H12517597   4.971   3.952   2.047  1.3079 -0.3866 -2.3583
   97MOL   H12617598   4.899   4.204   1.894  0.3256 -0.0654 -0.2368
   97MOL   H12717599   5.178   3.954   1.751 -0.0794 -0.7557 -0.1361
   97MOL   C12817600   5.073   4.212   2.022  0.2875 -0.1149 -0.7817
   97MOL   C12917601   5.089   4.365   1.987  0.2649  0.3379 -0.4053
   97MOL   C13017602   4.953   4.435   2.029  0.1435 -0.8516  0.4164
   97MOL   O13117603   4.892   4.506   1.949  0.0373 -0.3960 -0.2740
   97MOL   O13217604   4.909   4.411   2.154  0.5440 -0.4036  0.0324
   97MOL   H13317605   5.175   4.175   2.011 -0.1942 -1.5225 -0.5431
   97MOL   H13417606   5.064   4.202   2.130  1.8033 -0.4196 -0.6703
   97MOL   H13517607   5.144   4.418   2.065 -1.6964  1.9037 -0.0389
   97MOL   H13617608   4.826   4.455   2.164  0.2410 -1.3334  1.7397
   97MOL   C13717609   5.154   4.406   1.853 -0.1520  0.4748  0.7886
   97MOL   C13817610   5.302   4.428   1.866 -0.2751  0.8134  0.6486
   97MOL   C13917611   5.334   4.556   1.942 -0.3366 -0.5503 -0.4655
   97MOL   O14017612   5.358   4.563   2.063 -0.1193 -0.0150  0.6090
   97MOL   O14117613   5.340   4.657   1.849  0.2522  0.0539  0.0928
   97MOL   H14217614   5.108   4.499   1.819  0.4751  0.2416 -0.7824
   97MOL   H14317615   5.132   4.332   1.776  1.2534  1.9789 -1.1304
   97MOL   H14417616   5.342   4.355   1.936 -0.7305  0.8430  0.9359
   97MOL   H14517617   5.344   4.737   1.899  0.2998  1.5339 -2.1714
   97MOL   C14617618   5.392   4.398   1.739  0.2855 -0.3053  0.3721
   97MOL   C14717619   5.390   4.255   1.695 -0.0857  0.3704 -0.9004
   97MOL   C14817620   5.460   4.152   1.788  1.0596 -0.4200 -0.3407
   97MOL   O14917621   5.549   4.186   1.864  0.4188  0.2336 -0.3676
   97MOL   O15017622   5.412   4.028   1.770  0.1035 -0.1149 -0.3376
   97MOL   H15117623   5.499   4.399   1.759  0.6612  0.7252 -1.5074
   97MOL   H15217624   5.358   4.473   1.667  0.6141 -0.5970 -0.0828
   97MOL   H15317625   5.286   4.224   1.685  0.2704 -1.7563  1.5769
   97MOL   H15417626   5.470   3.964   1.810 -0.6812  0.2005  1.3338
   97MOL   C15517627   5.442   4.228   1.547  0.1040  0.1029 -0.1580
   97MOL   C15617628   5.338   4.268   1.437  0.2749  0.0779 -0.1134
   97MOL   C15717629   5.221   4.169   1.432  0.5004  0.0298  0.9289
   97MOL   O15817630   5.104   4.200   1.420  0.2318 -0.4715  0.2045
   97MOL   O15917631   5.259   4.045   1.456 -0.7887 -0.0791 -0.6490
   97MOL   H16017632   5.486   4.129   1.538 -0.5809 -0.0794 -1.5240
   97MOL   H16117633   5.532   4.287   1.530 -0.3975  0.3477 -2.0469
   97MOL   H16217634   5.301   4.366   1.468  0.8256  0.2256  0.0850
   97MOL   H16317635   5.176   4.001   1.441  0.8244 -3.0698 -1.3686
   97MOL   C16417636   5.398   4.276   1.292  0.1660  0.8244 -0.2504
   97MOL   C16517637   5.444   4.410   1.237  0.1864 -0.3799 -1.0202
   97MOL   C16617638   5.322   4.500   1.245 -0.0502  0.1888  0.3078
   97MOL   O16717639   5.212   4.472   1.203  0.6060  0.2614  0.2561
   97MOL   O16817640   5.356   4.619   1.298 -0.0245  0.0028 -0.1185
   97MOL   H16917641   5.334   4.228   1.217 -0.1439 -1.2136  1.2782
   97MOL   H17017642   5.480   4.204   1.301  0.0153  0.7775  0.7644
   97MOL   H17117643   5.526   4.455   1.293 -2.1146  0.4417  1.8175
   97MOL   H17217644   5.450   4.629   1.308 -0.4093  1.1325  2.7645
   97MOL   C17317645   5.496   4.385   1.089  0.5644 -0.3757  0.7495
   97MOL   C17417646   5.521   4.505   0.998  0.6213 -0.1861 -0.7603
   97MOL   C17517647   5.628   4.596   1.041 -0.0567  0.1757 -0.0512
   97MOL   O17617648   5.729   4.555   1.098  0.2857 -0.4475 -0.1223
   97MOL   O17717649   5.620   4.719   0.996 -0.4120 -0.9116 -0.0761
   97MOL   H17817650   5.425   4.318   1.038 -0.3009  2.5896 -2.1219
   97MOL   H17917651   5.583   4.319   1.089 -0.2903 -1.5281  0.3163
   97MOL   H18017652   5.550   4.464   0.901  0.1482 -0.7987 -0.6469
   97MOL   H18117653   5.693   4.778   1.013 -1.6872  0.2356  1.5761
   97MOL   H18217654   5.425   4.551   0.975  0.2606 -0.0597  0.9883
   98MOL     C117655   6.354   4.106   6.547 -0.7719  0.0392 -0.0200
   98MOL     C217656   6.335   4.126   6.702  0.0428 -0.4443  0.4522
   98MOL     C317657   6.198   4.069   6.731 -0.2403 -0.7205  0.2615
   98MOL     O417658   6.107   4.086   6.649  0.4305 -0.3581  0.0601
   98MOL     O517659   6.181   4.015   6.854  0.0065  0.4300  0.2799
   98MOL     H617660   6.455   4.125   6.511 -1.0543 -1.4090 -1.6450
   98MOL     H717661   6.325   4.003   6.525 -0.2844 -0.6053  2.2083
   98MOL     H817662   6.418   4.072   6.748  1.6653  1.1920 -0.4447
   98MOL     H917663   6.087   4.005   6.859  0.1224 -1.6034 -0.9519
   98MOL    H1017664   6.293   4.168   6.482  0.4722  1.5241  0.2100
   98MOL    C1117665   6.337   4.268   6.759  0.3407 -0.1333  0.0088
   98MOL    C1217666   6.441   4.359   6.693 -0.5459 -0.3816 -0.1850
   98MOL    C1317667   6.582   4.307   6.723  0.2451  0.2290  0.2854
   98MOL    O1417668   6.625   4.288   6.836  0.0429 -0.4384 -0.1418
   98MOL    O1517669   6.652   4.297   6.614  0.5007 -0.6948  0.3827
   98MOL    H1617670   6.347   4.257   6.867  1.5051  0.4051 -0.0370
   98MOL    H1717671   6.243   4.319   6.741  1.2415  1.0587 -1.4566
   98MOL    H1817672   6.413   4.362   6.588  0.8129  0.0373 -0.5507
   98MOL    H1917673   6.745   4.304   6.630  0.9852  0.1292 -2.4534
   98MOL    C2017674   6.438   4.505   6.748  0.1514 -0.0052 -0.3442
   98MOL    C2117675   6.536   4.611   6.685  0.0082  0.1913  0.1014
   98MOL    C2217676   6.627   4.663   6.797  0.2906 -0.5796 -1.0659
   98MOL    O2317677   6.588   4.681   6.913 -0.2520  0.1305  0.1970
   98MOL    O2417678   6.753   4.688   6.748  0.1775 -0.0832 -0.7229
   98MOL    H2517679   6.453   4.494   6.855 -0.9919  3.1668  0.2074
   98MOL    H2617680   6.338   4.547   6.740  0.1262  0.3083  1.4172
   98MOL    H2717681   6.599   4.557   6.614  0.8539  0.5275  0.5914
   98MOL    H2817682   6.800   4.716   6.825  0.4617  0.4195 -1.0754
   98MOL    C2917683   6.462   4.726   6.600  0.3802 -0.6347 -0.0141
   98MOL    C3017684   6.553   4.834   6.536 -0.0894 -0.2126 -0.2649
   98MOL    C3117685   6.468   4.956   6.495  0.0588  1.2633 -0.0859
   98MOL    O3217686   6.489   5.065   6.537  0.2393 -0.3445  0.1689
   98MOL    O3317687   6.360   4.923   6.421  0.3065  0.0643 -0.1045
   98MOL    H3417688   6.403   4.776   6.677 -0.2288 -1.7932  0.2768
   98MOL    H3517689   6.393   4.684   6.526 -1.1761 -1.8505  2.0708
   98MOL    H3617690   6.614   4.879   6.615 -1.5183 -0.1778  0.8225
   98MOL    H3717691   6.303   4.995   6.397 -0.9044 -1.8799 -3.2902
   98MOL    C3817692   6.638   4.783   6.421 -0.1478 -0.3656 -0.1158
   98MOL    C3917693   6.755   4.874   6.378 -0.2170 -0.1260 -0.0662
   98MOL    C4017694   6.802   4.827   6.240 -0.0266  0.0040  0.5453
   98MOL    O4117695   6.795   4.898   6.135  0.3754 -0.2005  0.1224
   98MOL    O4217696   6.839   4.699   6.245 -0.2334  0.8191  0.2774
   98MOL    H4317697   6.572   4.780   6.334  0.9279  0.7109 -0.9921
   98MOL    H4417698   6.676   4.686   6.453  0.8031  0.1808  0.4283
   98MOL    H4517699   6.706   4.965   6.344 -2.4253 -1.8069 -1.5831
   98MOL    H4617700   6.867   4.678   6.157 -0.5477 -0.1261  0.3980
   98MOL    C4717701   6.862   4.903   6.485  0.4914  0.4592 -0.0119
   98MOL    C4817702   6.976   4.997   6.446  0.0624  0.3010 -0.3434
   98MOL    C4917703   7.086   4.985   6.546 -0.2965  0.0336 -0.7013
   98MOL    O5017704   7.072   5.017   6.662 -0.0280  0.5056  0.1966
   98MOL    O5117705   7.203   4.949   6.487  0.0663 -0.1671  0.8834
   98MOL    H5217706   6.909   4.806   6.501  1.7998  1.2742  1.2344
   98MOL    H5317707   6.816   4.928   6.581  0.0740 -0.8931  0.1537
   98MOL    H5417708   7.006   4.964   6.346 -1.0061 -0.2435 -0.4876
   98MOL    H5517709   7.277   4.953   6.547 -0.8979 -0.3217  2.1081
   98MOL    C5617710   6.927   5.139   6.415  0.5205  0.8211 -0.2983
   98MOL    C5717711   7.023   5.243   6.346 -0.2337  0.1238 -0.1080
   98MOL    C5817712   7.078   5.192   6.206 -0.5904  1.0773 -0.4827
   98MOL    O5917713   7.185   5.134   6.202 -0.6031  0.1449  0.6022
   98MOL    O6017714   6.991   5.190   6.105  0.0365 -0.0334  0.8297
   98MOL    H6117715   6.882   5.176   6.507 -1.6736 -1.7483 -0.2815
   98MOL    H6217716   6.845   5.139   6.343  1.8835 -2.4484 -1.9502
   98MOL    H6317717   6.952   5.323   6.325 -2.0520 -0.6718  2.7830
   98MOL    H6417718   7.023   5.144   6.028 -1.0697  1.9399 -0.8741
   98MOL    C6517719   7.128   5.291   6.443 -0.8089  0.1184 -0.0782
   98MOL    C6617720   7.081   5.362   6.579  0.1764 -0.0685 -0.1784
   98MOL    C6717721   6.991   5.481   6.557  0.3469 -0.3102 -0.5697
   98MOL    O6817722   6.870   5.487   6.567  0.1609 -0.4474 -0.2301
   98MOL    O6917723   7.062   5.578   6.493 -0.1235 -0.5759  0.1335
   98MOL    H7017724   7.185   5.366   6.387 -0.1031  1.7210  2.7007
   98MOL    H7117725   7.194   5.206   6.457  0.9484  1.2603 -1.1494
   98MOL    H7217726   7.006   5.297   6.625  0.2113 -0.8536 -1.2235
   98MOL    H7317727   7.155   5.565   6.502  0.3407  0.4740 -2.7182
   98MOL    C7417728   7.199   5.395   6.683 -0.3418  0.7860 -0.1990
   98MOL    C7517729   7.165   5.491   6.804 -0.4481 -0.5088 -0.0190
   98MOL    C7617730   7.303   5.535   6.859 -0.0863  0.2480 -0.4337
   98MOL    O7717731   7.334   5.645   6.900  0.1117  0.3470 -0.3942
   98MOL    O7817732   7.385   5.429   6.871 -0.3949  0.4422 -0.1599
   98MOL    H7917733   7.289   5.426   6.630  1.2222 -0.4668  1.6136
   98MOL    H8017734   7.223   5.299   6.730  0.9084  0.8539 -0.6890
   98MOL    H8117735   7.119   5.581   6.764 -0.4863 -0.2560  0.5925
   98MOL    H8217736   7.449   5.444   6.939 -1.8472  2.0078  0.9049
   98MOL    C8317737   7.060   5.435   6.906  0.0236  0.3726 -0.2031
   98MOL    C8417738   6.955   5.544   6.963  0.1626 -0.6387 -0.1147
   98MOL    C8517739   7.021   5.668   7.008 -0.3027  0.1696  0.0453
   98MOL    O8617740   7.068   5.678   7.122  0.0082 -0.2406 -0.6806
   98MOL    O8717741   6.995   5.774   6.924 -0.5206  0.3152  0.1993
   98MOL    H8817742   7.103   5.379   6.989 -0.1290 -2.4680 -1.9730
   98MOL    H8917743   7.017   5.351   6.850  1.6506  0.7880 -2.0997
   98MOL    H9017744   6.902   5.572   6.872  1.1443 -0.9180 -0.7880
   98MOL    H9117745   7.044   5.850   6.950 -0.9649 -0.5974  3.8935
   98MOL    C9217746   6.847   5.499   7.058 -0.5216  0.0322 -0.3021
   98MOL    C9317747   6.757   5.390   6.999 -0.1996 -0.1271  0.2322
   98MOL    C9417748   6.684   5.445   6.873  0.0767 -1.2850  1.0106
   98MOL    O9517749   6.618   5.552   6.873  0.3590  0.0359 -0.4878
   98MOL    O9617750   6.679   5.356   6.770  0.1324  0.2827 -0.4519
   98MOL    H9717751   6.787   5.580   7.099 -0.7465 -0.3301  0.0841
   98MOL    H9817752   6.898   5.462   7.147 -0.5065  1.4787  0.3044
   98MOL    H9917753   6.813   5.300   6.972  1.1792  0.2281  1.8333
   98MOL   H10017754   6.631   5.398   6.700  1.3183  0.5985 -1.0913
   98MOL   C10117755   6.654   5.333   7.095 -0.5010  0.3398  0.0147
   98MOL   C10217756   6.635   5.177   7.094  0.4329  0.1434 -0.4425
   98MOL   C10317757   6.564   5.122   6.980 -0.6771 -0.5052  0.8531
   98MOL   O10417758   6.462   5.181   6.940 -0.0632  0.0190 -0.1643
   98MOL   O10517759   6.627   5.018   6.914 -0.7563  0.2017 -0.1659
   98MOL   H10617760   6.569   5.401   7.101  1.1535  2.4201  0.4807
   98MOL   H10717761   6.701   5.346   7.193 -1.5965 -2.2330  0.9127
   98MOL   H10817762   6.737   5.143   7.076  0.6304 -0.0857  1.0380
   98MOL   H10917763   6.569   4.982   6.849 -0.7931  0.5131 -0.3045
   98MOL   C11017764   6.583   5.117   7.232  0.2752 -0.5877 -0.3085
   98MOL   C11117765   6.446   5.174   7.282  0.3603  0.1700 -0.0017
   98MOL   C11217766   6.466   5.294   7.386  0.6004 -0.1773  0.0957
   98MOL   O11317767   6.575   5.349   7.406 -0.0241  0.7505  0.4873
   98MOL   O11417768   6.353   5.340   7.443 -0.0298 -0.3255 -0.4580
   98MOL   H11517769   6.659   5.137   7.308  0.8691  1.6432 -1.4530
   98MOL   H11617770   6.581   5.009   7.218 -1.6825 -0.6103 -0.0197
   98MOL   H11717771   6.397   5.195   7.187  0.8872 -0.1988 -0.3554
   98MOL   H11817772   6.356   5.415   7.500 -1.3156  0.2297 -1.1067
   98MOL   C11917773   6.346   5.071   7.343  0.0374 -0.9610  0.3760
   98MOL   C12017774   6.278   4.963   7.256 -0.9281 -0.3361 -0.2481
   98MOL   C12117775   6.143   5.015   7.205 -0.8475  0.3513 -0.4244
   98MOL   O12217776   6.037   5.024   7.268  0.1172 -0.4599  0.0988
   98MOL   O12317777   6.150   5.065   7.076  0.2902  0.6060  0.0993
   98MOL   H12417778   6.266   5.109   7.407 -0.9295  1.8731 -2.3834
   98MOL   H12517779   6.407   5.021   7.418  1.3391 -0.9302 -0.6630
   98MOL   H12617780   6.335   4.950   7.164 -0.9978  2.1564 -0.6827
   98MOL   H12717781   6.074   5.094   7.029  0.6243  0.2048 -0.6915
   98MOL   C12817782   6.265   4.828   7.336  0.4768  0.2238  0.5554
   98MOL   C12917783   6.387   4.736   7.362 -0.3031 -0.6992 -0.3578
   98MOL   C13017784   6.430   4.663   7.232  0.5739 -0.2210 -0.8228
   98MOL   O13117785   6.384   4.552   7.200 -0.3225 -0.1206  0.0045
   98MOL   O13217786   6.505   4.737   7.151 -0.0400 -0.3401  0.2686
   98MOL   H13317787   6.190   4.761   7.295  0.7599 -0.6668  1.4878
   98MOL   H13417788   6.211   4.852   7.427 -1.8817  0.9731 -1.0002
   98MOL   H13517789   6.469   4.797   7.402 -1.9999  2.3871 -1.3881
   98MOL   H13617790   6.536   4.695   7.072 -0.0648  0.6314 -0.2740
   98MOL   C13717791   6.341   4.642   7.480  0.8663  0.0269 -0.7942
   98MOL   C13817792   6.437   4.544   7.547 -1.0100 -0.5498  0.7083
   98MOL   C13917793   6.353   4.433   7.613  0.0673 -0.4048 -0.1218
   98MOL   O14017794   6.371   4.315   7.592 -0.3500  0.0286  0.4029
   98MOL   O14117795   6.273   4.482   7.716  0.2980 -0.0777 -0.0047
   98MOL   H14217796   6.256   4.595   7.432 -0.4995  0.4517  1.1906
   98MOL   H14317797   6.300   4.707   7.557  1.2036 -0.6642 -0.0253
   98MOL   H14417798   6.490   4.483   7.474 -1.3420 -0.3048  0.2604
   98MOL   H14517799   6.232   4.416   7.769 -0.6416  0.8436  0.4323
   98MOL   C14617800   6.541   4.609   7.648 -0.0356 -0.2203  0.1302
   98MOL   C14717801   6.668   4.660   7.582 -0.6098  0.9606  0.6983
   98MOL   C14817802   6.747   4.534   7.526 -0.6722 -0.9366 -0.2464
   98MOL   O14917803   6.816   4.457   7.596 -0.1036 -0.0459 -0.0614
   98MOL   O15017804   6.720   4.520   7.396 -0.2186  0.0921 -0.0018
   98MOL   H15117805   6.564   4.540   7.729 -0.2154 -0.3124  0.1024
   98MOL   H15217806   6.491   4.691   7.699  2.1519  0.5814  1.0564
   98MOL   H15317807   6.632   4.695   7.486 -0.2469 -0.2096  0.1278
   98MOL   H15417808   6.765   4.446   7.358  0.9827  0.2918  0.9623
   98MOL   C15517809   6.764   4.750   7.672  0.9433  0.8804  0.2338
   98MOL   C15617810   6.871   4.829   7.600  0.5085  0.3252  0.0061
   98MOL   C15717811   6.964   4.906   7.705 -0.0183 -0.4468 -0.8321
   98MOL   O15817812   6.937   4.916   7.825 -0.3728  0.5971 -0.3062
   98MOL   O15917813   7.080   4.956   7.648 -0.3092 -0.5357  0.0029
   98MOL   H16017814   6.820   4.674   7.726  2.2937  1.4287 -0.3949
   98MOL   H16117815   6.706   4.815   7.739 -0.1871 -0.1363  0.2710
   98MOL   H16217816   6.938   4.751   7.565 -0.8093 -1.2547  0.9344
   98MOL   H16317817   7.132   5.000   7.713  0.8031  1.7072 -2.3295
   98MOL   C16417818   6.825   4.926   7.490 -0.2119 -0.6005  0.3526
   98MOL   C16517819   6.932   4.954   7.385 -0.4979 -0.2210  0.5926
   98MOL   C16617820   6.958   5.106   7.386 -0.0869  0.0224 -0.2872
   98MOL   O16717821   6.938   5.182   7.478 -0.1815  0.4762  0.7085
   98MOL   O16817822   7.004   5.144   7.267  0.2090  0.4054 -0.2974
   98MOL   H16917823   6.776   5.010   7.539  0.6342  1.3328 -2.0565
   98MOL   H17017824   6.740   4.881   7.439  2.4474 -0.8930 -4.1157
   98MOL   H17117825   7.026   4.905   7.409 -0.8099 -1.2258 -0.1978
   98MOL   H17217826   7.028   5.235   7.267  1.4238  0.0934 -0.2291
   98MOL   C17317827   6.901   4.910   7.242 -0.3429 -0.1171  0.4862
   98MOL   C17417828   7.020   4.886   7.143  0.5943 -0.6033  0.0248
   98MOL   C17517829   6.988   4.918   6.998  0.2945 -0.2878 -0.2369
   98MOL   O17617830   6.904   4.858   6.927  0.0384 -0.8520  0.0147
   98MOL   O17717831   7.075   5.008   6.941  0.1349 -0.3234 -0.2948
   98MOL   H17817832   6.820   4.968   7.198  1.9190  0.7934 -2.6461
   98MOL   H17917833   6.870   4.806   7.252  0.4478 -0.4899 -0.9109
   98MOL   H18017834   7.107   4.945   7.168 -0.4725 -0.1506  2.8669
   98MOL   H18117835   7.060   5.028   6.850 -2.6653 -1.0762 -0.0493
   98MOL   H18217836   7.070   4.792   7.166 -2.1362 -2.3162 -0.7085
   99MOL     C117837   3.150   0.201   4.761  0.3108  0.6135  0.2552
   99MOL     C217838   3.291   0.220   4.713 -0.1996  0.0642  0.4157
   99MOL     C317839   3.380   0.243   4.838 -1.0148 -0.2241 -0.1676
   99MOL     O417840   3.480   0.178   4.867  0.5563  0.4503 -0.3041
   99MOL     O517841   3.332   0.353   4.910  0.0849 -0.3457 -0.2231
   99MOL     H617842   3.116   0.289   4.817 -0.4068  0.2207  0.4460
   99MOL     H717843   3.086   0.175   4.677 -0.5821 -2.9112  1.8990
   99MOL     H817844   3.329   0.130   4.666  1.0745  0.7193  0.1840
   99MOL     H917845   3.367   0.370   4.996  2.1902 -0.3958 -1.0420
   99MOL    H1017846   3.149   0.111   4.823  0.2785  0.6424  0.2969
   99MOL    C1117847   3.311   0.336   4.607 -0.1155 -0.1501 -0.1280
   99MOL    C1217848   3.455   0.379   4.583 -0.6655  0.7525  0.2857
   99MOL    C1317849   3.459   0.499   4.494 -0.0052 -0.4403  0.4053
   99MOL    O1417850   3.516   0.604   4.526 -0.0177 -0.2071  0.0231
   99MOL    O1517851   3.394   0.483   4.380 -0.5925  0.7824  0.0938
   99MOL    H1617852   3.265   0.423   4.653 -1.3458 -0.6759 -0.3357
   99MOL    H1717853   3.262   0.312   4.512 -0.8063  0.2005  0.1345
   99MOL    H1817854   3.508   0.407   4.675 -0.3549  0.3800  0.2212
   99MOL    H1917855   3.387   0.563   4.331 -2.5084  0.8205  0.3883
   99MOL    C2017856   3.546   0.272   4.518  1.4869 -0.4817 -0.2065
   99MOL    C2117857   3.704   0.277   4.526 -0.4358 -0.8427  0.9827
   99MOL    C2217858   3.774   0.413   4.500 -0.4958 -0.1679 -0.2749
   99MOL    O2317859   3.799   0.468   4.392 -0.1763  0.0360  0.2460
   99MOL    O2417860   3.777   0.476   4.620 -0.0276 -0.2413 -0.3324
   99MOL    H2517861   3.523   0.268   4.412  0.9650  1.1655 -0.1668
   99MOL    H2617862   3.517   0.176   4.561  2.4142 -0.0678  1.4012
   99MOL    H2717863   3.732   0.257   4.629  1.5778  1.5892  0.9768
   99MOL    H2817864   3.753   0.430   4.699 -0.8245  0.7002 -0.0281
   99MOL    C2917865   3.783   0.166   4.440  0.4463  0.2772 -0.7423
   99MOL    C3017866   3.789   0.021   4.485 -0.6220  0.2013 -0.4365
   99MOL    C3117867   3.663   7.803   4.449 -0.4039  0.3963 -0.4701
   99MOL    O3217868   3.576   7.781   4.536  0.3712 -0.1001 -0.5364
   99MOL    O3317869   3.650   7.777   4.317  0.1504  0.0252 -0.2909
   99MOL    H3417870   3.885   0.205   4.438  1.6140 -2.3251  2.7243
   99MOL    H3517871   3.766   0.167   4.333 -1.4301 -2.0558 -0.5002
   99MOL    H3617872   3.859   7.821   4.419  1.1843  1.7478  0.2029
   99MOL    H3717873   3.562   7.772   4.285  0.0318 -0.4611  0.0969
   99MOL    C3817874   3.838   0.014   4.636  0.2757 -0.2816  0.4625
   99MOL    C3917875   3.933   7.746   4.677 -0.1354  0.2972 -0.1540
   99MOL    C4017876   4.072   7.771   4.623 -0.6020  0.2901 -0.6450
   99MOL    O4117877   4.121   7.707   4.528 -0.4517 -0.7584 -0.5459
   99MOL    O4217878   4.145   0.018   4.684 -0.0178 -0.2775  1.0227
   99MOL    H4317879   3.749   0.015   4.699 -1.1338  1.7367 -1.4574
   99MOL    H4417880   3.887   0.109   4.657 -0.7724  0.3502  0.1030
   99MOL    H4517881   3.947   7.755   4.785 -0.8930  2.8161 -0.2315
   99MOL    H4617882   4.213   0.043   4.623  0.7832 -1.6163  1.3381
   99MOL    C4717883   3.876   7.608   4.634 -0.1997 -0.5071 -0.1938
   99MOL    C4817884   3.955   7.484   4.681  0.7861 -0.8099 -0.2942
   99MOL    C4917885   3.925   7.364   4.596 -0.0576  0.1268  0.0415
   99MOL    O5017886   4.007   7.292   4.543 -0.5184 -0.5430 -0.1115
   99MOL    O5117887   3.792   7.361   4.559 -0.2547 -0.2505 -0.2137
   99MOL    H5217888   3.878   7.615   4.526 -0.8392  0.9746 -0.1169
   99MOL    H5317889   3.773   7.602   4.669 -1.2674  0.2109 -3.1170
   99MOL    H5417890   4.061   7.507   4.666  0.4520  0.3478 -0.8853
   99MOL    H5517891   3.781   7.313   4.479 -2.5036  3.1711 -2.0815
   99MOL    C5617892   3.930   7.446   4.833  0.2650 -0.7731 -0.2462
   99MOL    C5717893   3.781   7.435   4.876 -0.0754 -0.4223  0.5799
   99MOL    C5817894   3.739   7.569   4.939  0.1167 -1.0752  0.0722
   99MOL    O5917895   3.676   7.658   4.882  0.8080  0.4468 -0.6335
   99MOL    O6017896   3.770   7.575   5.072  0.2248 -0.3472 -0.0077
   99MOL    H6117897   3.987   7.509   4.901 -0.3163  1.6659 -1.9525
   99MOL    H6217898   3.968   7.347   4.860 -0.2569 -0.0088  3.4349
   99MOL    H6317899   3.712   7.418   4.793 -0.0153 -1.4652  0.7431
   99MOL    H6417900   3.726   7.655   5.099 -0.6079 -0.3896 -1.2028
   99MOL    C6517901   3.771   7.307   4.966  0.3725 -0.0199 -0.0738
   99MOL    C6617902   3.620   7.272   4.999  0.1996 -0.3848  0.6226
   99MOL    C6717903   3.604   7.297   5.149 -0.3596 -0.8651 -0.4954
   99MOL    O6817904   3.650   7.216   5.228 -0.4710  0.5468 -0.4779
   99MOL    O6917905   3.544   7.411   5.177 -0.1668 -0.4224  0.4924
   99MOL    H7017906   3.827   7.321   5.059  0.1428 -0.5361  0.1385
   99MOL    H7117907   3.819   7.225   4.913  0.4525  0.6900 -1.1325
   99MOL    H7217908   3.564   7.344   4.939  1.3467  0.4562  0.5527
   99MOL    H7317909   3.535   7.406   5.271  2.2110 -0.2931  0.7412
   99MOL    C7417910   3.573   7.127   4.957  0.1206  0.3833  0.1161
   99MOL    C7517911   3.417   7.112   4.944 -0.0428 -0.5475  0.5717
   99MOL    C7617912   3.347   7.050   5.066  0.6177  0.2288 -0.1669
   99MOL    O7717913   3.254   6.971   5.061 -0.0318 -0.2735 -0.1236
   99MOL    O7817914   3.391   7.087   5.191 -0.0730 -0.3582  0.3240
   99MOL    H7917915   3.622   7.063   5.030 -1.4244  0.3997  1.1832
   99MOL    H8017916   3.629   7.114   4.864 -1.3756 -2.3835 -0.4422
   99MOL    H8117917   3.379   7.214   4.948  0.5421 -0.3613  1.5627
   99MOL    H8217918   3.351   7.024   5.248  2.2755 -2.9466 -0.7760
   99MOL    C8317919   3.377   7.033   4.819  0.1232 -0.0587 -0.2410
   99MOL    C8417920   3.459   7.041   4.685 -0.4072 -0.0633  0.3294
   99MOL    C8517921   3.463   7.181   4.624  0.0384  0.6906 -0.1228
   99MOL    O8617922   3.474   7.207   4.506  0.5987  0.3219 -0.7615
   99MOL    O8717923   3.460   7.280   4.720 -0.2130 -0.4264  0.8361
   99MOL    H8817924   3.275   7.059   4.792  0.8522  1.0872 -1.9986
   99MOL    H8917925   3.373   6.928   4.847  3.1408 -0.7121 -2.0498
   99MOL    H9017926   3.562   7.011   4.706 -0.5494 -0.9262 -0.1823
   99MOL    H9117927   3.471   7.361   4.672 -0.4504  0.0761  1.6159
   99MOL    C9217928   3.393   6.945   4.582  0.1092 -0.3164 -0.8672
   99MOL    C9317929   3.493   6.887   4.489  0.4836  0.1324 -0.0722
   99MOL    C9417930   3.439   6.892   4.348 -0.2727 -1.3515 -0.1846
   99MOL    O9517931   3.397   6.792   4.285  0.6337  0.2836 -0.2498
   99MOL    O9617932   3.423   7.022   4.313 -0.4481 -0.2846 -0.1663
   99MOL    H9717933   3.306   6.991   4.536 -0.5507 -0.4134  0.2528
   99MOL    H9817934   3.340   6.863   4.632  0.8553 -1.4500 -1.9282
   99MOL    H9917935   3.578   6.954   4.486  2.2272 -1.9353  1.6316
   99MOL   H10017936   3.441   7.074   4.391 -1.1496 -0.1177 -0.1071
   99MOL   C10117937   3.548   6.746   4.532  0.1436 -0.0768  0.1346
   99MOL   C10217938   3.628   6.730   4.667  0.0024  0.7063 -0.5472
   99MOL   C10317939   3.777   6.778   4.656  0.1017  0.0387  0.0229
   99MOL   O10417940   3.876   6.717   4.696  0.4370 -0.1219 -0.4862
   99MOL   O10517941   3.787   6.908   4.609  0.2369  0.2042 -0.3543
   99MOL   H10617942   3.613   6.717   4.449 -0.3166  0.9015 -0.5800
   99MOL   H10717943   3.466   6.674   4.530  0.8923 -0.9359 -0.0766
   99MOL   H10817944   3.578   6.792   4.742  0.5813  0.9601 -0.3655
   99MOL   H10917945   3.875   6.942   4.604  0.1883  0.3443 -0.2609
   99MOL   C11017946   3.615   6.584   4.721  0.1140  0.1159 -0.4645
   99MOL   C11117947   3.486   6.568   4.810  0.3546 -0.0823  0.5805
   99MOL   C11217948   3.518   6.574   4.960  0.8273 -0.6024 -0.5093
   99MOL   O11317949   3.469   6.655   5.035 -0.0757  0.7428 -0.7649
   99MOL   O11417950   3.609   6.485   4.992 -0.1061 -0.3178 -0.1177
   99MOL   H11517951   3.700   6.556   4.783  1.5485 -2.4533 -3.4508
   99MOL   H11617952   3.623   6.519   4.633  1.3133 -0.3513 -0.0115
   99MOL   H11717953   3.410   6.644   4.790  0.8229  0.6251  1.4314
   99MOL   H11817954   3.636   6.478   5.082 -0.9615  2.3385  0.3766
   99MOL   C11917955   3.411   6.440   4.776 -0.5005 -0.1269 -0.1713
   99MOL   C12017956   3.263   6.425   4.828  0.6338  0.4715 -0.2034
   99MOL   C12117957   3.215   6.277   4.783  0.4471 -0.4185 -0.4025
   99MOL   O12217958   3.286   6.195   4.723  0.5088  0.0093 -0.3250
   99MOL   O12317959   3.094   6.243   4.841 -0.1676 -0.2081  0.3521
   99MOL   H12417960   3.477   6.358   4.805 -0.5313 -0.2348 -0.4059
   99MOL   H12517961   3.413   6.449   4.667  0.3761  0.0607 -0.1454
   99MOL   H12617962   3.268   6.422   4.937  1.0569  2.0097 -0.1707
   99MOL   H12717963   3.064   6.155   4.825 -0.5333 -0.4028  2.0315
   99MOL   C12817964   3.166   6.535   4.776  0.1145 -0.6720 -0.2753
   99MOL   C12917965   3.146   6.646   4.889 -0.2574 -0.4027  0.2616
   99MOL   C13017966   3.064   6.607   5.006 -0.5309  0.0339 -0.0742
   99MOL   O13117967   3.022   6.493   5.014  0.2199  0.5337 -0.2379
   99MOL   O13217968   3.052   6.710   5.086  0.1976 -0.3207 -0.6245
   99MOL   H13317969   3.074   6.494   4.735 -3.0406  4.1132  1.5597
   99MOL   H13417970   3.199   6.580   4.682 -1.4718 -2.2475 -1.6164
   99MOL   H13517971   3.241   6.668   4.936 -1.7598 -0.0554  3.2234
   99MOL   H13617972   2.984   6.696   5.150 -0.8359  1.1951 -1.3559
   99MOL   C13717973   3.092   6.781   4.829 -0.4223  0.0116  0.3620
   99MOL   C13817974   2.967   6.774   4.734  0.3659  0.6968 -0.4771
   99MOL   C13917975   2.999   6.823   4.593 -0.5402 -0.1545  0.9646
   99MOL   O14017976   2.981   6.939   4.555 -0.1833 -0.6496  0.0800
   99MOL   O14117977   3.055   6.725   4.515 -0.4422  0.0928 -0.0096
   99MOL   H14217978   3.171   6.817   4.763 -3.0878  1.9989 -1.8245
   99MOL   H14317979   3.071   6.856   4.905 -0.7847  0.4682 -0.1899
   99MOL   H14417980   2.929   6.673   4.720  1.0665 -0.2813  3.8657
   99MOL   H14517981   3.087   6.761   4.434  1.2505  2.5590  1.6953
   99MOL   C14617982   2.848   6.849   4.801 -0.1120 -0.4659  0.1400
   99MOL   C14717983   2.712   6.836   4.726 -0.0742 -0.7612  0.3941
   99MOL   C14817984   2.619   6.958   4.757 -0.2697  0.1885 -0.6459
   99MOL   O14917985   2.604   7.005   4.873  0.6479 -0.1041 -0.2238
   99MOL   O15017986   2.554   7.006   4.653  0.1302  0.2092  0.4210
   99MOL   H15117987   2.887   6.950   4.810 -0.7574 -0.2605  0.6873
   99MOL   H15217988   2.846   6.825   4.907  1.2840  0.0937  0.3064
   99MOL   H15317989   2.741   6.847   4.622  0.1931  1.1956  0.6628
   99MOL   H15417990   2.494   7.070   4.688 -2.9825 -2.8419  1.0177
   99MOL   C15517991   2.636   6.703   4.751 -0.2616  0.8012 -0.5569
   99MOL   C15617992   2.608   6.606   4.640 -0.7676 -0.6511 -0.0499
   99MOL   C15717993   2.734   6.542   4.576 -0.4137  0.7338  0.0508
   99MOL   O15817994   2.769   6.563   4.454  0.4077 -0.3339  0.2604
   99MOL   O15917995   2.805   6.467   4.665 -0.4732  0.3883  0.3657
   99MOL   H16017996   2.543   6.725   4.804  0.7369  3.0801  0.2864
   99MOL   H16117997   2.690   6.641   4.822 -2.2515 -0.8572 -0.4075
   99MOL   H16217998   2.553   6.523   4.684  0.8296 -0.5891  2.1499
   99MOL   H16317999   2.879   6.426   4.621  0.1530 -0.0633  1.8120
   99MOL   C16418000   2.514   6.666   4.528 -0.5104 -0.2937  0.1607
   99MOL   C16518001   2.364   6.687   4.559  0.2928 -0.6505 -0.6911
   99MOL   C16618002   2.290   6.562   4.626  0.3558  0.2508 -0.0970
   99MOL   O16718003   2.337   6.449   4.615  0.2203 -0.0374 -0.3388
   99MOL   O16818004   2.168   6.589   4.673 -0.0196  0.8319 -0.2295
   99MOL   H16918005   2.517   6.604   4.439  2.5015 -4.1147  2.7300
   99MOL   H17018006   2.540   6.768   4.500  0.1348 -0.5183 -0.0465
   99MOL   H17118007   2.356   6.761   4.639  0.8755  0.0690 -1.2969
   99MOL   H17218008   2.134   6.506   4.703  1.4836 -0.7337 -2.6867
   99MOL   C17318009   2.288   6.742   4.440 -0.1696 -0.5330  0.3176
   99MOL   C17418010   2.332   6.883   4.389  0.0205 -0.1263  0.7157
   99MOL   C17518011   2.281   6.999   4.469  0.2627  0.1072 -0.1515
   99MOL   O17618012   2.202   6.985   4.565 -0.2486  0.0928  0.4973
   99MOL   O17718013   2.322   7.126   4.416  0.4267  0.2690 -0.3988
   99MOL   H17818014   2.187   6.733   4.480  0.5630 -0.1892  2.3036
   99MOL   H17918015   2.295   6.670   4.359  1.6668 -0.8749  0.7702
   99MOL   H18018016   2.440   6.898   4.386 -0.1294  0.6984 -2.1081
   99MOL   H18118017   2.283   7.196   4.465  2.3681 -1.0361  3.2453
   99MOL   H18218018   2.291   6.902   4.290  1.1523 -0.4813  0.1763
  100MOL     C118019   2.618   1.039   2.051  0.1237  0.2250  0.3265
  100MOL     C218020   2.558   0.906   1.997 -0.3722  0.7269  0.4832
  100MOL     C318021   2.428   0.883   2.079 -0.4267 -0.3644 -0.1332
  100MOL     O418022   2.411   0.873   2.198  0.1997 -0.8157  0.3634
  100MOL     O518023   2.323   0.870   1.999 -0.6490  0.0099  0.0605
  100MOL     H618024   2.580   1.121   1.989 -0.6468  0.5669  1.2461
  100MOL     H718025   2.605   1.050   2.158  2.8434 -0.8449  0.7954
  100MOL     H818026   2.533   0.910   1.891 -1.1434  0.0623  0.6362
  100MOL     H918027   2.241   0.840   2.036 -0.8753 -0.9541 -1.2045
  100MOL    H1018028   2.727   1.039   2.042  0.0437  0.8267 -0.8600
  100MOL    C1118029   2.642   0.777   2.024  0.1710 -0.0676  0.2361
  100MOL    C1218030   2.770   0.761   1.938 -0.5417  0.0679 -1.1898
  100MOL    C1318031   2.759   0.714   1.790 -0.3374 -0.4590  0.2682
  100MOL    O1418032   2.822   0.762   1.696 -0.0962  0.1533 -0.3859
  100MOL    O1518033   2.662   0.619   1.782 -0.3146  0.2349 -0.4416
  100MOL    H1618034   2.579   0.692   1.997 -0.4150  0.8711 -1.3707
  100MOL    H1718035   2.659   0.755   2.129  0.0268 -2.3730 -0.1840
  100MOL    H1818036   2.811   0.862   1.926  0.1667 -0.4044 -2.7880
  100MOL    H1918037   2.635   0.622   1.691  1.8327  0.2648 -1.1156
  100MOL    C2018038   2.866   0.667   2.018  0.2486  0.4055 -0.5411
  100MOL    C2118039   2.959   0.750   2.101 -0.1553 -0.1122 -0.0442
  100MOL    C2218040   3.082   0.660   2.136  0.0268 -0.3592  0.4513
  100MOL    O2318041   3.192   0.684   2.093 -0.1245 -0.1021 -0.3674
  100MOL    O2418042   3.061   0.555   2.226  0.5543 -0.3653 -0.0580
  100MOL    H2518043   2.919   0.604   1.946 -1.4817 -1.1826 -0.4811
  100MOL    H2618044   2.808   0.593   2.074  0.3607 -0.8286 -2.0067
  100MOL    H2718045   3.004   0.817   2.028  2.1099  1.1891  2.4674
  100MOL    H2818046   3.138   0.500   2.230 -0.9196 -2.4917  0.3442
  100MOL    C2918047   2.900   0.815   2.229  0.0062 -0.0045  0.2577
  100MOL    C3018048   2.977   0.900   2.330 -0.4274 -0.2305  0.4999
  100MOL    C3118049   2.907   0.911   2.468  0.5300 -0.4724  0.1544
  100MOL    O3218050   2.943   0.853   2.571 -0.3335  0.2536  0.6122
  100MOL    O3318051   2.796   0.991   2.467  0.0447  0.4992 -0.3740
  100MOL    H3418052   2.839   0.742   2.282 -0.8584 -0.4275 -1.2767
  100MOL    H3518053   2.829   0.892   2.197 -0.9595 -0.1096  2.1274
  100MOL    H3618054   3.054   0.826   2.351  0.0318 -0.6824 -2.4937
  100MOL    H3718055   2.744   0.995   2.546  1.2882 -1.2697  0.5907
  100MOL    C3818056   3.026   1.044   2.281 -0.7206  0.1866 -0.4106
  100MOL    C3918057   3.143   1.113   2.352 -0.0339  0.1320 -0.1147
  100MOL    C4018058   3.278   1.051   2.332  1.0894 -0.0112  0.7013
  100MOL    O4118059   3.288   0.937   2.293  0.0119  0.0316  0.5409
  100MOL    O4218060   3.381   1.142   2.351 -0.1907 -0.4286 -0.0696
  100MOL    H4318061   2.939   1.109   2.291 -1.7120 -1.2721  0.7058
  100MOL    H4418062   3.047   1.057   2.175  0.3060 -1.3385 -0.4031
  100MOL    H4518063   3.146   1.207   2.297  0.3331  0.4988  0.5232
  100MOL    H4618064   3.459   1.108   2.312  1.5955  2.4755  0.8281
  100MOL    C4718065   3.129   1.155   2.505  0.1247  0.0330  0.2052
  100MOL    C4818066   3.007   1.245   2.547  0.0979  0.1465  0.0985
  100MOL    C4918067   3.031   1.396   2.513 -0.3808  0.4850 -1.0999
  100MOL    O5018068   3.129   1.433   2.447  0.0778  0.2353 -0.6799
  100MOL    O5118069   2.944   1.482   2.573 -0.6383  0.0972 -0.0478
  100MOL    H5218070   3.219   1.208   2.537 -0.3883  1.6386 -0.9426
  100MOL    H5318071   3.129   1.061   2.561 -0.9569  0.5332  1.0587
  100MOL    H5418072   2.909   1.227   2.502 -0.3349  0.7452  0.7986
  100MOL    H5518073   2.971   1.571   2.556 -2.2933  0.4594 -0.8451
  100MOL    C5618074   2.969   1.225   2.697  0.1249  0.0144  0.3693
  100MOL    C5718075   3.084   1.215   2.806  0.1069  0.2800  0.7170
  100MOL    C5818076   3.145   1.076   2.820  0.3230 -0.2807 -0.6655
  100MOL    O5918077   3.262   1.054   2.804 -0.1825 -0.6717 -0.2391
  100MOL    O6018078   3.053   0.981   2.860  0.3883  0.5140  0.3237
  100MOL    H6118079   2.906   1.137   2.705  0.8615 -0.7160 -1.5646
  100MOL    H6218080   2.903   1.305   2.731  1.2629  0.4940  1.4779
  100MOL    H6318081   3.165   1.282   2.779  0.2666  0.5937  1.9469
  100MOL    H6418082   3.102   0.900   2.869  0.1834  0.2324 -0.9958
  100MOL    C6518083   3.050   1.272   2.946 -0.0828  1.0301 -0.4008
  100MOL    C6618084   3.119   1.401   2.987 -0.1490  0.3986  0.5891
  100MOL    C6718085   3.273   1.386   2.995  0.6132  0.3584 -0.7902
  100MOL    O6818086   3.348   1.467   2.948  0.2899 -0.2150  0.2973
  100MOL    O6918087   3.311   1.268   3.053  0.3002 -0.3258  0.2112
  100MOL    H7018088   3.068   1.199   3.024 -1.1221 -1.0567 -2.0556
  100MOL    H7118089   2.941   1.279   2.938 -0.3920 -1.1763  1.3834
  100MOL    H7218090   3.094   1.463   2.901 -0.3007  0.5551  0.7463
  100MOL    H7318091   3.399   1.235   3.045  0.4514  0.1154 -0.0005
  100MOL    C7418092   3.055   1.462   3.114  0.1258 -0.5221 -0.4069
  100MOL    C7518093   2.915   1.522   3.098 -0.0329 -0.0967 -0.0613
  100MOL    C7618094   2.900   1.619   2.980  0.2030  0.3719 -0.1444
  100MOL    O7718095   2.960   1.722   2.969  0.9681  0.0916  0.4677
  100MOL    O7818096   2.806   1.574   2.894  0.0822 -0.5665  0.0525
  100MOL    H7918097   3.109   1.545   3.158 -1.3632 -0.0841  0.6317
  100MOL    H8018098   3.056   1.387   3.193  1.3494  0.0135  0.0926
  100MOL    H8118099   2.841   1.444   3.080 -2.9597  2.5209  0.0791
  100MOL    H8218100   2.804   1.638   2.824 -0.1304  0.4595  0.9860
  100MOL    C8318101   2.858   1.583   3.232 -0.1454  0.3610  0.6683
  100MOL    C8418102   2.720   1.640   3.229  0.3756  0.2791 -0.2305
  100MOL    C8518103   2.683   1.728   3.346 -0.1185  0.1920 -0.0834
  100MOL    O8618104   2.728   1.706   3.458 -0.9625 -0.0416 -0.0699
  100MOL    O8718105   2.583   1.817   3.327  0.1260  0.1126 -0.8010
  100MOL    H8818106   2.919   1.670   3.257  0.1327  0.5827 -0.7315
  100MOL    H8918107   2.861   1.502   3.305 -1.9946  0.0840  0.4446
  100MOL    H9018108   2.710   1.701   3.139  1.6240  0.5593 -0.1808
  100MOL    H9118109   2.542   1.843   3.408 -1.3551  1.2689 -1.8976
  100MOL    C9218110   2.614   1.527   3.217 -0.6287  0.1166 -0.3341
  100MOL    C9318111   2.541   1.510   3.084 -0.0855 -0.6884 -0.2803
  100MOL    C9418112   2.442   1.622   3.042  0.5006 -0.2307 -0.6530
  100MOL    O9518113   2.370   1.682   3.126 -0.3572  0.0261  0.1344
  100MOL    O9618114   2.442   1.651   2.912 -0.0487 -0.0351 -0.2179
  100MOL    H9718115   2.539   1.536   3.296 -1.2801  1.5275 -1.1091
  100MOL    H9818116   2.655   1.431   3.250 -1.7779 -0.0208  0.7554
  100MOL    H9918117   2.620   1.515   3.009  1.0425 -0.9760  0.8684
  100MOL   H10018118   2.386   1.725   2.892  1.8403  2.1065  2.0652
  100MOL   C10118119   2.479   1.372   3.069  0.1436  0.5753  0.0770
  100MOL   C10218120   2.340   1.335   3.130  0.2169  0.2238 -0.3632
  100MOL   C10318121   2.335   1.348   3.284  0.2521  0.2114  0.0916
  100MOL   O10418122   2.261   1.424   3.341  0.1128  0.4800  0.0509
  100MOL   O10518123   2.428   1.272   3.342 -0.5155 -0.8748  0.5592
  100MOL   H10618124   2.548   1.290   3.090  0.8432  1.0878 -0.2323
  100MOL   H10718125   2.459   1.361   2.963 -1.2494 -0.1324  0.4073
  100MOL   H10818126   2.275   1.414   3.092  1.4309  0.1234 -2.7594
  100MOL   H10918127   2.422   1.277   3.436 -0.2855 -0.8825  0.5753
  100MOL   C11018128   2.281   1.199   3.078 -0.6549 -0.5223  0.5245
  100MOL   C11118129   2.127   1.165   3.094 -0.5874  0.5294  0.1800
  100MOL   C11218130   2.110   1.010   3.059  0.0546 -0.1126 -0.0048
  100MOL   O11318131   2.076   0.964   2.950  0.1290 -0.0727  0.2027
  100MOL   O11418132   2.150   0.931   3.160 -0.2549 -0.1009  0.0614
  100MOL   H11518133   2.334   1.126   3.140 -0.7824 -0.4394  0.7317
  100MOL   H11618134   2.315   1.167   2.980 -0.2164  0.3987  0.3719
  100MOL   H11718135   2.094   1.166   3.199 -2.1354 -0.8887 -0.2614
  100MOL   H11818136   2.120   0.842   3.153  0.6731 -0.3585 -0.8870
  100MOL   C11918137   2.050   1.269   3.015  0.2389 -0.2835  0.2257
  100MOL   C12018138   1.898   1.259   2.997 -0.9312 -0.1378  0.1079
  100MOL   C12118139   1.842   1.356   2.894  0.9102 -0.5493  0.0264
  100MOL   O12218140   1.779   1.320   2.796 -0.4518 -0.9584  0.3306
  100MOL   O12318141   1.866   1.488   2.922 -0.7133 -0.0516 -0.1437
  100MOL   H12418142   2.093   1.279   2.915 -2.4101  1.2325 -0.7909
  100MOL   H12518143   2.072   1.360   3.070 -0.1605 -0.2892  0.3911
  100MOL   H12618144   1.865   1.166   2.950 -1.1839  0.0831 -0.1508
  100MOL   H12718145   1.836   1.547   2.854  2.3363  2.5022  0.5897
  100MOL   C12818146   1.827   1.278   3.131  0.4827 -0.3299  0.9479
  100MOL   C12918147   1.674   1.243   3.134  0.5048 -0.4767  0.2880
  100MOL   C13018148   1.621   1.286   3.267  0.3647 -0.3126 -0.0648
  100MOL   O13118149   1.535   1.377   3.290  0.4089  0.1682  0.0149
  100MOL   O13218150   1.682   1.219   3.369  0.7418 -0.5229  0.3719
  100MOL   H13318151   1.852   1.378   3.166  0.6484 -0.2871  0.7093
  100MOL   H13418152   1.870   1.214   3.208 -0.3794 -1.0219  0.8640
  100MOL   H13518153   1.621   1.300   3.058  0.7580 -0.9313 -0.2329
  100MOL   H13618154   1.746   1.154   3.347  0.1679 -0.6317 -1.0674
  100MOL   C13718155   1.650   1.091   3.112 -0.2859 -0.6368  0.9364
  100MOL   C13818156   1.570   1.019   3.005  0.4852 -0.1285 -0.3145
  100MOL   C13918157   1.418   1.033   3.033 -0.2847 -0.1237  0.1034
  100MOL   O14018158   1.358   0.977   3.122  0.3452 -0.2002  0.0469
  100MOL   O14118159   1.349   1.118   2.950  0.2268 -0.5710  0.0435
  100MOL   H14218160   1.614   1.054   3.208 -0.9407  1.2426  1.4494
  100MOL   H14318161   1.751   1.051   3.121  0.7738  1.5113 -1.0009
  100MOL   H14418162   1.580   1.083   2.917  0.7777  1.6225  0.9582
  100MOL   H14518163   1.256   1.117   2.968  0.5546  0.5724  1.8864
  100MOL   C14618164   1.600   0.866   2.980  0.8049  0.0558 -0.0947
  100MOL   C14718165   1.628   0.820   2.832 -0.0062  0.3948  0.1502
  100MOL   C14818166   1.763   0.876   2.784  0.0142  0.1186 -0.3022
  100MOL   O14918167   1.784   0.952   2.690  0.3969 -0.8010  0.3820
  100MOL   O15018168   1.858   0.819   2.856  0.0491 -0.6935 -0.4650
  100MOL   H15118169   1.519   0.808   3.025  1.7565 -1.6066 -0.4967
  100MOL   H15218170   1.687   0.836   3.038  1.3456 -0.5696 -1.2202
  100MOL   H15318171   1.642   0.714   2.847 -0.6837  0.2955  0.1338
  100MOL   H15418172   1.941   0.856   2.833 -0.1176 -0.4061 -0.6059
  100MOL   C15518173   1.507   0.842   2.733 -0.2198 -0.2277 -0.5535
  100MOL   C15618174   1.374   0.785   2.772  0.1271  0.9080  0.3719
  100MOL   C15718175   1.366   0.629   2.756 -0.9826  0.1068  0.3514
  100MOL   O15818176   1.329   0.562   2.664  0.8700 -0.2403  0.1973
  100MOL   O15918177   1.427   0.576   2.861  0.0007  0.1530 -0.3897
  100MOL   H16018178   1.536   0.820   2.630  1.6232  1.3227 -0.4011
  100MOL   H16118179   1.493   0.950   2.720  1.1317 -0.1118 -1.1514
  100MOL   H16218180   1.359   0.805   2.878 -0.9040  0.6541  0.2843
  100MOL   H16318181   1.406   0.484   2.865  1.4382 -0.1921 -0.4397
  100MOL   C16418182   1.253   0.859   2.707  0.2071 -0.1165  0.2461
  100MOL   C16518183   1.107   0.829   2.745 -0.6469 -0.3402  0.1459
  100MOL   C16618184   1.063   0.863   2.891 -0.3215  0.4770  0.5324
  100MOL   O16718185   0.985   0.793   2.954 -0.1020 -0.2298  0.4352
  100MOL   O16818186   1.105   0.980   2.932  0.0736 -0.5990 -0.6435
  100MOL   H16918187   1.272   0.847   2.600  0.4761  1.5194  0.1024
  100MOL   H17018188   1.264   0.965   2.727  0.5315 -0.0857 -0.1004
  100MOL   H17118189   1.047   0.900   2.687 -1.9848 -0.0015  1.8856
  100MOL   H17218190   1.068   1.007   3.014 -0.0592 -4.0153  0.5202
  100MOL   C17318191   1.061   0.692   2.698 -0.8079 -0.0447 -0.3658
  100MOL   C17418192   0.907   0.683   2.661 -0.8273  0.3958  0.3547
  100MOL   C17518193   0.866   0.763   2.537 -0.2807  0.7086 -0.2704
  100MOL   O17618194   0.944   0.778   2.443 -0.4044  0.3978 -0.2128
  100MOL   O17718195   0.734   0.795   2.535  0.3782  0.2168  0.1042
  100MOL   H17818196   1.079   0.600   2.753 -0.5034 -0.4128 -1.0682
  100MOL   H17918197   1.115   0.674   2.605 -1.3173  0.4085 -0.7542
  100MOL   H18018198   0.882   0.580   2.633  0.4107  0.4731 -1.1202
  100MOL   H18118199   0.715   0.835   2.451 -0.5770 -0.8996 -0.2353
  100MOL   H18218200   0.840   0.710   2.742 -0.8863  0.7054  0.2033
  101MOL     C118201   7.538   2.565   2.450 -0.0958  0.5316 -0.4669
  101MOL     C218202   7.434   2.570   2.569  0.0121 -0.2757  0.0341
  101MOL     C318203   7.330   2.460   2.567 -0.3017 -0.7917  0.3837
  101MOL     O418204   7.342   2.359   2.498 -0.2117 -0.4033 -0.3081
  101MOL     O518205   7.219   2.478   2.649  0.1279  0.1951  0.3543
  101MOL     H618206   7.625   2.500   2.455 -0.7374 -0.2308  1.5902
  101MOL     H718207   7.495   2.509   2.367 -2.5724  2.0834 -0.2731
  101MOL     H818208   7.492   2.542   2.657  0.0740 -0.8546 -0.1858
  101MOL     H918209   7.166   2.407   2.618 -0.7886  1.0424 -0.0489
  101MOL    H1018210   7.569   2.663   2.414 -0.4203  1.2380  1.1013
  101MOL    C1118211   7.372   2.713   2.587  0.0331  0.1586 -1.1314
  101MOL    C1218212   7.416   2.782   2.720  0.1796  0.0309 -0.6390
  101MOL    C1318213   7.323   2.895   2.766  0.6767  0.2328  0.2948
  101MOL    O1418214   7.274   2.913   2.881 -0.3627 -0.1754  0.7513
  101MOL    O1518215   7.316   2.976   2.658 -0.9566 -0.2762 -0.3795
  101MOL    H1618216   7.264   2.710   2.577  0.1043  2.3483 -3.0352
  101MOL    H1718217   7.395   2.780   2.504 -2.9294  1.2555 -1.1240
  101MOL    H1818218   7.405   2.705   2.796 -0.2329  0.5100 -0.2121
  101MOL    H1918219   7.253   3.046   2.655 -1.1267 -0.5040 -2.3527
  101MOL    C2018220   7.564   2.832   2.720  0.1279  0.9213 -0.4911
  101MOL    C2118221   7.617   2.835   2.866  0.0078 -0.1028 -0.1029
  101MOL    C2218222   7.651   2.970   2.918 -0.5178  0.9489 -0.0772
  101MOL    O2318223   7.623   3.077   2.859 -0.6294 -0.2573  0.0917
  101MOL    O2418224   7.701   2.967   3.043 -0.4785 -0.2881 -1.0253
  101MOL    H2518225   7.562   2.931   2.673  0.5251  0.8097 -0.7451
  101MOL    H2618226   7.618   2.761   2.657 -1.8311 -0.4950 -0.6261
  101MOL    H2718227   7.542   2.796   2.935 -0.0516 -2.9646 -1.6764
  101MOL    H2818228   7.713   3.056   3.071  0.7442 -0.8226  0.1807
  101MOL    C2918229   7.755   2.746   2.873  0.2241 -1.1456  0.0756
  101MOL    C3018230   7.738   2.594   2.855 -0.9142  0.6314 -0.3192
  101MOL    C3118231   7.646   2.531   2.975  0.4250 -0.1766  0.6080
  101MOL    O3218232   7.685   2.531   3.091  0.0482  0.1983  0.0697
  101MOL    O3318233   7.533   2.470   2.932  0.2493 -0.1268 -0.0137
  101MOL    H3418234   7.808   2.765   2.966  1.7414  0.4514 -1.0859
  101MOL    H3518235   7.809   2.780   2.784 -0.3497 -0.3100  0.0333
  101MOL    H3618236   7.683   2.581   2.762 -0.5748  0.0316 -0.4346
  101MOL    H3718237   7.490   2.448   3.013 -2.1223  0.8020 -0.9870
  101MOL    C3818238   0.015   2.525   2.850  0.0698 -0.1898  0.2022
  101MOL    C3918239   0.007   2.368   2.818  0.0706 -0.1338 -0.6725
  101MOL    C4018240   0.149   2.314   2.793 -0.2922  0.5178  0.0778
  101MOL    O4118241   0.206   2.236   2.869 -0.0314 -0.8735  0.0526
  101MOL    O4218242   0.202   2.373   2.684  0.2496  0.1675 -0.3950
  101MOL    H4318243   0.058   2.554   2.946 -1.4579 -2.6079  1.6635
  101MOL    H4418244   0.084   2.564   2.774 -1.4065  1.0619 -0.5206
  101MOL    H4518245   7.820   2.314   2.904  1.3404 -0.7304 -0.4546
  101MOL    H4618246   0.296   2.360   2.678  0.2532 -0.3289  0.5882
  101MOL    C4718247   7.768   2.344   2.699 -0.8573  0.1316 -0.1651
  101MOL    C4818248   7.782   2.221   2.612  0.4666  0.3908  0.0878
  101MOL    C4918249   7.694   2.232   2.486 -0.0753  0.4558  0.0428
  101MOL    O5018250   7.573   2.203   2.491  0.0854  0.2925 -0.7997
  101MOL    O5118251   7.760   2.295   2.382  0.1869 -0.4743  0.0848
  101MOL    H5218252   7.783   2.434   2.639  0.1750 -0.2742 -0.5238
  101MOL    H5318253   7.663   2.337   2.725  0.2643 -1.2508  4.4238
  101MOL    H5418254   0.028   2.223   2.565  0.4942 -1.4014  0.0373
  101MOL    H5518255   7.721   2.264   2.302 -1.9349 -2.2686  1.7523
  101MOL    C5618256   7.767   2.077   2.687  0.2414  0.6638  0.5006
  101MOL    C5718257   7.835   1.953   2.621 -0.7187  0.2475 -0.2324
  101MOL    C5818258   0.133   1.956   2.623 -0.9469 -0.4173 -0.7109
  101MOL    O5918259   0.200   2.062   2.599 -0.1962 -0.2487 -0.2744
  101MOL    O6018260   0.181   1.829   2.650  0.0932  0.2357  0.4322
  101MOL    H6118261   7.662   2.058   2.705 -0.0417  0.8989 -0.8729
  101MOL    H6218262   7.804   2.087   2.789 -1.0392  1.6990  0.8685
  101MOL    H6318263   7.819   1.873   2.693 -0.5116  0.5076  0.0965
  101MOL    H6418264   0.274   1.816   2.657 -0.4414 -3.4372  2.6421
  101MOL    C6518265   7.769   1.917   2.480 -0.1373  0.1080 -0.8007
  101MOL    C6618266   7.820   1.781   2.413 -0.0908 -0.3388 -0.1149
  101MOL    C6718267   7.798   1.794   2.260  0.1510 -0.4989 -0.3748
  101MOL    O6818268   7.697   1.756   2.198  0.2551 -0.0274  0.0802
  101MOL    O6918269   0.059   1.837   2.204  0.8183 -0.3612  0.2160
  101MOL    H7018270   7.799   1.997   2.413 -1.0978  2.1037  1.0757
  101MOL    H7118271   7.661   1.908   2.481 -0.0373 -1.1729 -0.0747
  101MOL    H7218272   0.074   1.781   2.433 -0.2099 -1.4003  0.5665
  101MOL    H7318273   0.059   1.825   2.110 -1.1511 -2.4843  0.4415
  101MOL    C7418274   7.760   1.651   2.477  0.2780 -0.2298  0.9638
  101MOL    C7518275   7.627   1.593   2.428 -0.0870 -0.5689 -0.3663
  101MOL    C7618276   7.513   1.689   2.450 -1.0081  0.1000 -0.2194
  101MOL    O7718277   7.487   1.743   2.561  0.8713 -0.6706 -0.1061
  101MOL    O7818278   7.443   1.726   2.338  0.1483  0.1482  0.0616
  101MOL    H7918279   7.755   1.663   2.585  1.2587  0.3100  0.9533
  101MOL    H8018280   7.835   1.573   2.470  0.5098  0.0581  0.2279
  101MOL    H8118281   7.646   1.568   2.323 -1.7296 -1.3734 -0.4885
  101MOL    H8218282   7.376   1.782   2.373  0.2705  0.0801  0.4027
  101MOL    C8318283   7.605   1.450   2.492 -0.3342 -0.6007 -0.9675
  101MOL    C8418284   7.604   1.334   2.395  0.1924  0.1504 -0.5153
  101MOL    C8518285   7.477   1.326   2.317  0.2245  0.1237  0.0990
  101MOL    O8618286   7.368   1.374   2.355 -0.3667 -0.3330 -0.1980
  101MOL    O8718287   7.501   1.274   2.194  0.1320 -0.5885  0.1916
  101MOL    H8818288   7.514   1.445   2.552  0.6930 -0.9330  0.5702
  101MOL    H8918289   7.682   1.430   2.566  0.8326  3.3610 -0.9932
  101MOL    H9018290   7.691   1.345   2.331  2.4371  1.4085  2.6021
  101MOL    H9118291   7.413   1.277   2.160  0.9353 -0.1767 -1.9372
  101MOL    C9218292   7.621   1.189   2.459  0.4250 -0.7440 -0.5657
  101MOL    C9318293   7.518   1.146   2.559 -0.3839  0.6080 -0.7662
  101MOL    C9418294   7.529   1.198   2.704  0.7621  0.3907 -0.5067
  101MOL    O9518295   7.626   1.257   2.745 -0.1010  0.1549 -0.2760
  101MOL    O9618296   7.424   1.169   2.780 -0.6257 -0.6986  0.3612
  101MOL    H9718297   7.716   1.189   2.513 -0.1123  0.3291  0.3812
  101MOL    H9818298   7.630   1.115   2.379 -0.0522 -0.2922 -1.0381
  101MOL    H9918299   7.426   1.179   2.511 -1.3079  0.3624  0.7990
  101MOL   H10018300   7.448   1.194   2.868 -1.0386 -1.6703  0.7574
  101MOL   C10118301   7.510   0.988   2.572  0.2108 -0.9626  0.2564
  101MOL   C10218302   7.426   0.906   2.478  0.6738  1.0886  0.0463
  101MOL   C10318303   7.278   0.952   2.470 -0.4689 -0.0372 -0.6706
  101MOL   O10418304   7.233   1.006   2.369 -0.2770  0.7102  0.0125
  101MOL   O10518305   7.214   0.936   2.582 -0.3875 -0.3978 -0.0332
  101MOL   H10618306   7.487   0.947   2.671  1.9872  0.1754  1.1740
  101MOL   H10718307   7.612   0.956   2.552  1.1275  0.3545  2.6980
  101MOL   H10818308   7.469   0.919   2.379 -0.8408  3.4383 -0.3400
  101MOL   H10918309   7.128   0.973   2.572 -0.5177 -0.4945  0.6716
  101MOL   C11018310   7.437   0.763   2.522 -0.5204  0.1937  0.6067
  101MOL   C11118311   7.399   0.668   2.401 -0.0875  0.3988  0.9919
  101MOL   C11218312   7.257   0.623   2.411 -0.0161  0.7564 -0.1589
  101MOL   O11318313   7.174   0.665   2.329  0.4476 -0.5783  0.0590
  101MOL   O11418314   7.229   0.524   2.499  0.1868 -0.0169  0.2976
  101MOL   H11518315   7.369   0.743   2.605  0.9990  2.1743  2.3611
  101MOL   H11618316   7.535   0.735   2.560 -2.3468 -1.4577  4.3919
  101MOL   H11718317   7.411   0.723   2.308 -0.5698 -0.8357  0.1905
  101MOL   H11818318   7.143   0.489   2.480  0.4078 -1.8284  2.4232
  101MOL   C11918319   7.501   0.544   2.396  0.0875 -0.4155  0.7276
  101MOL   C12018320   7.539   0.489   2.249  0.3894  0.2984 -0.0015
  101MOL   C12118321   7.520   0.336   2.246  0.2736 -0.1607  0.1465
  101MOL   O12218322   7.612   0.258   2.220  0.3855 -0.5660 -0.8126
  101MOL   O12318323   7.396   0.308   2.291  0.3274 -0.1483  0.5129
  101MOL   H12418324   7.459   0.463   2.456 -0.7964  0.3073  1.1091
  101MOL   H12518325   7.591   0.574   2.449 -0.6112  0.2186  1.5734
  101MOL   H12618326   7.480   0.523   2.165  0.0916  0.1493  0.1469
  101MOL   H12718327   7.396   0.217   2.319  0.6350 -0.7784 -1.4615
  101MOL   C12818328   7.675   0.535   2.205  0.5215  0.2439 -0.0542
  101MOL   C12918329   7.697   0.686   2.183 -0.0542  0.3817  0.2686
  101MOL   C13018330   7.602   0.749   2.082  0.2863 -0.0719 -0.4176
  101MOL   O13118331   7.566   0.692   1.976  0.0796  0.2893  0.1897
  101MOL   O13218332   7.567   0.872   2.119 -0.1815  0.0422  0.1501
  101MOL   H13318333   7.704   0.484   2.113  0.5784  1.6752 -0.8506
  101MOL   H13418334   7.754   0.506   2.273  0.9354 -2.6294 -1.7011
  101MOL   H13518335   7.676   0.735   2.278  0.0235  1.1275 -0.0952
  101MOL   H13618336   7.519   0.908   2.046 -0.1672  0.8704  0.5476
  101MOL   C13718337   7.846   0.704   2.149  0.2659 -0.0573 -0.2370
  101MOL   C13818338   0.046   0.849   2.147 -0.5275 -0.2908 -0.2301
  101MOL   C13918339   0.182   0.862   2.086 -0.1602 -0.5015  0.0730
  101MOL   O14018340   0.219   0.957   2.022  0.3274 -0.5322 -0.0638
  101MOL   O14118341   0.271   0.765   2.127  0.1359  0.5312 -0.3866
  101MOL   H14218342   0.029   0.647   2.063  1.9326  0.2688  0.2373
  101MOL   H14318343   0.053   0.660   2.228  0.1982  0.4704  0.1157
  101MOL   H14418344   7.837   0.897   2.072 -1.1217  0.5823  0.8049
  101MOL   H14518345   0.346   0.789   2.075 -0.7041 -0.7736 -2.2454
  101MOL   C14618346   0.021   0.937   2.271 -0.0838 -0.2709 -0.2419
  101MOL   C14718347   0.101   0.900   2.398  0.3160  0.0297  0.2550
  101MOL   C14818348   0.071   0.769   2.468 -0.0604  0.0376 -0.4246
  101MOL   O14918349   0.149   0.671   2.469  0.4011  0.0481 -0.3568
  101MOL   O15018350   7.805   0.777   2.541 -0.4312 -0.1064 -0.1439
  101MOL   H15118351   7.766   0.947   2.285  0.0225  1.8522 -0.8112
  101MOL   H15218352   0.054   1.039   2.252  0.4245  0.0792  2.2959
  101MOL   H15318353   0.204   0.894   2.365  0.5979  1.2097  0.8764
  101MOL   H15418354   7.798   0.698   2.592 -1.6114 -0.4617 -0.8361
  101MOL   C15518355   0.094   1.023   2.494  0.1790  0.0204 -0.4866
  101MOL   C15618356   0.200   1.032   2.614  0.5808 -0.4172  0.4546
  101MOL   C15718357   0.133   1.068   2.743  0.0155  0.8409 -0.7679
  101MOL   O15818358   0.152   1.009   2.853 -0.2643 -0.0262  0.0746
  101MOL   O15918359   0.043   1.172   2.728 -0.4304  0.2182 -0.0496
  101MOL   H16018360   7.847   1.015   2.536 -0.0559  1.0580 -0.8455
  101MOL   H16118361   0.095   1.124   2.454 -1.4962  0.8768  1.6198
  101MOL   H16218362   0.239   0.931   2.626  0.3314 -0.9060 -2.3643
  101MOL   H16318363   0.006   1.190   2.813 -1.1023  3.0173 -0.8717
  101MOL   C16418364   0.318   1.127   2.582  0.3828 -0.1277 -0.4629
  101MOL   C16518365   0.429   1.151   2.682 -0.2080 -0.4404  0.1077
  101MOL   C16618366   0.514   1.269   2.648  0.2900  0.8508  0.0190
  101MOL   O16718367   0.536   1.309   2.533 -0.7522 -0.4307 -0.6686
  101MOL   O16818368   0.560   1.328   2.764 -0.0823  0.0512 -0.6337
  101MOL   H16918369   0.271   1.223   2.560 -0.7074 -0.0837  1.9347
  101MOL   H17018370   0.363   1.080   2.495  4.0775  1.8888  0.2436
  101MOL   H17118371   0.397   1.167   2.785  0.8789 -1.2336  0.5802
  101MOL   H17218372   0.636   1.383   2.756 -0.6633  1.0611  0.6100
  101MOL   C17318373   0.521   1.024   2.682  0.4423  0.0026 -0.4230
  101MOL   C17418374   0.630   1.004   2.778  0.4872  0.4835 -0.1747
  101MOL   C17518375   0.764   1.064   2.744 -0.6377 -0.0149  0.3043
  101MOL   O17618376   0.796   1.104   2.633  0.3411  0.1953  0.0240
  101MOL   O17718377   0.840   1.080   2.858  0.3414  0.3261  0.7401
  101MOL   H17818378   0.564   1.019   2.582 -0.3617 -0.1970 -0.7637
  101MOL   H17918379   0.450   0.942   2.694 -0.2832  0.1665 -3.1624
  101MOL   H18018380   0.602   1.033   2.879  1.9017  0.9827  0.0800
  101MOL   H18118381   0.912   1.141   2.857 -0.5461  1.4188  1.5948
  101MOL   H18218382   0.663   0.901   2.791  2.1428  0.9352 -0.6726
  102MOL     C118383   1.000   3.662   6.184 -0.3172 -0.0420  0.9050
  102MOL     C218384   1.071   3.792   6.220 -0.3856  0.4933  0.1019
  102MOL     C318385   1.027   3.908   6.126  0.1581  1.0910 -0.1174
  102MOL     O418386   1.088   4.011   6.114  0.4371 -0.4050 -0.0609
  102MOL     O518387   0.912   3.885   6.065 -0.2825 -0.3798 -0.8237
  102MOL     H618388   0.892   3.670   6.197 -0.1164 -0.5237  2.9584
  102MOL     H718389   1.019   3.636   6.080  0.0562  1.0583  0.6871
  102MOL     H818390   1.033   3.825   6.316  4.7555  0.3663  2.3164
  102MOL     H918391   0.889   3.958   6.010 -0.0770  0.0287 -0.3727
  102MOL    H1018392   1.034   3.577   6.242  1.8183 -1.1863 -1.9146
  102MOL    C1118393   1.228   3.776   6.239  0.0190  0.3903  0.4036
  102MOL    C1218394   1.307   3.753   6.109 -0.2449 -0.9101 -0.3118
  102MOL    C1318395   1.373   3.610   6.107  1.0140 -0.7066 -0.5144
  102MOL    O1418396   1.488   3.591   6.136 -0.4342 -0.0775  0.2898
  102MOL    O1518397   1.280   3.511   6.077  0.4201 -0.3237  0.1818
  102MOL    H1618398   1.241   3.699   6.314  2.0417 -0.5108 -0.8382
  102MOL    H1718399   1.267   3.860   6.296 -0.6781  0.8085  0.2652
  102MOL    H1818400   1.234   3.744   6.029 -3.1908  0.1759  2.1202
  102MOL    H1918401   1.327   3.429   6.088  1.9297  0.1966 -1.9669
  102MOL    C2018402   1.404   3.872   6.093  0.3077  0.0829 -0.5410
  102MOL    C2118403   1.405   3.941   5.963  0.1692  0.4872  0.0637
  102MOL    C2218404   1.494   3.854   5.866  0.2250 -0.7080  0.2110
  102MOL    O2318405   1.610   3.889   5.840  0.2951 -0.3873  0.3003
  102MOL    O2418406   1.435   3.748   5.805  0.2628  0.0216 -0.3550
  102MOL    H2518407   1.498   3.827   6.125  0.3718  0.7900  0.2787
  102MOL    H2618408   1.391   3.948   6.169 -0.6599  0.2705 -0.8882
  102MOL    H2718409   1.301   3.941   5.930 -0.0023  0.2699  0.5885
  102MOL    H2818410   1.501   3.725   5.741 -0.0084  1.1008 -1.0496
  102MOL    C2918411   1.461   4.091   5.973  0.5248 -0.2197 -0.2666
  102MOL    C3018412   1.424   4.163   5.844 -0.2749 -0.2231  0.0402
  102MOL    C3118413   1.486   4.308   5.850  0.2422  0.4605 -0.3171
  102MOL    O3218414   1.520   4.365   5.955  0.6356  0.7566  0.4310
  102MOL    O3318415   1.492   4.368   5.729 -0.5714 -0.5052 -0.2836
  102MOL    H3418416   1.569   4.087   5.985  0.7159  0.4666 -1.6586
  102MOL    H3518417   1.425   4.153   6.055 -0.2914 -1.2948  0.1979
  102MOL    H3618418   1.477   4.120   5.760  0.1020 -0.3613  0.3496
  102MOL    H3718419   1.457   4.313   5.660 -0.2050 -0.1641 -0.7412
  102MOL    C3818420   1.271   4.183   5.818  0.0736 -0.0439  0.0090
  102MOL    C3918421   1.206   4.098   5.701 -0.1815  0.1239 -0.4733
  102MOL    C4018422   1.213   4.181   5.562  0.0660  0.2830  0.5528
  102MOL    O4118423   1.134   4.168   5.469  0.3775  0.0903  0.0052
  102MOL    O4218424   1.325   4.256   5.543 -0.6738 -0.2963 -0.0600
  102MOL    H4318425   1.243   4.287   5.804  3.0414  1.0641  2.0558
  102MOL    H4418426   1.214   4.158   5.907  1.6118 -0.7774  0.8017
  102MOL    H4518427   1.266   4.009   5.683  0.3281  0.6440 -1.3926
  102MOL    H4618428   1.322   4.298   5.458  1.2397 -1.0533 -0.5387
  102MOL    C4718429   1.057   4.048   5.727  0.0357  0.1578 -0.4375
  102MOL    C4818430   1.015   3.916   5.661  0.1383 -0.0819  0.4398
  102MOL    C4918431   0.863   3.915   5.644  0.0597 -0.1797  0.2266
  102MOL    O5018432   0.786   3.867   5.728  0.2738 -0.2097 -0.2971
  102MOL    O5118433   0.828   3.970   5.523 -0.2349 -0.9783  0.1876
  102MOL    H5218434   0.992   4.125   5.688  0.7200  0.0873 -1.7344
  102MOL    H5318435   1.040   4.038   5.834 -1.8120 -0.2804 -0.7679
  102MOL    H5418436   1.058   3.920   5.561 -1.0661  0.9079 -0.0539
  102MOL    H5518437   0.736   3.974   5.501  0.5180  2.7317 -2.6293
  102MOL    C5618438   1.065   3.790   5.730 -1.2204 -0.2842  0.1588
  102MOL    C5718439   1.067   3.656   5.654  0.0190 -0.0287  0.2749
  102MOL    C5818440   1.071   3.538   5.748 -0.8951  0.7639 -0.4938
  102MOL    O5918441   1.151   3.446   5.738 -0.1726 -0.5537  0.0248
  102MOL    O6018442   0.976   3.537   5.838 -0.2225  0.2279 -0.3854
  102MOL    H6118443   1.019   3.788   5.829 -1.9449 -0.0084 -0.1671
  102MOL    H6218444   1.170   3.810   5.750 -1.2459 -0.3135  0.3253
  102MOL    H6318445   0.970   3.646   5.605  0.2311 -1.2011  0.0684
  102MOL    H6418446   0.973   3.456   5.886  0.1412  0.4605  0.0340
  102MOL    C6518447   1.173   3.643   5.538  0.0550  0.5523 -0.5288
  102MOL    C6618448   1.107   3.592   5.409  0.2067  0.3732  0.3417
  102MOL    C6718449   1.215   3.554   5.306 -0.3033  0.1244 -0.4574
  102MOL    O6818450   1.231   3.436   5.266  0.2525  0.1455 -0.0686
  102MOL    O6918451   1.290   3.660   5.274  0.7791 -0.8167 -0.1290
  102MOL    H7018452   1.266   3.591   5.560  1.7417  2.6513 -2.4726
  102MOL    H7118453   1.206   3.744   5.513  1.9345 -0.0299 -0.4806
  102MOL    H7218454   1.049   3.501   5.424  1.5737 -0.7459 -1.0306
  102MOL    H7318455   1.356   3.630   5.215 -0.0824  0.0257 -1.5558
  102MOL    C7418456   1.015   3.707   5.349 -0.6039 -0.3623  0.1778
  102MOL    C7518457   0.950   3.696   5.208  0.1038  0.1129  0.0841
  102MOL    C7618458   1.048   3.726   5.089 -0.4432 -0.0883  0.8979
  102MOL    O7718459   1.079   3.643   5.009 -0.2900  0.0736 -0.0807
  102MOL    O7818460   1.101   3.853   5.080  0.0735 -0.0507  0.6140
  102MOL    H7918461   1.078   3.796   5.344  3.0306 -2.8580 -0.3847
  102MOL    H8018462   0.936   3.722   5.422  1.3299  1.7495  1.8905
  102MOL    H8118463   0.906   3.597   5.197  0.8966 -0.0065 -2.1997
  102MOL    H8218464   1.171   3.858   5.017  0.0769 -1.8832  0.4500
  102MOL    C8318465   0.834   3.799   5.202 -0.2218  0.2186  0.1932
  102MOL    C8418466   0.705   3.761   5.111  0.4166  0.1976 -0.2879
  102MOL    C8518467   0.725   3.682   4.979 -0.0144 -0.2514 -0.2353
  102MOL    O8618468   0.746   3.733   4.870  0.0388  0.0517 -0.1639
  102MOL    O8718469   0.722   3.549   4.994  0.7122  0.0660 -0.2928
  102MOL    H8818470   0.856   3.899   5.165  0.6818  1.0012  2.7986
  102MOL    H8918471   0.788   3.809   5.300  0.7068 -0.0500  0.6518
  102MOL    H9018472   0.640   3.695   5.170  0.1847  0.3630 -0.3587
  102MOL    H9118473   0.759   3.517   4.913 -0.4027 -1.0449 -0.3823
  102MOL    C9218474   0.618   3.887   5.084 -0.5310  0.5556 -0.5774
  102MOL    C9318475   0.479   3.847   5.018 -0.3024 -0.4123 -0.1981
  102MOL    C9418476   0.452   3.915   4.888 -0.5867 -0.1731  0.2152
  102MOL    O9518477   0.455   3.856   4.775 -0.3686 -0.4170 -0.0598
  102MOL    O9618478   0.417   4.043   4.906 -0.5896  0.2371  0.4487
  102MOL    H9718479   0.676   3.949   5.015 -0.5595 -0.4919 -1.5638
  102MOL    H9818480   0.616   3.958   5.166  0.4101  0.5666 -0.5656
  102MOL    H9918481   0.474   3.740   5.000 -0.0615 -0.2238 -1.4086
  102MOL   H10018482   0.386   4.085   4.827 -0.9028  2.5200  1.7642
  102MOL   C10118483   0.363   3.873   5.118  0.3261 -0.1201  0.4703
  102MOL   C10218484   0.244   3.770   5.099  0.5215  0.0478 -0.4445
  102MOL   C10318485   0.269   3.648   5.186  0.7952 -0.0570  0.4576
  102MOL   O10418486   0.309   3.537   5.148  0.0061 -0.4585  0.3180
  102MOL   O10518487   0.220   3.659   5.316 -0.1694 -0.6985 -0.0209
  102MOL   H10618488   0.335   3.979   5.111 -1.4608 -0.6176 -0.1786
  102MOL   H10718489   0.390   3.872   5.224 -0.3095  2.3828  0.6902
  102MOL   H10818490   0.163   3.817   5.154 -1.6572 -1.4007 -2.3243
  102MOL   H10918491   0.232   3.580   5.366  1.0390 -1.5318 -1.5854
  102MOL   C11018492   0.179   3.735   4.969 -0.0652 -0.7503  0.1187
  102MOL   C11118493   0.026   3.696   4.973 -0.7909  0.2102  0.2981
  102MOL   C11218494   7.828   3.584   5.068  0.3480 -0.4283 -0.9183
  102MOL   O11318495   7.738   3.601   5.155  0.1906 -0.0222 -0.1822
  102MOL   O11418496   0.034   3.466   5.045 -0.3929  0.1704  0.3975
  102MOL   H11518497   0.234   3.653   4.923  1.7834  0.9848 -0.8523
  102MOL   H11618498   0.196   3.812   4.895 -1.9206 -0.0477  0.4009
  102MOL   H11718499   7.824   3.781   5.012 -0.3458  1.4295 -1.6322
  102MOL   H11818500   0.001   3.394   5.096  0.3619  1.1519  2.3141
  102MOL   C11918501   7.833   3.664   4.832 -0.2487  0.3371  0.3879
  102MOL   C12018502   7.686   3.644   4.801 -0.2876 -0.3288  0.0212
  102MOL   C12118503   7.659   3.581   4.665 -0.1062 -0.2815 -0.4501
  102MOL   O12218504   7.673   3.639   4.560  0.2819  0.7226 -0.2445
  102MOL   O12318505   7.615   3.452   4.672 -0.1566  0.2166  0.0393
  102MOL   H12418506   0.037   3.577   4.797  1.8995  1.8288  0.0889
  102MOL   H12518507   0.014   3.736   4.757  0.7942  0.0015  0.5234
  102MOL   H12618508   7.646   3.570   4.870  0.0195  0.7494  1.3770
  102MOL   H12718509   7.600   3.407   4.590 -0.6283  1.7424 -0.7217
  102MOL   C12818510   7.602   3.765   4.828  0.0347  0.0314  0.4808
  102MOL   C12918511   7.451   3.732   4.848  0.3260  0.0587 -0.4285
  102MOL   C13018512   7.384   3.856   4.782 -1.0371 -0.1341 -0.1317
  102MOL   O13118513   7.331   3.850   4.670  0.4917  0.3307 -0.5856
  102MOL   O13218514   7.409   3.965   4.852  0.2091 -0.1060 -0.2625
  102MOL   H13318515   7.617   3.825   4.738  2.3973 -0.4785  0.5009
  102MOL   H13418516   7.643   3.830   4.906 -0.5348  1.6798 -0.5650
  102MOL   H13518517   7.432   3.643   4.788 -0.2541 -0.3236  0.3119
  102MOL   H13618518   7.389   4.045   4.806 -1.3380  0.4644  1.3643
  102MOL   C13718519   7.425   3.712   4.999  0.4762 -0.0840 -0.3868
  102MOL   C13818520   7.287   3.667   5.045 -0.1835 -0.2320 -0.0892
  102MOL   C13918521   7.270   3.664   5.196  0.3763  0.2544 -0.1350
  102MOL   O14018522   7.362   3.656   5.273 -0.7189 -0.2935  0.9334
  102MOL   O14118523   7.133   3.670   5.227 -0.1842 -0.2649  0.4599
  102MOL   H14218524   7.457   3.805   5.046  1.1326  0.1885 -1.3502
  102MOL   H14318525   7.487   3.628   5.030  1.1560  0.9610  1.1787
  102MOL   H14418526   7.227   3.754   5.015  1.1675  0.2958 -1.3448
  102MOL   H14518527   7.134   3.681   5.321 -0.4976  0.3971  0.3958
  102MOL   C14618528   7.230   3.534   4.987  0.5921  0.1223  0.3942
  102MOL   C14718529   7.295   3.400   5.042  0.3357  0.4473  0.1890
  102MOL   C14818530   7.427   3.376   4.975 -0.3872  0.1876  0.2180
  102MOL   O14918531   7.530   3.360   5.038 -0.3033  0.1980 -0.0993
  102MOL   O15018532   7.416   3.378   4.835  0.0299 -0.4305 -0.6345
  102MOL   H15118533   7.231   3.539   4.878  2.3032 -0.3627  0.3685
  102MOL   H15218534   7.125   3.529   5.015  1.0609 -1.0398  2.0322
  102MOL   H15318535   7.330   3.410   5.145  1.5831  0.9222 -0.2617
  102MOL   H15418536   7.501   3.378   4.793  0.7396 -0.7669  0.7570
  102MOL   C15518537   7.209   3.279   5.022  0.6837  0.2337 -0.1499
  102MOL   C15618538   7.084   3.262   5.116  0.3868 -0.2191 -0.4925
  102MOL   C15718539   7.113   3.268   5.262 -0.1546  0.0494 -0.2029
  102MOL   O15818540   7.072   3.359   5.335 -0.2263 -0.4869 -0.2319
  102MOL   O15918541   7.185   3.155   5.299 -0.0511  0.3017 -0.4256
  102MOL   H16018542   7.265   3.188   5.045 -0.1474  0.2883  2.1799
  102MOL   H16118543   7.178   3.278   4.917  1.2887  0.3973 -0.3282
  102MOL   H16218544   7.021   3.348   5.095  1.6381  0.4165 -1.7209
  102MOL   H16318545   7.209   3.164   5.390  0.6864  2.3110 -0.7734
  102MOL   C16418546   7.011   3.132   5.080 -0.2889 -0.1362 -0.1549
  102MOL   C16518547   6.865   3.129   5.131 -0.0575  0.0902 -0.3491
  102MOL   C16618548   6.817   2.982   5.136  0.2312 -0.5014 -0.5545
  102MOL   O16718549   6.703   2.954   5.097 -0.3529 -0.8113  0.3246
  102MOL   O16818550   6.906   2.894   5.186 -0.7830  0.2878  0.2510
  102MOL   H16918551   7.070   3.048   5.116  1.4645  1.1107 -0.0471
  102MOL   H17018552   7.022   3.126   4.972 -2.0442 -0.6010 -0.3301
  102MOL   H17118553   6.872   3.153   5.238  0.6575  1.5343 -0.7054
  102MOL   H17218554   6.862   2.813   5.209  1.5045 -0.5929  1.7857
  102MOL   C17318555   6.763   3.222   5.064  0.1988  0.1349  0.7598
  102MOL   C17418556   6.630   3.243   5.134 -0.1012  0.4533 -0.5095
  102MOL   C17518557   6.628   3.350   5.245  0.4424 -0.3729 -0.3463
  102MOL   O17618558   6.706   3.446   5.253  0.4454  0.6705 -0.0628
  102MOL   O17718559   6.533   3.320   5.333 -0.3391  0.0969 -0.0871
  102MOL   H17818560   6.742   3.182   4.964  1.3487  0.4341  0.3931
  102MOL   H17918561   6.817   3.315   5.047  1.3131 -0.0240  3.2787
  102MOL   H18018562   6.569   3.290   5.057  0.7782  0.2291 -1.3413
  102MOL   H18118563   6.538   3.392   5.394  2.0437  1.0325 -1.3402
  102MOL   H18218564   6.583   3.150   5.167 -0.1011  0.3328 -0.8440
  103MOL     C118565   3.562   1.127   2.714  0.3360 -0.3050 -0.3982
  103MOL     C218566   3.681   1.024   2.739 -0.2773 -0.7254  0.2389
  103MOL     C318567   3.819   1.080   2.712  0.0324 -0.3162  0.4601
  103MOL     O418568   3.907   1.014   2.661 -0.3996 -0.4966 -0.1217
  103MOL     O518569   3.844   1.203   2.771  0.0164  0.5609  0.2150
  103MOL     H618570   3.509   1.117   2.619  1.5088 -1.2727 -0.9646
  103MOL     H718571   3.486   1.130   2.791  1.9972 -2.3829  1.3816
  103MOL     H818572   3.674   1.020   2.848  0.0899 -1.9023  0.2318
  103MOL     H918573   3.930   1.236   2.753 -0.3802  2.3794  1.5368
  103MOL    H1018574   3.600   1.229   2.701  1.7074 -0.4935  1.9646
  103MOL    C1118575   3.644   0.879   2.698  0.0067  0.5043 -0.1366
  103MOL    C1218576   3.521   0.800   2.750  0.1199 -0.0497 -0.4618
  103MOL    C1318577   3.528   0.784   2.910 -0.1503  0.0262  0.5361
  103MOL    O1418578   3.624   0.814   2.971  0.1571  0.3732 -0.4406
  103MOL    O1518579   3.416   0.726   2.962 -0.9029 -0.0141  0.7606
  103MOL    H1618580   3.737   0.824   2.710  0.1014  0.0270 -2.7057
  103MOL    H1718581   3.636   0.874   2.589 -2.4527  0.2312  0.0336
  103MOL    H1818582   3.435   0.866   2.739  1.1494  1.3289 -0.4177
  103MOL    H1918583   3.410   0.684   3.046 -0.0587 -0.6845  0.4892
  103MOL    C2018584   3.495   0.666   2.679 -0.0877 -0.0653  0.4721
  103MOL    C2118585   3.423   0.676   2.544 -0.6576  0.3508 -0.1588
  103MOL    C2218586   3.268   0.688   2.563 -0.2046 -0.3812 -0.3218
  103MOL    O2318587   3.187   0.595   2.545  0.7402  0.3738  0.3553
  103MOL    O2418588   3.235   0.809   2.606  0.2763 -0.2000 -0.6248
  103MOL    H2518589   3.440   0.588   2.731  0.6771 -0.7053  0.3185
  103MOL    H2618590   3.590   0.616   2.661  0.0803  0.8061 -1.1458
  103MOL    H2718591   3.452   0.763   2.485 -0.0520  0.5373  0.4151
  103MOL    H2818592   3.142   0.822   2.609  0.3843  0.2726  4.0847
  103MOL    C2918593   3.459   0.551   2.454  0.4243 -0.3101 -0.0689
  103MOL    C3018594   3.405   0.562   2.306 -0.0697 -0.4105 -0.2332
  103MOL    C3118595   3.369   0.429   2.243  0.3430  0.1554  0.0073
  103MOL    O3218596   3.269   0.412   2.170  0.4313 -0.5489 -0.1789
  103MOL    O3318597   3.467   0.339   2.259 -0.1358  0.0687  0.2809
  103MOL    H3418598   3.418   0.460   2.498 -1.5826  0.8211  0.4988
  103MOL    H3518599   3.565   0.532   2.467  0.1045 -1.3002  1.2742
  103MOL    H3618600   3.308   0.610   2.312 -1.1308 -2.6110  1.0709
  103MOL    H3718601   3.442   0.250   2.237 -0.7942  0.6626 -1.4906
  103MOL    C3818602   3.493   0.653   2.213 -0.2558  0.2869  0.1695
  103MOL    C3918603   3.648   0.611   2.190 -0.2199  0.1779  1.0460
  103MOL    C4018604   3.742   0.686   2.283  0.0852 -0.0341  0.1725
  103MOL    O4118605   3.729   0.804   2.324 -0.2027  0.0466 -0.8545
  103MOL    O4218606   3.855   0.610   2.289  0.3436  0.5573  0.3180
  103MOL    H4318607   3.490   0.754   2.254  0.0043  0.1503  0.5233
  103MOL    H4418608   3.438   0.658   2.119 -1.2695  0.7423  0.7840
  103MOL    H4518609   3.664   0.507   2.218  0.0911  0.2147  1.0053
  103MOL    H4618610   3.922   0.673   2.312 -1.3299  1.9164  1.5170
  103MOL    C4718611   3.696   0.642   2.044 -0.1665  0.4018  0.2351
  103MOL    C4818612   3.648   0.541   1.931  1.2787  0.3821  0.2681
  103MOL    C4918613   3.688   0.402   1.962  0.5542  0.0222  0.1957
  103MOL    O5018614   3.605   0.320   1.989  0.4587 -0.2128 -0.3167
  103MOL    O5118615   3.821   0.378   1.974  0.2253  0.3705  0.2995
  103MOL    H5218616   3.805   0.638   2.037 -0.1686 -0.2845  0.5977
  103MOL    H5318617   3.653   0.740   2.024 -0.8955  0.0161 -0.0825
  103MOL    H5418618   3.540   0.550   1.923  1.3496  2.1203  0.9688
  103MOL    H5518619   3.834   0.288   2.000 -0.6785  0.1825  0.1197
  103MOL    C5618620   3.697   0.588   1.788  0.3280 -0.0010  0.5874
  103MOL    C5718621   3.643   0.505   1.670 -0.1248  0.4963  0.1194
  103MOL    C5818622   3.703   0.549   1.534 -0.2980  0.2406  0.3632
  103MOL    O5918623   3.673   0.485   1.431  0.0679 -0.1356  0.5116
  103MOL    O6018624   3.786   0.654   1.536  0.0531 -0.3657  0.3338
  103MOL    H6118625   3.806   0.586   1.782  0.1900  0.4339 -2.5605
  103MOL    H6218626   3.660   0.691   1.778 -0.4038 -0.2094  1.0695
  103MOL    H6318627   3.694   0.409   1.671 -2.8391 -1.0004  0.1672
  103MOL    H6418628   3.828   0.670   1.452  2.1076 -1.1962  1.1648
  103MOL    C6518629   3.488   0.464   1.670  0.0035 -0.1011  0.0707
  103MOL    C6618630   3.391   0.585   1.659 -0.4554  0.4727  0.4939
  103MOL    C6718631   3.340   0.645   1.790 -0.0027  0.2639 -0.0319
  103MOL    O6818632   3.390   0.748   1.836  0.4956 -0.1172  0.2291
  103MOL    O6918633   3.267   0.559   1.860  0.1221 -0.2177 -0.0678
  103MOL    H7018634   3.468   0.404   1.759 -0.4323 -0.3498 -0.1925
  103MOL    H7118635   3.470   0.403   1.582 -2.0639 -0.4541  0.7040
  103MOL    H7218636   3.441   0.663   1.602 -0.6953 -1.2266 -2.1357
  103MOL    H7318637   3.264   0.576   1.953  1.9221 -1.4451  0.2389
  103MOL    C7418638   3.264   0.561   1.572 -0.9729 -0.1778 -0.2950
  103MOL    C7518639   3.161   0.680   1.542 -0.8677  0.5876  0.1124
  103MOL    C7618640   3.049   0.645   1.446 -0.0453 -0.3130  0.1447
  103MOL    O7718641   2.966   0.726   1.407  0.2086 -0.0517 -0.5782
  103MOL    O7818642   3.053   0.518   1.399 -0.2441  0.9767  0.0571
  103MOL    H7918643   3.212   0.472   1.608 -1.7214  0.9263  1.4467
  103MOL    H8018644   3.292   0.540   1.469  0.4084  3.0226 -0.6125
  103MOL    H8118645   3.106   0.682   1.636 -0.6475 -1.2154  0.2853
  103MOL    H8218646   2.989   0.512   1.329 -0.7249 -0.9459  0.6355
  103MOL    C8318647   3.222   0.828   1.537  0.1314 -0.2262 -0.4901
  103MOL    C8418648   3.269   0.885   1.405 -0.0665  0.0975  0.2491
  103MOL    C8518649   3.370   0.789   1.342  0.1340  0.2914 -0.1242
  103MOL    O8618650   3.476   0.756   1.396  0.0972 -0.0635  0.5202
  103MOL    O8718651   3.332   0.741   1.220  0.5944 -0.2352 -0.2912
  103MOL    H8818652   3.297   0.837   1.615 -0.2003 -0.6638 -0.1202
  103MOL    H8918653   3.138   0.890   1.572 -0.6414 -0.8726 -1.1770
  103MOL    H9018654   3.189   0.891   1.332  0.5600 -1.3871 -0.5783
  103MOL    H9118655   3.415   0.726   1.176  0.4741  1.0439 -0.9875
  103MOL    C9218656   3.336   1.025   1.415  0.1603 -0.8406  0.1846
  103MOL    C9318657   3.217   1.124   1.418 -0.2448  0.3881 -0.6356
  103MOL    C9418658   3.206   1.191   1.282  0.0045 -0.3488  0.0040
  103MOL    O9518659   3.101   1.190   1.221 -0.4357 -0.7591  0.4470
  103MOL    O9618660   3.315   1.263   1.243  0.5831  0.4257 -0.4736
  103MOL    H9718661   3.399   1.054   1.331 -2.3820  0.3994 -1.3678
  103MOL    H9818662   3.400   1.030   1.504  3.8775  0.5126 -2.4304
  103MOL    H9918663   3.123   1.075   1.443  2.1220 -4.0220  0.1979
  103MOL   H10018664   3.294   1.313   1.165 -0.3329  0.6044 -0.1150
  103MOL   C10118665   3.241   1.238   1.520 -0.4845  0.5616  0.6687
  103MOL   C10218666   3.189   1.213   1.666  0.6044  0.5938  0.0415
  103MOL   C10318667   3.036   1.187   1.663  0.1993 -0.4446 -0.4504
  103MOL   O10418668   2.956   1.269   1.618  1.0716 -0.1478 -0.1496
  103MOL   O10518669   3.001   1.074   1.720 -0.0653 -0.7679 -0.8204
  103MOL   H10618670   3.193   1.329   1.486  1.2069  1.7032  1.2684
  103MOL   H10718671   3.345   1.269   1.508 -0.4577  0.3653  0.3987
  103MOL   H10818672   3.232   1.118   1.699  0.4732  0.4879 -0.0922
  103MOL   H10918673   2.910   1.070   1.695 -0.3931  0.1264  0.1615
  103MOL   C11018674   3.226   1.334   1.757 -0.7229  0.6732 -0.4551
  103MOL   C11118675   3.249   1.292   1.908 -0.7653 -0.6114  0.4101
  103MOL   C11218676   3.153   1.370   1.998 -0.1676 -0.0529  0.5386
  103MOL   O11318677   3.179   1.454   2.084  0.5008 -0.3102 -0.2365
  103MOL   O11418678   3.024   1.327   1.964  0.4343 -0.3786 -0.1409
  103MOL   H11518679   3.153   1.413   1.740 -1.4381  0.0122 -0.5184
  103MOL   H11618680   3.319   1.376   1.719  0.1064  0.2787  1.0635
  103MOL   H11718681   3.219   1.190   1.933 -0.0203 -0.5326  1.6825
  103MOL   H11818682   2.966   1.364   2.029 -2.2612 -2.7812 -1.1252
  103MOL   C11918683   3.395   1.310   1.958 -0.2555 -0.0268  0.1561
  103MOL   C12018684   3.498   1.199   1.907 -0.5708 -0.5222 -0.7672
  103MOL   C12118685   3.458   1.071   1.984 -0.3421  0.1389 -0.0868
  103MOL   O12218686   3.517   1.041   2.087  0.7803 -0.0845  0.2324
  103MOL   O12318687   3.359   1.007   1.919 -0.4055  0.0223 -0.1604
  103MOL   H12418688   3.402   1.315   2.067  2.7753  1.2125 -0.0287
  103MOL   H12518689   3.428   1.406   1.919 -0.7036 -0.0399 -0.2505
  103MOL   H12618690   3.475   1.180   1.802  0.7972 -1.1369 -0.9619
  103MOL   H12718691   3.333   0.922   1.951 -2.5647  0.4807 -0.6282
  103MOL   C12818692   3.646   1.239   1.917  0.0685  0.0554  0.2714
  103MOL   C12918693   3.744   1.147   1.839 -0.9682  0.0355 -0.0023
  103MOL   C13018694   3.882   1.150   1.909  0.6251 -0.0095  0.1412
  103MOL   O13118695   3.964   1.238   1.878  0.2073  0.4325 -0.1736
  103MOL   O13218696   3.893   1.055   2.003 -0.3661 -0.2830 -0.5003
  103MOL   H13318697   3.671   1.229   2.022  0.6474  1.6251  0.2871
  103MOL   H13418698   3.654   1.337   1.869 -0.9757  0.0679  0.1095
  103MOL   H13518699   3.717   1.044   1.862  0.2518  0.0038  1.3944
  103MOL   H13618700   3.962   1.064   2.067 -0.5934 -2.3566  0.0919
  103MOL   C13718701   3.739   1.173   1.688  0.1221 -0.4189 -0.4325
  103MOL   C13818702   3.787   1.078   1.582  0.7962 -1.1947 -0.2392
  103MOL   C13918703   3.681   0.962   1.572 -0.5674  0.5546  0.0760
  103MOL   O14018704   3.604   0.934   1.664 -0.1436 -0.4227 -0.8309
  103MOL   O14118705   3.681   0.906   1.446  0.1107 -0.0210  0.2709
  103MOL   H14218706   3.790   1.266   1.665 -0.1263  0.0712  0.9169
  103MOL   H14318707   3.635   1.197   1.664  0.8884  1.2959 -2.1648
  103MOL   H14418708   3.779   1.130   1.486 -1.3706 -1.1763 -0.0697
  103MOL   H14518709   3.615   0.840   1.435  0.4874 -0.2949 -0.3732
  103MOL   C14618710   3.933   1.029   1.595 -0.2394 -0.2015 -0.3727
  103MOL   C14718711   4.029   1.059   1.483  0.2525  0.0485  0.2848
  103MOL   C14818712   4.160   0.978   1.481 -0.7460 -0.5313  0.0361
  103MOL   O14918713   4.212   0.926   1.578 -0.3165 -0.0643 -0.1785
  103MOL   O15018714   4.214   0.987   1.353 -0.5867 -0.1530  0.1380
  103MOL   H15118715   3.925   0.923   1.616  0.1096 -0.4322 -1.3976
  103MOL   H15218716   3.983   1.074   1.681  0.3260  1.7669 -1.6861
  103MOL   H15318717   3.968   1.034   1.396  0.1698 -0.8901  0.6050
  103MOL   H15418718   4.282   0.927   1.328 -0.3236 -0.0854  0.7013
  103MOL   C15518719   4.052   1.212   1.458 -0.2899 -0.0118 -0.3994
  103MOL   C15618720   4.081   1.270   1.316  0.1744 -0.3311 -0.6311
  103MOL   C15718721   4.127   1.420   1.310 -0.2618 -0.2176 -0.6756
  103MOL   O15818722   4.081   1.514   1.373 -0.3745 -0.0064 -0.5394
  103MOL   O15918723   4.222   1.426   1.215 -0.5638 -0.3622 -0.0823
  103MOL   H16018724   4.127   1.238   1.534  0.3257  1.3634 -1.4610
  103MOL   H16118725   3.963   1.261   1.496 -0.3525  1.2335 -2.0970
  103MOL   H16218726   4.174   1.222   1.285  1.2216  1.6383 -0.6638
  103MOL   H16318727   4.238   1.340   1.180 -0.7640 -1.0126  1.4119
  103MOL   C16418728   3.977   1.230   1.208 -0.4788 -0.6105 -0.2675
  103MOL   C16518729   4.007   1.109   1.116  0.7574  0.5429  0.7318
  103MOL   C16618730   4.128   1.113   1.021 -0.0931 -0.4159  0.4770
  103MOL   O16718731   4.208   1.205   1.021 -0.2167  0.3866  0.3761
  103MOL   O16818732   4.150   1.007   0.944  0.2723  0.4443 -0.3122
  103MOL   H16918733   3.957   1.320   1.151  1.8486  0.2828  0.2624
  103MOL   H17018734   3.883   1.223   1.262 -0.5842  0.2730 -0.3316
  103MOL   H17118735   4.043   1.030   1.182 -2.0217 -2.9787 -1.7516
  103MOL   H17218736   4.229   1.019   0.895  1.0780  2.0105  1.3403
  103MOL   C17318737   3.875   1.058   1.063  0.1766 -0.5566  0.2730
  103MOL   C17418738   3.810   0.957   1.162  0.6283 -0.1408 -0.3295
  103MOL   C17518739   3.658   0.931   1.128 -0.4414 -0.4231  0.1480
  103MOL   O17618740   3.603   0.823   1.113 -0.0293  0.3774 -0.3048
  103MOL   O17718741   3.589   1.047   1.120 -0.3432  0.4438  0.4974
  103MOL   H17818742   3.884   1.014   0.963 -1.0183 -0.2701  0.0281
  103MOL   H17918743   3.804   1.139   1.047 -1.4324 -1.9767  0.0814
  103MOL   H18018744   3.873   0.867   1.162  0.5940 -0.1646  0.3076
  103MOL   H18118745   3.500   1.043   1.087  0.2820  1.8145 -1.5150
  103MOL   H18218746   3.792   0.996   1.262 -0.3981  1.1802 -1.0118
  104MOL     C118747   6.729   5.911   7.156 -0.1216  0.7840 -0.1488
  104MOL     C218748   6.622   5.839   7.072  0.5950  0.4809  0.2135
  104MOL     C318749   6.608   5.914   6.932 -0.0038  0.9046  0.3342
  104MOL     O418750   6.582   6.034   6.921 -0.0105 -0.9877 -0.0831
  104MOL     O518751   6.607   5.825   6.831  0.0752  0.2862  0.3239
  104MOL     H618752   6.741   5.848   7.244 -0.1260  0.5383 -0.3252
  104MOL     H718753   6.820   5.908   7.096  0.7231 -0.5334  1.1660
  104MOL     H818754   6.654   5.735   7.061 -0.1126  0.1533  1.1804
  104MOL     H918755   6.609   5.736   6.864 -1.5051  0.2875  0.4678
  104MOL    H1018756   6.697   6.006   7.199 -1.2707  0.6858 -0.7817
  104MOL    C1118757   6.484   5.842   7.129  0.3403  0.6448 -0.3115
  104MOL    C1218758   6.472   5.794   7.280  0.3444 -0.4413 -0.0648
  104MOL    C1318759   6.499   5.648   7.292  0.1360  0.5609  0.1096
  104MOL    O1418760   6.446   5.566   7.214 -0.1890 -0.0303 -0.6279
  104MOL    O1518761   6.587   5.618   7.388 -0.2025  0.3307 -0.7298
  104MOL    H1618762   6.424   5.770   7.074  1.1466 -0.5822  0.4118
  104MOL    H1718763   6.425   5.933   7.116 -2.1121 -1.0656 -1.4947
  104MOL    H1818764   6.536   5.849   7.349 -0.7577  0.8537 -0.0553
  104MOL    H1918765   6.600   5.525   7.380 -0.8507  0.1419  0.3554
  104MOL    C2018766   6.326   5.822   7.324  1.1527  0.4259 -0.6798
  104MOL    C2118767   6.298   5.803   7.479  0.2041 -0.1959 -0.2459
  104MOL    C2218768   6.167   5.732   7.502 -0.1908  0.4196  1.4424
  104MOL    O2318769   6.055   5.784   7.504  0.0200  0.1874 -0.2678
  104MOL    O2418770   6.187   5.594   7.510  0.6064  0.4739  0.2069
  104MOL    H2518771   6.265   5.759   7.259 -0.4737  0.3997  0.8666
  104MOL    H2618772   6.296   5.923   7.296  0.5715  0.2961 -0.5191
  104MOL    H2718773   6.378   5.748   7.530  1.0822 -0.8874 -2.3059
  104MOL    H2818774   6.105   5.549   7.520  0.4572  0.9975  1.3922
  104MOL    C2918775   6.284   5.944   7.542 -0.1071 -0.4537  0.1587
  104MOL    C3018776   6.413   6.033   7.549 -0.4058  0.6522 -0.2501
  104MOL    C3118777   6.531   5.958   7.624  0.4230 -0.4086  0.5424
  104MOL    O3218778   6.508   5.868   7.701 -0.2463  0.1447 -0.2309
  104MOL    O3318779   6.652   6.013   7.600  0.2309  0.3750 -0.0266
  104MOL    H3418780   6.243   5.946   7.643  0.2383  0.5427  0.2875
  104MOL    H3518781   6.207   6.000   7.490 -0.5600 -1.0435  0.1882
  104MOL    H3618782   6.449   6.043   7.447 -0.5334  1.8615 -0.1860
  104MOL    H3718783   6.648   6.084   7.539  0.5612  0.5118  0.1134
  104MOL    C3818784   6.398   6.172   7.602 -0.5028 -0.5933  0.5830
  104MOL    C3918785   6.394   6.284   7.491 -0.3514 -0.3558 -0.5981
  104MOL    C4018786   6.526   6.303   7.420 -1.2468 -0.0479 -0.8034
  104MOL    O4118787   6.621   6.350   7.478 -0.8290  0.2865 -0.3767
  104MOL    O4218788   6.535   6.241   7.300  0.0099  0.2269  0.5279
  104MOL    H4318789   6.474   6.194   7.677  1.1645 -1.9469 -0.6717
  104MOL    H4418790   6.303   6.183   7.653 -1.6205 -1.1403 -1.3254
  104MOL    H4518791   6.321   6.256   7.416 -0.6344 -0.1457 -0.4033
  104MOL    H4618792   6.446   6.225   7.273  0.0939 -0.8074  0.8702
  104MOL    C4718793   6.341   6.424   7.545  0.5326 -0.0733  0.0107
  104MOL    C4818794   6.399   6.468   7.683  0.1366 -0.7640  0.9020
  104MOL    C4918795   6.312   6.430   7.800 -0.5910  0.4384  0.3247
  104MOL    O5018796   6.354   6.384   0.051 -0.3037  0.1799 -0.1708
  104MOL    O5118797   6.181   6.459   7.785 -0.1855 -0.1667  0.1002
  104MOL    H5218798   6.234   6.410   7.556  0.5906 -1.5204 -1.1021
  104MOL    H5318799   6.357   6.491   7.461 -1.4051  0.9088  0.4059
  104MOL    H5418800   6.484   6.405   7.707  0.6814  0.2482  1.6442
  104MOL    H5518801   6.131   6.446   0.011 -0.2436  0.3680  0.1569
  104MOL    C5618802   6.436   6.621   7.698  0.7309 -0.2965  0.4247
  104MOL    C5718803   6.579   6.639   7.759  0.4654  0.1720  0.2626
  104MOL    C5818804   6.575   6.640   0.061  0.0395 -0.0739  0.7938
  104MOL    O5918805   6.496   6.714   0.121 -0.5238 -0.3398 -0.2362
  104MOL    O6018806   6.671   6.564   0.121 -0.3281  0.6652 -0.3362
  104MOL    H6118807   6.355   6.669   7.753  0.7559  0.4093 -0.1510
  104MOL    H6218808   6.447   6.661   7.597  0.5056  0.2643  0.6195
  104MOL    H6318809   6.641   6.553   7.733  0.5911  0.9034 -2.0072
  104MOL    H6418810   6.671   6.584   0.214 -5.1667  0.6554 -0.1975
  104MOL    C6518811   6.649   6.769   7.711  0.0620 -0.1256  0.2579
  104MOL    C6618812   6.792   6.767   7.747 -0.2252  0.8238  0.0917
  104MOL    C6718813   6.826   6.905   7.794 -0.0947 -0.3241 -0.5523
  104MOL    O6818814   6.876   6.995   7.724  0.1681  0.0124 -0.7257
  104MOL    O6918815   6.816   6.912   0.080  1.1058 -0.1875 -0.0250
  104MOL    H7018816   6.602   6.858   7.753 -0.3908 -1.0104  1.6418
  104MOL    H7118817   6.642   6.794   7.605  0.2666  0.7541  0.4432
  104MOL    H7218818   6.810   6.707   7.835 -1.3197  0.6384  0.1961
  104MOL    H7318819   6.837   6.996   0.119 -0.9268  1.8077 -3.0121
  104MOL    C7418820   6.880   6.716   7.623  0.1961 -0.5819 -0.3156
  104MOL    C7518821   7.017   6.665   7.681 -0.5933  0.4980  0.1201
  104MOL    C7618822   7.119   6.695   7.563  0.0830  0.5584  0.9829
  104MOL    O7718823   7.113   6.666   7.440  0.8595  0.0273  0.4172
  104MOL    O7818824   7.218   6.765   7.611 -0.1370  0.0131  0.4498
  104MOL    H7918825   6.888   6.808   7.565 -3.3771  0.9154  1.3712
  104MOL    H8018826   6.829   6.636   7.568 -1.4937  0.3833 -0.1794
  104MOL    H8118827   7.041   6.723   7.770  0.9002  0.2351 -0.0829
  104MOL    H8218828   7.278   6.770   7.539 -0.1424 -1.0436  0.3617
  104MOL    C8318829   7.023   6.517   7.717  0.4193 -0.0724  0.6286
  104MOL    C8418830   7.138   6.487   7.815  0.1796  0.5897  0.5285
  104MOL    C8518831   7.187   6.344   7.803  0.1826 -0.2244 -0.4878
  104MOL    O8618832   7.301   6.311   7.775  0.0451 -0.2590 -0.0161
  104MOL    O8718833   7.081   6.265   7.834 -0.1116  0.4268 -0.3899
  104MOL    H8818834   7.026   6.458   7.626 -1.0708  1.2576 -0.3078
  104MOL    H8918835   6.928   6.492   7.763  1.0955 -2.4856  0.7933
  104MOL    H9018836   7.228   6.539   7.781  0.5307 -0.0221  0.5152
  104MOL    H9118837   7.007   6.317   0.008  0.0780 -0.2593  1.5408
  104MOL    C9218838   7.105   6.536   0.105  0.3134 -0.5551 -0.1102
  104MOL    C9318839   7.222   6.618   0.171  0.3272  0.5955 -0.4874
  104MOL    C9418840   7.343   6.529   0.195  0.1616  0.4680  1.0462
  104MOL    O9518841   7.450   6.544   0.126 -0.3956 -0.4911  0.2960
  104MOL    O9618842   7.323   6.436   0.289 -0.0498 -0.7117  0.1285
  104MOL    H9718843   7.076   6.451   0.167  0.1060 -0.9659 -0.7553
  104MOL    H9818844   7.027   6.611   0.103  0.7710 -0.0830 -0.3319
  104MOL    H9918845   7.271   6.688   0.103  1.5374 -0.2065 -0.4663
  104MOL   H10018846   7.400   6.386   0.309  0.5017 -0.1309 -0.5224
  104MOL   C10118847   7.176   6.686   0.307 -0.0588 -0.2774 -0.2202
  104MOL   C10218848   7.191   6.842   0.302  0.3286 -0.1680 -0.0639
  104MOL   C10318849   7.341   6.878   0.296 -0.2381 -0.1368  0.7571
  104MOL   O10418850   7.414   6.875   0.390 -0.2062  0.2173 -0.1919
  104MOL   O10518851   7.389   6.890   0.163 -0.1972  0.4212 -0.2806
  104MOL   H10618852   7.227   6.656   0.399  1.0031 -1.5023 -1.1889
  104MOL   H10718853   7.069   6.671   0.312  0.1414 -1.2878  1.4053
  104MOL   H10818854   7.157   6.871   0.202  0.3078  0.1948  0.0474
  104MOL   H10918855   7.483   6.893   0.165 -0.1107 -1.8557  0.4925
  104MOL   C11018856   7.118   6.904   0.428 -0.1844  0.3146 -0.7427
  104MOL   C11118857   6.981   6.957   0.395  0.5498  0.6806 -0.2901
  104MOL   C11218858   6.985   7.091   0.324  0.0234 -0.2398  0.1965
  104MOL   O11318859   6.977   7.112   0.199 -0.2518  0.5097 -0.7764
  104MOL   O11418860   7.014   7.191   0.413 -0.0244  0.2327 -0.1103
  104MOL   H11518861   7.171   6.992   0.465 -2.0620  0.2830  2.1773
  104MOL   H11618862   7.103   6.833   0.509 -1.4504  3.1894  1.6295
  104MOL   H11718863   6.941   6.895   0.315  0.0518  2.0373 -1.1127
  104MOL   H11818864   7.034   7.272   0.368 -1.1822  0.5578 -0.0312
  104MOL   C11918865   6.879   6.955   0.510 -0.0565  0.2386 -0.4290
  104MOL   C12018866   6.795   6.822   0.529  0.4662 -0.3428 -0.0552
  104MOL   C12118867   6.717   6.780   0.408  0.3406  0.1834 -0.3818
  104MOL   O12218868   6.732   6.666   0.357  0.1968  0.0193  0.2994
  104MOL   O12318869   6.633   6.878   0.358 -0.8464 -0.2302  0.0907
  104MOL   H12418870   6.803   7.028   0.484  0.5846  1.1460  0.2395
  104MOL   H12518871   6.922   6.987   0.605  0.9130  1.1695 -1.1792
  104MOL   H12618872   6.871   6.745   0.542  1.7408  0.4728 -2.5083
  104MOL   H12718873   6.593   6.840   0.282  1.3930 -2.0788 -0.2247
  104MOL   C12818874   6.704   6.833   0.652  0.3633  0.4653 -0.0836
  104MOL   C12918875   6.646   6.700   0.721  0.5164  0.5003 -0.1449
  104MOL   C13018876   6.766   6.611   0.764  0.1919 -0.7281 -0.4316
  104MOL   O13118877   6.814   6.514   0.700  0.4710  0.0370 -0.2857
  104MOL   O13218878   6.816   6.657   0.882 -0.1698  0.0795  0.1697
  104MOL   H13318879   6.618   6.898   0.642  1.3792  1.7810 -0.4480
  104MOL   H13418880   6.750   6.895   0.729  0.8166 -0.5707  0.4903
  104MOL   H13518881   6.595   6.733   0.811 -0.1545 -0.1539 -0.2897
  104MOL   H13618882   6.880   6.593   0.909 -0.0337 -0.6395 -1.7963
  104MOL   C13718883   6.535   6.621   0.636 -0.1301 -0.2924  0.0006
  104MOL   C13818884   6.428   6.538   0.712  0.2333  0.5007 -0.4294
  104MOL   C13918885   6.474   6.414   0.791 -0.2022 -0.1296 -0.6780
  104MOL   O14018886   6.456   6.402   0.912 -0.6621  0.3330 -0.4898
  104MOL   O14118887   6.531   6.321   0.710  0.0761  0.5467 -0.5820
  104MOL   H14218888   6.586   6.550   0.570  0.1225 -1.9850  1.9758
  104MOL   H14318889   6.485   6.684   0.562  0.2505  1.1514  0.9533
  104MOL   H14418890   6.404   6.595   0.802  1.0021 -0.3369  0.3154
  104MOL   H14518891   6.573   6.259   0.767  1.5074  0.4979 -1.6742
  104MOL   C14618892   6.301   6.520   0.628  0.4235 -0.5343 -0.4477
  104MOL   C14718893   6.174   6.465   0.697 -0.1068  0.0542  0.0457
  104MOL   C14818894   6.060   6.470   0.592 -0.5010 -0.0250 -0.2853
  104MOL   O14918895   6.073   6.500   0.475  0.0223  0.5578  0.0973
  104MOL   O15018896   5.943   6.433   0.648  0.3808  0.4872  0.1373
  104MOL   H15118897   6.330   6.467   0.537  2.2823 -2.6297  1.3006
  104MOL   H15218898   6.275   6.621   0.596  1.1505 -0.7670 -1.8451
  104MOL   H15318899   6.209   6.362   0.711 -2.3953 -0.9285 -1.0989
  104MOL   H15418900   5.870   6.447   0.590  0.2310  0.7727  0.3916
  104MOL   C15518901   6.131   6.503   0.842  0.3014  0.1295 -0.0423
  104MOL   C15618902   6.043   6.631   0.859  0.0831 -0.3769 -0.1636
  104MOL   C15718903   6.115   6.763   0.865  0.1446 -0.1136  0.0211
  104MOL   O15818904   6.100   6.848   0.957  0.3162  0.6994  0.3656
  104MOL   O15918905   6.221   6.771   0.776  0.0977 -0.2022  0.6478
  104MOL   H16018906   6.218   6.528   0.902  0.2735 -0.6235  0.3229
  104MOL   H16118907   6.076   6.422   0.891 -1.6935  0.2291 -2.0615
  104MOL   H16218908   5.976   6.646   0.774  1.2679 -2.0856 -1.4229
  104MOL   H16318909   6.278   6.843   0.797 -0.1441  0.0425  0.4801
  104MOL   C16418910   5.947   6.606   0.978  0.4958  0.2485  0.5822
  104MOL   C16518911   5.810   6.673   0.964  0.1003  0.3452  0.3053
  104MOL   C16618912   5.753   6.682   1.108 -0.3285  0.0938 -0.0936
  104MOL   O16718913   5.773   6.780   1.172 -0.7294  0.2274 -0.3057
  104MOL   O16818914   5.696   6.563   1.153  0.0813 -0.7265 -0.1207
  104MOL   H16918915   6.000   6.639   1.067  1.9615 -1.0892  0.2456
  104MOL   H17018916   5.924   6.499   0.988 -0.3926  0.5293  1.6347
  104MOL   H17118917   5.821   6.774   0.925  2.7837  0.0007  0.1084
  104MOL   H17218918   5.625   6.581   1.212  1.1514 -0.5942  1.1664
  104MOL   C17318919   5.713   6.612   0.856  0.3053 -0.2036  0.3289
  104MOL   C17418920   5.560   6.637   0.877  0.0122  0.3946 -0.2314
  104MOL   C17518921   5.512   6.773   0.906  0.2373 -0.6715  0.1278
  104MOL   O17618922   5.554   6.880   0.855 -0.1312 -0.0809 -0.3959
  104MOL   O17718923   5.404   6.777   0.987  0.2670 -0.1546  0.2799
  104MOL   H17818924   5.733   6.505   0.859  1.5426  0.0514  3.0201
  104MOL   H17918925   5.740   6.656   0.760  0.0880 -2.8149 -0.9739
  104MOL   H18018926   5.502   6.613   0.787 -0.8805  1.0446  0.1640
  104MOL   H18118927   5.375   6.865   1.009  1.8278  0.1735  1.0642
  104MOL   H18218928   5.529   6.568   0.955 -2.0004  1.7352  0.1976
  105MOL     C118929   3.711   0.409   3.355  0.0430  0.5710 -0.3743
  105MOL     C218930   3.825   0.434   3.450 -0.1716 -0.1634 -0.0868
  105MOL     C318931   3.769   0.427   3.593 -0.4865  0.1075 -0.4372
  105MOL     O418932   3.655   0.465   3.623  0.3174 -0.0330 -0.1760
  105MOL     O518933   3.854   0.368   3.681 -0.4299 -0.0178  0.0541
  105MOL     H618934   3.646   0.497   3.350 -0.4928  0.3097  1.6825
  105MOL     H718935   3.749   0.391   3.255  3.1107 -1.1343  1.0419
  105MOL     H818936   3.875   0.338   3.439  1.0002  0.3813  0.3670
  105MOL     H918937   3.813   0.373   3.766 -0.0563  0.0262  0.2336
  105MOL    H1018938   3.655   0.319   3.379 -0.3318  1.2165  1.2362
  105MOL    C1118939   3.915   0.552   3.425 -0.3665 -0.4901  0.5138
  105MOL    C1218940   4.068   0.526   3.409 -0.2276  0.3096 -0.0643
  105MOL    C1318941   4.144   0.657   3.447 -0.2168 -0.0164 -0.5393
  105MOL    O1418942   4.098   0.753   3.503  0.5683 -0.4118 -0.4372
  105MOL    O1518943   4.275   0.649   3.426 -0.0529  0.0565 -0.1067
  105MOL    H1618944   3.899   0.614   3.513 -0.3496  0.8606 -0.4212
  105MOL    H1718945   3.877   0.614   3.344 -3.0715 -1.7449  0.7789
  105MOL    H1818946   4.095   0.455   3.487 -0.9583 -0.8407 -0.8289
  105MOL    H1918947   4.318   0.719   3.473 -1.5164  1.3448 -0.6821
  105MOL    C2018948   4.103   0.473   3.263  0.3401 -0.0250 -0.2120
  105MOL    C2118949   4.231   0.394   3.254  0.3963 -0.0273 -0.0620
  105MOL    C2218950   4.283   0.406   3.105 -0.2461 -1.1059  0.2773
  105MOL    O2318951   4.261   0.323   3.018 -0.2161  0.1541 -0.0041
  105MOL    O2418952   4.374   0.509   3.081  0.0114 -0.3130 -0.2494
  105MOL    H2518953   4.108   0.548   3.185 -1.7356 -0.1836 -0.5229
  105MOL    H2618954   4.023   0.402   3.242  1.0106 -0.3309 -1.7473
  105MOL    H2718955   4.313   0.439   3.311  0.9238  0.7612 -1.4004
  105MOL    H2818956   4.424   0.489   3.004  1.2382  0.1632  0.4035
  105MOL    C2918957   4.199   0.248   3.296  0.3646  0.4777 -0.5404
  105MOL    C3018958   4.317   0.144   3.276  0.2481 -0.0277 -0.3417
  105MOL    C3118959   4.261   0.006   3.295 -0.2014 -0.7511  0.0413
  105MOL    O3218960   4.210   7.815   3.400  0.3806  0.4004  0.0152
  105MOL    O3318961   4.285   7.784   3.179  0.2250  0.1393 -0.1753
  105MOL    H3418962   4.120   0.216   3.228  1.3749  0.0426 -1.5376
  105MOL    H3518963   4.153   0.239   3.395 -0.9609 -1.6092 -1.3015
  105MOL    H3618964   4.360   0.149   3.176 -0.7324  1.5214 -0.7047
  105MOL    H3718965   4.338   7.835   3.120  0.8787  0.7375  0.9164
  105MOL    C3818966   4.429   0.185   3.382  0.2081 -0.3471  0.2257
  105MOL    C3918967   4.580   0.145   3.362 -0.3045 -0.3838  0.4945
  105MOL    C4018968   4.651   0.240   3.259  0.1208  0.2316  0.4863
  105MOL    O4118969   4.740   0.319   3.292 -0.3841  0.1250  0.1391
  105MOL    O4218970   4.605   0.221   3.137 -0.1706  0.3285  0.3291
  105MOL    H4318971   4.402   0.167   3.486 -1.5507  0.2397 -0.1091
  105MOL    H4418972   4.429   0.294   3.377  0.5437 -0.4287 -1.7704
  105MOL    H4518973   4.631   0.163   3.457 -0.0439  0.3149  0.2291
  105MOL    H4618974   4.664   0.276   3.087 -0.3345 -0.6993 -1.0179
  105MOL    C4718975   4.604   0.000   3.330 -0.1153  0.0143  0.1918
  105MOL    C4818976   4.741   7.781   3.384  0.4150  0.0036  0.5594
  105MOL    C4918977   4.855   7.787   3.278 -0.4823  0.3516  0.3260
  105MOL    O5018978   4.850   7.725   3.173  0.0022 -0.0930  0.2205
  105MOL    O5118979   4.961   0.008   3.317 -0.2475 -0.7786  0.5400
  105MOL    H5218980   4.592   7.839   3.223 -0.7695 -0.5350  0.3352
  105MOL    H5318981   4.528   7.799   3.386  1.6008 -0.6430  1.9271
  105MOL    H5418982   4.773   7.833   3.474 -2.5703  2.1116  0.4588
  105MOL    H5518983   5.018   0.016   3.242 -0.7577  2.3909  0.4030
  105MOL    C5618984   4.730   7.632   3.425 -0.5314  0.6254  0.1639
  105MOL    C5718985   4.798   7.588   3.558 -0.2683  0.3354  0.4317
  105MOL    C5818986   4.835   7.438   3.540  0.2647  0.6005  0.7510
  105MOL    O5918987   4.946   7.382   3.537  0.3659 -0.9329  0.2913
  105MOL    O6018988   4.721   7.363   3.543 -0.4617 -0.1993 -0.8911
  105MOL    H6118989   4.770   7.566   3.347  1.3173  0.1034  1.4937
  105MOL    H6218990   4.625   7.603   3.420 -0.4745  0.3710  0.4352
  105MOL    H6318991   4.888   7.646   3.581 -0.7331  1.1271  0.2936
  105MOL    H6418992   4.736   7.269   3.538  0.0986 -0.2317  0.9387
  105MOL    C6518993   4.686   7.606   3.665  0.2439 -0.3205 -0.5159
  105MOL    C6618994   4.689   7.737   3.748  0.4218 -0.5067 -0.2307
  105MOL    C6718995   4.812   7.751   3.836  0.5464  0.1482  0.0412
  105MOL    O6818996   4.891   7.665   3.860  0.2187  0.0953 -0.2780
  105MOL    O6918997   4.817   0.023   3.889 -0.4088 -0.1508  0.1335
  105MOL    H7018998   4.707   7.530   3.740  0.4037 -1.0604 -1.3027
  105MOL    H7118999   4.586   7.589   3.626 -0.4881  0.4741  0.9563
  105MOL    H7219000   4.691   7.816   3.672  1.6386 -0.2043  0.1039
  105MOL    H7319001   4.895   0.009   3.941  1.2764 -0.5726 -2.4163
  105MOL    C7419002   4.555   7.742   3.830 -0.3764  0.0387 -0.2624
  105MOL    C7519003   4.428   7.781   3.743  0.4118  0.1572 -0.7133
  105MOL    C7619004   4.404   0.083   3.751 -0.3691 -0.3255  0.0411
  105MOL    O7719005   4.497   0.163   3.773  0.2989  0.3188  0.5206
  105MOL    O7819006   4.276   0.115   3.719 -0.1285 -0.1800 -0.2815
  105MOL    H7919007   4.569   7.806   3.917  1.1654 -2.3702  1.3362
  105MOL    H8019008   4.537   7.648   3.883 -1.5789 -0.0730 -0.8545
  105MOL    H8119009   4.450   7.758   3.639 -2.2620 -1.9492 -0.8640
  105MOL    H8219010   4.255   0.207   3.710  0.3174  0.1551  1.8287
  105MOL    C8319011   4.302   7.698   3.786 -0.9214 -0.2497 -0.3479
  105MOL    C8419012   4.310   7.536   3.752  0.2438  0.0086 -0.2138
  105MOL    C8519013   4.303   7.503   3.604  0.6192 -0.3781 -0.0174
  105MOL    O8619014   4.234   7.411   3.565 -0.0963 -0.2362  0.3854
  105MOL    O8719015   4.393   7.560   3.517  0.0647 -0.1786 -0.4984
  105MOL    H8819016   4.210   7.728   3.737 -1.4050 -0.2017  0.5716
  105MOL    H8919017   4.287   7.709   3.894 -0.8641  0.7099 -0.4368
  105MOL    H9019018   4.411   7.508   3.782 -0.9991 -2.5945  1.7135
  105MOL    H9119019   4.364   7.529   3.433 -1.9013 -1.4766  0.6028
  105MOL    C9219020   4.209   7.444   3.830 -0.0062 -0.8697 -0.4327
  105MOL    C9319021   4.205   7.442   3.987 -0.5787 -0.5329  0.1538
  105MOL    C9419022   4.311   7.338   4.027  0.0268  0.3872  0.3601
  105MOL    O9519023   4.428   7.362   4.045 -0.1537  0.4176  0.3323
  105MOL    O9619024   4.266   7.209   4.014  0.1969  0.5131 -0.5722
  105MOL    H9719025   4.210   7.344   3.785 -1.1089 -2.7536  3.4772
  105MOL    H9819026   4.113   7.487   3.804  0.0309 -0.3078  0.3200
  105MOL    H9919027   4.230   7.541   4.026 -1.9598  0.0660 -0.4633
  105MOL   H10019028   4.335   7.147   4.031 -2.1096 -2.0691 -0.3927
  105MOL   C10119029   4.071   7.402   4.029  0.1178 -0.0576 -0.0133
  105MOL   C10219030   3.970   7.517   4.075 -0.7984 -0.6390 -0.3413
  105MOL   C10319031   3.981   7.538   4.222 -0.1970  0.4694 -0.4225
  105MOL   O10419032   3.912   7.490   4.311 -0.4347 -0.2882  0.2531
  105MOL   O10519033   4.090   7.616   4.249 -0.3308 -0.1732  0.0001
  105MOL   H10619034   4.087   7.343   4.120  0.2144  1.0132  0.6699
  105MOL   H10719035   4.026   7.324   3.968  0.5168  0.2354 -0.6820
  105MOL   H10819036   3.993   7.616   4.035 -2.9337 -0.3864 -0.9955
  105MOL   H10919037   4.077   7.623   4.343 -0.3483  1.6169 -0.1057
  105MOL   C11019038   3.838   7.478   4.028  0.2987  0.5908 -0.1836
  105MOL   C11119039   3.730   7.588   4.011  0.0294 -0.1546 -0.2277
  105MOL   C11219040   3.590   7.548   4.053  0.1748 -0.1570  0.1168
  105MOL   O11319041   3.492   7.546   3.977 -0.4283 -0.2094 -0.0907
  105MOL   O11419042   3.579   7.526   4.187 -0.1782 -0.0496  0.7388
  105MOL   H11519043   3.799   7.403   4.096  3.1157 -0.8238 -0.0740
  105MOL   H11619044   3.845   7.426   3.932 -0.3744 -1.3199  0.7966
  105MOL   H11719045   3.746   7.660   4.092  2.0436 -0.6873 -0.1298
  105MOL   H11819046   3.490   7.494   4.182 -0.0876 -0.0334 -2.1020
  105MOL   C11919047   3.717   7.670   3.881 -0.0834 -0.0913 -0.2364
  105MOL   C12019048   3.820   7.786   3.856  0.6789 -0.1516  0.6028
  105MOL   C12119049   3.814   0.031   3.978 -0.4037 -0.5374 -0.1692
  105MOL   O12219050   3.709   0.077   4.018  0.4145  0.0917 -0.3160
  105MOL   O12319051   3.931   0.034   4.049 -0.2951  0.0825 -0.6143
  105MOL   H12419052   3.624   7.722   3.857 -1.0767 -1.3272  0.8623
  105MOL   H12519053   3.734   7.595   3.805  0.1584 -1.7265  1.4061
  105MOL   H12619054   3.917   7.739   3.839 -0.0692 -1.5931  0.2566
  105MOL   H12719055   3.932   0.087   4.127  2.8105 -0.0932 -0.5041
  105MOL   C12819056   3.781   0.019   3.736 -0.3275  0.0627  0.5374
  105MOL   C12919057   3.786   7.805   3.592  0.1812 -0.0713  0.5211
  105MOL   C13019058   3.933   7.778   3.554 -0.5218 -0.2563  0.5557
  105MOL   O13119059   3.976   7.665   3.526 -0.7688  0.2459  0.6958
  105MOL   O13219060   3.996   0.046   3.532 -0.4453 -0.7759 -0.3145
  105MOL   H13319061   3.836   0.113   3.730 -0.8182  0.4650  2.1938
  105MOL   H13419062   3.677   0.051   3.743 -0.9932 -1.8942 -0.0444
  105MOL   H13519063   3.735   7.709   3.586  0.2960 -0.0897 -0.2085
  105MOL   H13619064   4.081   0.024   3.496 -0.9310 -0.7936 -1.4846
  105MOL   C13719065   3.704   0.040   3.489 -0.3182 -0.6762 -0.1452
  105MOL   C13819066   3.691   7.831   3.343 -0.4728 -0.2520  0.5713
  105MOL   C13919067   3.622   7.690   3.349 -0.3250 -0.6725  0.5058
  105MOL   O14019068   3.668   7.586   3.302  0.2293 -0.3113 -0.3362
  105MOL   O14119069   3.503   7.700   3.414  0.2519  0.2841  0.1022
  105MOL   H14219070   3.743   0.141   3.496 -4.7777  1.1407 -0.0500
  105MOL   H14319071   3.602   0.040   3.528  0.1717  2.2206  1.2894
  105MOL   H14419072   3.630   0.055   3.294 -0.2822  0.0035  0.7299
  105MOL   H14519073   3.456   7.620   3.432 -0.0464  0.8187  1.8259
  105MOL   C14619074   3.823   7.837   3.256 -0.0750 -0.0594 -0.2134
  105MOL   C14719075   3.804   0.012   3.107 -0.6569  0.0176 -0.3570
  105MOL   C14819076   3.930   7.818   3.029 -0.5327  0.2188  0.2721
  105MOL   O14919077   3.952   7.706   2.985 -0.2756 -0.1909 -0.4542
  105MOL   O15019078   4.031   0.055   3.024 -0.0561  0.3203  0.7277
  105MOL   H15119079   3.887   7.752   3.279 -0.2076 -0.3297 -0.8406
  105MOL   H15219080   3.881   0.072   3.283  0.5662 -0.0018 -1.7598
  105MOL   H15319081   3.713   7.818   3.069 -1.7376  0.3531  1.7639
  105MOL   H15419082   4.106   0.020   2.980 -0.5551  0.0801  0.0702
  105MOL   C15519083   3.777   0.161   3.082  0.5496 -0.1911 -0.7468
  105MOL   C15619084   3.778   0.221   2.937  0.3938  0.1895  0.9141
  105MOL   C15719085   3.770   0.373   2.948 -0.2127 -0.0899  0.6101
  105MOL   O15819086   3.660   0.434   2.943  0.2465 -0.1390 -0.5488
  105MOL   O15919087   3.890   0.425   2.953  0.1334  0.1663  0.0189
  105MOL   H16019088   3.854   0.209   3.143  0.3232 -1.3365  0.4693
  105MOL   H16119089   3.685   0.188   3.136  0.0328 -2.4302 -0.4630
  105MOL   H16219090   3.862   0.187   2.877 -2.0621 -2.3820 -1.2242
  105MOL   H16319091   3.881   0.518   2.934  3.0538  0.3194 -0.8633
  105MOL   C16419092   3.650   0.166   2.862 -0.2773  0.4939  0.0103
  105MOL   C16519093   3.629   0.222   2.719 -0.5160 -0.1515 -0.7810
  105MOL   C16619094   3.482   0.233   2.690 -0.1054  0.2504 -0.1156
  105MOL   O16719095   3.408   0.329   2.714 -0.1984 -0.0900 -0.4415
  105MOL   O16819096   3.438   0.120   2.626  0.1426  0.3340 -0.3740
  105MOL   H16919097   3.562   0.180   2.925 -1.3459 -1.3734 -1.0098
  105MOL   H17019098   3.653   0.058   2.860 -0.4891  0.4809  0.3640
  105MOL   H17119099   3.672   0.322   2.714 -0.4165 -0.2372 -1.7660
  105MOL   H17219100   3.354   0.140   2.589  0.5225 -0.0151 -1.4279
  105MOL   C17319101   3.708   0.137   2.616 -0.2428 -0.7411  0.8606
  105MOL   C17419102   3.710   0.183   2.469  0.6184 -0.0312  0.0297
  105MOL   C17519103   3.823   0.270   2.436  0.5244  0.0750 -1.0530
  105MOL   O17619104   3.926   0.281   2.504  0.2352  0.6734  0.1724
  105MOL   O17719105   3.807   0.328   2.312 -0.4140 -0.1701 -0.7462
  105MOL   H17819106   3.685   0.031   2.625 -2.5345 -0.5644 -2.3658
  105MOL   H17919107   3.813   0.129   2.646  0.1380  0.3589 -0.1549
  105MOL   H18019108   3.718   0.094   2.406  1.7173 -0.0307  0.1600
  105MOL   H18119109   3.867   0.399   2.301 -1.8990  0.7552 -3.2430
  105MOL   H18219110   3.617   0.237   2.457  0.6506  0.5825  2.4487
  106MOL     C119111   2.591   5.141   3.221  0.0930  0.2524  0.0492
  106MOL     C219112   2.562   5.163   3.069  0.7726 -0.2151  0.6506
  106MOL     C319113   2.626   5.061   2.977 -0.0089 -0.2003  0.7431
  106MOL     O419114   2.730   5.076   2.910 -0.0963 -0.2946 -0.4026
  106MOL     O519115   2.554   4.950   2.991  0.1908  0.4029  0.1238
  106MOL     H619116   2.562   5.041   3.253 -0.0525 -0.0189 -0.9115
  106MOL     H719117   2.695   5.161   3.247  0.5621 -2.4782  0.5194
  106MOL     H819118   2.458   5.157   3.038  0.1053  1.7674  2.3831
  106MOL     H919119   2.608   4.893   2.939  0.9134 -0.3693  1.6910
  106MOL    H1019120   2.533   5.210   3.282 -1.1498 -1.4973  0.8843
  106MOL    C1119121   2.597   5.305   3.034 -0.3237 -0.6106 -0.0814
  106MOL    C1219122   2.491   5.407   3.078 -0.2952 -0.2742  0.3817
  106MOL    C1319123   2.361   5.389   3.001  0.0911  0.7586 -0.8035
  106MOL    O1419124   2.253   5.374   3.058  0.4183 -0.0488 -0.5744
  106MOL    O1519125   2.368   5.413   2.865 -0.0096  0.5730 -0.9664
  106MOL    H1619126   2.612   5.306   2.926  1.8542 -1.1320  0.1839
  106MOL    H1719127   2.695   5.319   3.079 -0.5603 -0.9204  0.5369
  106MOL    H1819128   2.456   5.395   3.181 -0.2215 -0.4543  0.3866
  106MOL    H1919129   2.277   5.399   2.843  0.4956  0.9075 -3.3775
  106MOL    C2019130   2.545   5.552   3.052 -0.2083  0.1726  0.2294
  106MOL    C2119131   2.669   5.605   3.133  0.1456 -0.9592  0.2760
  106MOL    C2219132   2.652   5.582   3.287  0.3940 -0.2514  0.3957
  106MOL    O2319133   2.630   5.682   3.363 -0.0547  0.0250  0.4639
  106MOL    O2419134   2.665   5.449   3.323 -0.1131  0.3919  0.1239
  106MOL    H2519135   2.459   5.618   3.063  0.0230  0.8529 -1.8046
  106MOL    H2619136   2.567   5.562   2.946 -0.3295 -3.1115 -0.1352
  106MOL    H2719137   2.758   5.554   3.097  0.3357 -1.3167  1.2185
  106MOL    H2819138   2.686   5.424   3.412 -1.1659 -0.4009  0.1558
  106MOL    C2919139   2.692   5.758   3.095 -0.6942  0.5960  0.0467
  106MOL    C3019140   2.826   5.807   3.154 -0.2324  0.3953 -0.1592
  106MOL    C3119141   2.865   5.949   3.094 -0.5306  0.3147  0.0788
  106MOL    O3219142   2.805   6.007   3.010 -0.0066  0.6798 -0.1464
  106MOL    O3319143   2.983   5.997   3.146  0.2261  0.8349 -0.4898
  106MOL    H3419144   2.615   5.823   3.136 -1.0352 -0.0622  0.4678
  106MOL    H3519145   2.691   5.767   2.987  1.0840 -1.0644 -0.1442
  106MOL    H3619146   2.792   5.829   3.255  0.5395  0.5619  0.0720
  106MOL    H3719147   3.017   6.070   3.096 -0.0820  2.2397  1.2953
  106MOL    C3819148   2.950   5.711   3.162 -0.2468 -0.3307 -0.2025
  106MOL    C3919149   3.030   5.685   3.035  0.2388  0.2119 -0.5053
  106MOL    C4019150   2.948   5.583   2.956 -0.4417 -0.5701  0.4233
  106MOL    O4119151   2.879   5.619   2.868  0.1322 -0.9473 -0.2926
  106MOL    O4219152   2.954   5.457   2.991 -0.0381 -0.3737 -0.3432
  106MOL    H4319153   2.938   5.625   3.229  2.8239 -0.8067 -0.1828
  106MOL    H4419154   3.024   5.768   3.218 -0.2935  0.2505 -0.7319
  106MOL    H4519155   3.039   5.774   2.973  0.3313 -0.3454 -1.3006
  106MOL    H4619156   2.914   5.408   2.921  0.9109  0.6892 -1.6448
  106MOL    C4719157   3.176   5.645   3.065  0.0016  0.3941 -0.8952
  106MOL    C4819158   3.276   5.768   3.073  0.2738  0.4066 -0.6900
  106MOL    C4919159   3.300   5.841   2.942  0.9390  0.4715 -0.5816
  106MOL    O5019160   3.280   5.794   2.830 -0.3285 -0.1474  0.0379
  106MOL    O5119161   3.343   5.966   2.966 -0.5085 -1.0911 -0.0059
  106MOL    H5219162   3.194   5.590   2.973  2.0317  0.0048 -0.3011
  106MOL    H5319163   3.175   5.580   3.152  0.6078  1.9954  0.3305
  106MOL    H5419164   3.222   5.841   3.132  1.1882  1.5416 -1.2407
  106MOL    H5519165   3.342   6.016   2.886 -2.0106  0.5031  0.9495
  106MOL    C5619166   3.409   5.733   3.149  0.4609 -0.1057 -0.5687
  106MOL    C5719167   3.525   5.660   3.069  0.2026  0.0355  0.2250
  106MOL    C5819168   3.602   5.575   3.169 -0.3312 -0.4418 -0.1461
  106MOL    O5919169   3.692   5.625   3.228 -0.1221  0.0587 -0.5760
  106MOL    O6019170   3.550   5.458   3.186  0.2006 -0.0291  0.4144
  106MOL    H6119171   3.397   5.685   3.246  1.0550  0.1846 -0.3516
  106MOL    H6219172   3.437   5.835   3.175  0.9101 -0.4419  0.2900
  106MOL    H6319173   3.488   5.584   3.000  0.3039 -0.0493  0.2641
  106MOL    H6419174   3.601   5.404   3.245  0.6513  1.6937  1.6405
  106MOL    C6519175   3.624   5.751   2.987 -0.5093 -0.2798  0.5664
  106MOL    C6619176   3.624   5.712   2.839  0.1316  1.0179 -0.8239
  106MOL    C6719177   3.702   5.585   2.824  0.2262 -0.0801 -0.0492
  106MOL    O6819178   3.781   5.541   2.911  0.0264  0.4507 -0.0784
  106MOL    O6919179   3.680   5.525   2.705 -0.2476  0.1539 -0.1469
  106MOL    H7019180   3.723   5.762   3.031 -0.7032  0.6372  0.7937
  106MOL    H7119181   3.579   5.850   2.993  0.9430  0.4400 -0.1661
  106MOL    H7219182   3.525   5.688   2.802 -0.5036  0.0840  1.4106
  106MOL    H7319183   3.740   5.453   2.694 -0.7815 -0.1840 -0.8903
  106MOL    C7419184   3.683   5.832   2.753 -0.3062 -0.3025 -0.0443
  106MOL    C7519185   3.720   5.819   2.604 -0.3544  0.4326  0.5477
  106MOL    C7619186   3.813   5.939   2.576 -0.8783  0.3595  0.3505
  106MOL    O7719187   3.772   6.048   2.529  0.1298 -0.0849  0.2816
  106MOL    O7819188   3.942   5.908   2.592  0.3231  0.8495  0.0175
  106MOL    H7919189   3.773   5.872   2.800  0.3310 -0.3778 -1.1836
  106MOL    H8019190   3.612   5.914   2.762  0.3504  0.5208 -1.9593
  106MOL    H8119191   3.780   5.729   2.591 -0.9475 -0.1948  2.0644
  106MOL    H8219192   4.003   5.960   2.541  0.1917 -1.2127 -2.3583
  106MOL    C8319193   3.596   5.804   2.518  0.2611 -0.1093 -0.5978
  106MOL    C8419194   3.604   5.717   2.385 -0.0630 -0.5469 -0.6912
  106MOL    C8519195   3.664   5.801   2.273  0.2088 -0.5974 -0.6711
  106MOL    O8619196   3.588   5.869   2.197 -0.2112 -0.0872 -0.0963
  106MOL    O8719197   3.801   5.808   2.276  0.1812  0.5318 -0.0614
  106MOL    H8819198   3.558   5.903   2.493  0.3240 -0.3256 -1.5837
  106MOL    H8919199   3.516   5.762   2.580 -0.3563  1.4462 -0.3224
  106MOL    H9019200   3.673   5.634   2.403  0.4874  0.4328  1.9610
  106MOL    H9119201   3.835   5.871   2.214  1.7100  0.6847  0.9257
  106MOL    C9219202   3.464   5.653   2.348 -0.8697  0.0520 -0.1728
  106MOL    C9319203   3.450   5.511   2.413  0.0327 -0.5654  0.1835
  106MOL    C9419204   3.501   5.403   2.314  0.1916  0.3355 -0.4219
  106MOL    O9519205   3.590   5.321   2.341 -0.0035 -0.6131 -0.4447
  106MOL    O9619206   3.434   5.408   2.199 -0.1116 -0.7200 -0.1542
  106MOL    H9719207   3.445   5.652   2.240 -2.1583  0.4848  0.0421
  106MOL    H9819208   3.385   5.714   2.393 -0.0832 -1.2229  3.0380
  106MOL    H9919209   3.507   5.508   2.506 -0.3486  3.5311  0.6374
  106MOL   H10019210   3.473   5.346   2.139  0.0731  1.3078 -2.2334
  106MOL   C10119211   3.307   5.485   2.459  0.3255 -0.1691  0.0972
  106MOL   C10219212   3.266   5.342   2.499  1.0647  0.1101  0.1551
  106MOL   C10319213   3.220   5.259   2.379 -0.0261 -0.1586  0.2110
  106MOL   O10419214   3.292   5.170   2.332  0.7430  0.0465 -0.2695
  106MOL   O10519215   3.098   5.294   2.328  0.4059 -0.1905  0.2286
  106MOL   H10619216   3.244   5.508   2.373  0.9367 -1.8169 -0.8105
  106MOL   H10719217   3.281   5.557   2.537 -1.2431 -0.3268 -0.2680
  106MOL   H10819218   3.358   5.303   2.543  1.1538  2.4155  2.1223
  106MOL   H10919219   3.080   5.241   2.252 -0.8586  0.9790 -0.3141
  106MOL   C11019220   3.150   5.346   2.606 -0.3794  0.0832 -0.6481
  106MOL   C11119221   3.104   5.207   2.669  0.0043 -0.6331  0.1569
  106MOL   C11219222   2.962   5.196   2.717  0.3264  0.4837  0.0044
  106MOL   O11319223   2.897   5.293   2.764 -0.1951  0.1579  0.1898
  106MOL   O11419224   2.926   5.062   2.725 -0.0081 -0.2325 -0.4576
  106MOL   H11519225   3.057   5.388   2.567  0.1571  1.4677 -0.4717
  106MOL   H11619226   3.174   5.396   2.700  1.1347 -0.9587 -0.4637
  106MOL   H11719227   3.113   5.136   2.586 -0.5634  0.4726 -0.8780
  106MOL   H11819228   2.871   5.048   2.800 -1.3969  0.3653 -1.3344
  106MOL   C11919229   3.211   5.150   2.768  0.7563  0.0337 -0.0609
  106MOL   C12019230   3.208   5.217   2.909  0.1871 -0.3113 -0.7224
  106MOL   C12119231   3.342   5.285   2.968 -0.7633 -0.2385  0.1686
  106MOL   O12219232   3.438   5.313   2.905 -0.5470 -0.2914 -0.2071
  106MOL   O12319233   3.328   5.323   3.093 -0.2118 -0.0409  0.2769
  106MOL   H12419234   3.306   5.169   2.718  0.2987 -0.2460 -1.0525
  106MOL   H12519235   3.205   5.041   2.773  1.2811 -0.0622 -1.3523
  106MOL   H12619236   3.147   5.305   2.894 -1.0937 -0.5836  2.4808
  106MOL   H12719237   3.406   5.359   3.131 -0.0145  0.4176 -0.5544
  106MOL   C12819238   3.116   5.148   3.012 -0.6002  0.2070  0.3604
  106MOL   C12919239   3.148   5.008   3.083 -0.4033 -0.3077 -1.0565
  106MOL   C13019240   3.131   4.883   3.000  0.1513 -0.0665 -0.4539
  106MOL   O13119241   3.054   4.868   2.909 -0.0406  0.1245  0.1092
  106MOL   O13219242   3.222   4.793   3.044  0.8645 -0.0717 -0.2188
  106MOL   H13319243   3.015   5.151   2.970 -0.1695 -0.2177 -0.7138
  106MOL   H13419244   3.114   5.222   3.092 -0.9842 -1.4469  1.9085
  106MOL   H13519245   3.253   5.019   3.108 -0.8108 -0.0762  0.6089
  106MOL   H13619246   3.222   4.718   2.987 -0.4669 -1.1618  1.1489
  106MOL   C13719247   3.080   4.990   3.218 -0.1646  0.0506 -0.5702
  106MOL   C13819248   3.166   5.006   3.345  0.1604 -0.2140 -0.1247
  106MOL   C13919249   3.238   4.878   3.394 -0.7385 -0.0376  0.3851
  106MOL   O14019250   3.235   4.771   3.336 -0.6801  0.3174  0.2573
  106MOL   O14119251   3.318   4.911   3.498 -0.3327 -0.2093 -0.1150
  106MOL   H14219252   3.008   4.909   3.225 -2.1048  1.8366  0.6003
  106MOL   H14319253   3.009   5.073   3.225 -1.0021 -0.8343  1.6017
  106MOL   H14419254   3.254   5.064   3.320 -0.7409  1.6935  0.9869
  106MOL   H14519255   3.370   4.838   3.529  0.6026  0.3427 -0.3910
  106MOL   C14619256   3.101   5.074   3.467 -0.2372  0.2359 -0.4434
  106MOL   C14719257   3.096   5.223   3.480 -0.2041  0.1318 -0.1679
  106MOL   C14819258   2.987   5.290   3.396  0.0210 -0.7542 -0.2738
  106MOL   O14919259   2.998   5.342   3.284  0.3827  0.6090 -0.5882
  106MOL   O15019260   2.871   5.305   3.472 -0.3989 -0.6110  0.1691
  106MOL   H15119261   3.129   5.035   3.565 -1.5843 -0.0818 -0.1754
  106MOL   H15219262   3.000   5.034   3.459  0.3176 -1.3667  0.3033
  106MOL   H15319263   3.071   5.252   3.583 -0.0036 -0.3326  0.0114
  106MOL   H15419264   2.884   5.272   3.560 -1.4376 -2.7343 -0.4587
  106MOL   C15519265   3.237   5.296   3.458  0.7537  0.2273 -0.9021
  106MOL   C15619266   3.313   5.341   3.587  0.2664 -0.3594  0.0458
  106MOL   C15719267   3.413   5.450   3.561  0.6080  0.0879  0.5218
  106MOL   O15819268   3.538   5.437   3.569  0.7143  0.1718 -0.6562
  106MOL   O15919269   3.354   5.560   3.512  0.3162  0.4985 -0.0867
  106MOL   H16019270   3.215   5.386   3.399  0.7210  1.0199  0.3087
  106MOL   H16119271   3.314   5.254   3.393  2.1215  0.0460  0.8149
  106MOL   H16219272   3.243   5.386   3.657  0.3206  0.7008 -0.5826
  106MOL   H16319273   3.420   5.625   3.496 -0.7159  1.3813 -0.8905
  106MOL   C16419274   3.373   5.213   3.658  0.2457 -0.3560 -0.2945
  106MOL   C16519275   3.411   5.251   3.809 -0.1417 -0.6397  0.1145
  106MOL   C16619276   3.523   5.160   3.856  0.2791  0.5088 -0.7887
  106MOL   O16719277   3.527   5.040   3.845  0.2854  0.2883 -0.0045
  106MOL   O16819278   3.627   5.237   3.907  0.5377 -0.4277 -0.3377
  106MOL   H16919279   3.460   5.181   3.601 -0.5622 -1.5395 -0.8694
  106MOL   H17019280   3.298   5.135   3.649 -1.6113  1.3505  0.0924
  106MOL   H17119281   3.454   5.351   3.810  0.1984 -0.7481 -1.3105
  106MOL   H17219282   3.615   5.328   3.885  1.7189 -0.6806 -2.1195
  106MOL   C17319283   3.280   5.253   3.900 -0.3869  0.6017  0.4391
  106MOL   C17419284   3.308   5.320   4.035  0.0114  0.2459 -0.7313
  106MOL   C17519285   3.327   5.477   4.013  0.4974 -0.2557 -0.3033
  106MOL   O17619286   3.305   5.532   3.907  0.0728 -0.2418  0.5225
  106MOL   O17719287   3.389   5.543   4.120  0.5191  0.0250  0.1925
  106MOL   H17819288   3.235   5.156   3.922 -2.8291  1.4895 -0.3886
  106MOL   H17919289   3.210   5.311   3.839  0.7127  1.1731 -0.3004
  106MOL   H18019290   3.220   5.310   4.099  0.6228  0.0751  0.0977
  106MOL   H18119291   3.392   5.487   4.195 -1.0648  0.9678  0.9922
  106MOL   H18219292   3.392   5.276   4.090 -0.1781 -0.3073 -0.8888
  107MOL     C119293   0.255   0.507   0.421  0.4483  0.3996  0.1050
  107MOL     C219294   0.187   0.397   0.501 -0.3784  0.2005 -0.0937
  107MOL     C319295   0.035   0.370   0.473  0.4759  1.1358  0.3854
  107MOL     O419296   7.803   0.364   0.557 -0.0767 -0.0354  0.2850
  107MOL     O519297   0.008   0.359   0.339  0.2925 -0.2923  0.1457
  107MOL     H619298   0.263   0.599   0.480  2.2147  0.6750 -0.5607
  107MOL     H719299   0.348   0.483   0.370  0.7021 -1.8406  1.5720
  107MOL     H819300   0.223   0.297   0.476 -1.5682  0.3038 -2.3974
  107MOL     H919301   7.767   0.355   0.328  0.2758  0.7454 -0.1409
  107MOL    H1019302   0.194   0.555   0.344  1.0496  0.1783 -0.5053
  107MOL    C1119303   0.227   0.414   0.648  0.0050 -0.5741 -0.0551
  107MOL    C1219304   0.374   0.387   0.693 -0.6966 -0.6276  0.5099
  107MOL    C1319305   0.377   0.331   0.836  0.1647  0.3605  0.0177
  107MOL    O1419306   0.413   0.395   0.935 -0.7379  0.2634  0.3797
  107MOL    O1519307   0.346   0.197   0.836 -0.0632 -0.2431  0.6917
  107MOL    H1619308   0.164   0.345   0.705  0.9075 -1.7293 -0.4364
  107MOL    H1719309   0.189   0.512   0.677  0.3766 -0.4780  0.1085
  107MOL    H1819310   0.407   0.311   0.623 -2.6543  0.0562 -1.2108
  107MOL    H1919311   0.360   0.177   0.927  2.2396 -1.6215  0.0630
  107MOL    C2019312   0.462   0.520   0.685  0.0710  0.6468 -0.2275
  107MOL    C2119313   0.613   0.505   0.699  0.6723  0.3694  0.1706
  107MOL    C2219314   0.661   0.531   0.845 -0.0845  0.4028  0.5048
  107MOL    O2319315   0.697   0.442   0.925 -0.1172 -0.4574 -0.4281
  107MOL    O2419316   0.660   0.661   0.877  0.0663 -0.1572  0.6594
  107MOL    H2519317   0.425   0.591   0.759  0.5871  1.3355 -0.6205
  107MOL    H2619318   0.454   0.572   0.589  2.0781  1.2182 -0.1122
  107MOL    H2719319   0.638   0.399   0.690  2.0466  0.8082 -1.2919
  107MOL    H2819320   0.679   0.686   0.967  1.7373  0.7519  0.0779
  107MOL    C2919321   0.700   0.584   0.598  0.8510  0.2303  0.2986
  107MOL    C3019322   0.682   0.529   0.450  0.7623 -0.2231 -0.4389
  107MOL    C3119323   0.774   0.407   0.428  0.3327 -0.5372  0.1166
  107MOL    O3219324   0.748   0.301   0.475 -0.2994 -0.3237  0.2598
  107MOL    O3319325   0.892   0.437   0.365  0.1244 -0.3513  0.0085
  107MOL    H3419326   0.805   0.583   0.630  0.4221 -2.0595  1.7344
  107MOL    H3519327   0.649   0.680   0.606 -1.3803 -0.9399  0.4969
  107MOL    H3619328   0.585   0.485   0.428  1.4956 -1.5583 -1.1027
  107MOL    H3719329   0.959   0.370   0.361 -0.0474 -0.5270  0.0582
  107MOL    C3819330   0.705   0.638   0.345  0.1619 -0.0821 -0.3789
  107MOL    C3919331   0.694   0.602   0.196  0.1510 -0.5180 -0.5442
  107MOL    C4019332   0.719   0.724   0.112  0.1255  0.6632 -0.8766
  107MOL    O4119333   0.831   0.747   0.061  0.2651 -0.0282 -0.1415
  107MOL    O4219334   0.618   0.817   0.119  0.4214 -0.0993 -0.1485
  107MOL    H4319335   0.810   0.667   0.352  0.1494  0.0385 -0.6798
  107MOL    H4419336   0.650   0.730   0.366  1.6305  0.7766 -0.1934
  107MOL    H4519337   0.781   0.539   0.175 -0.8049 -1.7620 -0.7764
  107MOL    H4619338   0.653   0.892   0.073  1.2280 -0.3152  0.1232
  107MOL    C4719339   0.566   0.527   0.150 -0.4928  0.3735  0.1757
  107MOL    C4819340   0.590   0.441   0.025  0.2984  0.3599 -1.1316
  107MOL    C4919341   0.471   0.392   7.799  0.2031  0.4696  0.2213
  107MOL    O5019342   0.364   0.359   0.001 -0.4139  0.0455  0.1367
  107MOL    O5119343   0.490   0.392   7.662  0.0226 -0.0544  0.2181
  107MOL    H5219344   0.499   0.607   0.119  0.3194  0.0781 -2.4695
  107MOL    H5319345   0.524   0.481   0.239  1.1422  0.6715  1.1191
  107MOL    H5419346   0.648   0.497   7.804 -1.1587  3.6354  0.1315
  107MOL    H5519347   0.412   0.366   7.615 -0.9349  1.5175  0.8588
  107MOL    C5619348   0.671   0.318   0.069 -0.1255  0.5885  0.6705
  107MOL    C5719349   0.797   0.282   7.831 -0.0768 -0.0845 -0.6533
  107MOL    C5819350   0.903   0.394   7.805 -0.3669 -0.2184  0.3089
  107MOL    O5919351   0.915   0.438   7.690  0.3098 -0.3051 -0.5782
  107MOL    O6019352   0.978   0.426   0.062  0.1209 -0.4018  0.2248
  107MOL    H6119353   0.606   0.231   0.069  0.6335  0.0110  0.8275
  107MOL    H6219354   0.700   0.337   0.173 -0.6171 -1.4010  1.2003
  107MOL    H6319355   0.844   0.206   0.041  0.9112 -0.4507 -1.8162
  107MOL    H6419356   1.025   0.507   0.046  0.8503 -0.5629  1.5829
  107MOL    C6519357   0.747   0.209   7.705  0.3981  0.4043  0.2010
  107MOL    C6619358   0.837   0.095   7.651 -0.0801  0.3615 -0.6711
  107MOL    C6719359   0.904   0.129   7.511 -0.1773  0.2339 -0.2339
  107MOL    O6819360   0.913   0.044   7.423  0.2939  0.1847 -0.0299
  107MOL    O6919361   0.956   0.253   7.506 -0.5671 -0.1175  0.1193
  107MOL    H7019362   0.723   0.287   7.633 -1.1956  0.8990  1.2394
  107MOL    H7119363   0.655   0.157   7.733  0.3506  0.4866  0.1961
  107MOL    H7219364   0.926   0.094   7.713 -0.5970  1.8625  0.1153
  107MOL    H7319365   0.942   0.301   7.586 -1.0975 -0.4644  0.2360
  107MOL    C7419366   0.770   7.804   7.654  0.2595  0.5708 -0.3510
  107MOL    C7519367   0.817   7.717   7.766  0.6009 -0.1336  0.4502
  107MOL    C7619368   0.786   7.791   0.046  0.8899  0.1691 -0.4509
  107MOL    O7719369   0.871   7.845   0.115  0.4947  0.0509  0.3596
  107MOL    O7819370   0.652   7.787   0.073  0.1122  0.1660  0.2815
  107MOL    H7919371   0.778   7.743   7.564  1.5969 -0.5618  0.5188
  107MOL    H8019372   0.662   7.812   7.662  0.3682  0.4845  1.3721
  107MOL    H8119373   0.757   7.627   7.752  1.0367 -0.5504  1.2287
  107MOL    H8219374   0.628   7.835   0.151  0.0971 -0.1346  0.4606
  107MOL    C8319375   0.964   7.683   7.756 -0.1010 -0.2869  0.4539
  107MOL    C8419376   1.026   7.627   7.619  0.3795 -0.6906 -0.1240
  107MOL    C8519377   0.966   7.492   7.579 -0.4771  0.0478  0.2131
  107MOL    O8619378   0.929   7.469   7.467  0.0171  0.0349 -0.4796
  107MOL    O8719379   0.983   7.402   7.684  0.6752  0.7590 -0.4469
  107MOL    H8819380   0.964   7.599   7.826  2.2632  0.1284  0.9813
  107MOL    H8919381   1.015   7.770   7.796 -1.9059  0.8881  0.2441
  107MOL    H9019382   1.015   7.704   7.543 -1.1321 -0.1522  0.6098
  107MOL    H9119383   0.954   7.320   7.646  2.6789  0.5960 -1.6783
  107MOL    C9219384   1.184   7.609   7.636  0.6128 -0.0691 -0.3396
  107MOL    C9319385   1.269   7.738   7.660 -0.9107 -0.0452 -0.2273
  107MOL    C9419386   1.307   7.820   7.541  0.1212  0.2960 -1.0836
  107MOL    O9519387   1.353   7.772   7.433  0.1124 -0.3111  0.2111
  107MOL    O9619388   1.305   0.102   7.564  0.4392  0.6159  0.0746
  107MOL    H9719389   1.213   7.557   7.544  1.0664 -0.8762  0.2521
  107MOL    H9819390   1.208   7.544   7.720  0.7894  1.5482  0.9046
  107MOL    H9919391   1.204   7.808   7.714 -0.9480 -1.3542  1.4826
  107MOL   H10019392   1.326   0.151   7.486  0.3374 -0.9960 -0.9860
  107MOL   C10119393   1.390   7.702   7.747  0.1583 -0.9607  0.8722
  107MOL   C10219394   1.492   7.808   7.805 -0.5326  0.6444 -0.0593
  107MOL   C10319395   1.638   7.758   7.783  0.1740  0.0182 -0.2597
  107MOL   O10419396   1.728   7.837   7.747 -0.3350  0.0647  0.2396
  107MOL   O10519397   1.653   7.628   7.808 -0.2534  0.1893  0.0529
  107MOL   H10619398   1.446   7.635   7.681 -0.1285 -1.4079  1.0824
  107MOL   H10719399   1.352   7.641   7.829 -0.1011 -0.3481  1.2063
  107MOL   H10819400   1.485   0.042   7.740  0.9812 -0.8410 -2.3076
  107MOL   H10919401   1.741   7.598   7.789  0.6167  0.5118  3.3031
  107MOL   C11019402   1.462   7.835   0.098  0.0280 -0.2764 -1.0608
  107MOL   C11119403   1.313   0.025   0.137  1.2563  0.1270  0.2774
  107MOL   C11219404   1.280   0.166   0.084 -0.0922 -0.3389  0.4504
  107MOL   O11319405   1.335   0.272   0.117  0.4043 -0.1408  0.1989
  107MOL   O11419406   1.190   0.158   7.837  0.4118  0.0207  0.3770
  107MOL   H11519407   1.532   0.055   0.138  2.3114 -3.8981  1.8515
  107MOL   H11619408   1.482   7.737   0.142  0.0184 -0.1432 -0.7604
  107MOL   H11719409   1.253   7.802   0.087 -0.9164  0.4384  2.3511
  107MOL   H11819410   1.191   0.243   7.797  1.4528  1.2227  2.8405
  107MOL   C11919411   1.285   0.011   0.294  0.3158 -0.2768  0.1644
  107MOL   C12019412   1.144   7.836   0.325  0.4504 -0.2242 -0.1145
  107MOL   C12119413   1.071   0.110   0.350 -1.0724 -0.5758 -0.2189
  107MOL   O12219414   1.124   0.221   0.348 -0.5507  0.2904  0.2248
  107MOL   O12319415   0.932   0.102   0.363 -0.2992  0.5069 -0.2498
  107MOL   H12419416   1.332   0.090   0.352 -1.6694  0.3553  0.9438
  107MOL   H12519417   1.341   7.778   0.333 -0.3107 -0.7988 -0.0721
  107MOL   H12619418   1.106   7.794   0.232  0.9870 -0.3657 -0.2714
  107MOL   H12719419   0.890   0.019   0.379 -1.6344  1.3562  0.7762
  107MOL   C12819420   1.124   7.740   0.447  0.0914 -0.1213 -0.1794
  107MOL   C12919421   1.054   7.606   0.402  0.2569 -0.7255 -0.3267
  107MOL   C13019422   0.905   7.618   0.367  0.6102 -0.0856 -0.7594
  107MOL   O13119423   0.826   7.698   0.419 -0.0010 -0.2506 -0.4445
  107MOL   O13219424   0.877   7.537   0.266 -0.0554 -0.5123  0.6380
  107MOL   H13319425   1.060   7.788   0.522  2.2092  0.2270  1.4798
  107MOL   H13419426   1.213   7.718   0.506  1.7487  1.3359 -2.0690
  107MOL   H13519427   1.105   7.581   0.309  0.4494 -1.5349 -0.0092
  107MOL   H13619428   0.789   7.555   0.236 -0.1570  1.6274  2.0960
  107MOL   C13719429   1.084   7.498   0.510  0.0972  0.6307 -0.3337
  107MOL   C13819430   1.092   7.350   0.472  0.0546  0.4288  0.3481
  107MOL   C13919431   1.178   7.328   0.344  0.3341 -0.0363  0.1056
  107MOL   O14019432   1.125   7.291   0.236  0.2963  0.2370  0.4522
  107MOL   O14119433   1.307   7.361   0.354  0.0893 -0.0313  0.5539
  107MOL   H14219434   1.002   7.502   0.581 -1.1939 -1.7630 -1.6319
  107MOL   H14319435   1.173   7.527   0.566 -0.8537  1.4798  0.7628
  107MOL   H14419436   1.149   7.304   0.553 -0.6339  1.7264  1.6003
  107MOL   H14519437   1.353   7.349   0.272  0.2399 -0.1348  0.6536
  107MOL   C14619438   0.955   7.286   0.468 -0.0010  0.1258 -0.4367
  107MOL   C14719439   0.941   7.131   0.451 -0.8100  0.6257  0.2120
  107MOL   C14819440   0.796   7.087   0.431  0.1047 -0.8370 -0.2774
  107MOL   O14919441   0.717   7.062   0.526 -1.2112  0.5726 -0.4373
  107MOL   O15019442   0.752   7.101   0.299  0.2203 -0.0003 -0.0793
  107MOL   H15119443   0.899   7.329   0.384 -1.0167 -2.3899 -1.1014
  107MOL   H15219444   0.890   7.316   0.550 -1.2449 -1.5034 -0.7993
  107MOL   H15319445   1.003   7.093   0.369  0.6006  0.3003  1.4032
  107MOL   H15419446   0.825   7.124   0.242  0.3798  0.2119  0.2094
  107MOL   C15519447   1.006   7.054   0.566  0.3449  0.0918 -0.1363
  107MOL   C15619448   1.034   6.897   0.536 -1.2245  0.3060  0.5205
  107MOL   C15719449   1.081   6.844   0.675 -0.2143 -0.5417  0.2247
  107MOL   O15819450   1.181   6.883   0.737  0.0102  0.0383  0.4054
  107MOL   O15919451   0.991   6.759   0.725 -0.0468 -0.4445 -0.0434
  107MOL   H16019452   0.935   7.059   0.648 -0.5767  1.3662 -0.9938
  107MOL   H16119453   1.097   7.098   0.607  1.0413 -1.8740  0.4927
  107MOL   H16219454   0.941   6.844   0.513  0.2890 -1.8335 -0.7536
  107MOL   H16319455   1.011   6.724   0.810 -0.4725  2.4630  1.3014
  107MOL   C16419456   1.152   6.875   0.427 -0.0255  0.4218  0.7683
  107MOL   C16519457   1.097   6.810   0.292  0.6227 -0.1639 -0.5164
  107MOL   C16619458   1.077   6.662   0.310  0.2310  0.0718 -0.3106
  107MOL   O16719459   1.147   6.577   0.253  0.2573 -0.4825  0.0277
  107MOL   O16819460   0.979   6.630   0.400  0.1158 -0.8022 -0.2246
  107MOL   H16919461   1.232   6.808   0.457 -0.7114 -1.0154 -0.5194
  107MOL   H17019462   1.203   6.968   0.402 -1.8408  1.1829 -0.2194
  107MOL   H17119463   0.998   6.852   0.277 -0.0812 -0.2957  3.4179
  107MOL   H17219464   0.977   6.536   0.408 -1.3522 -0.5867  2.5510
  107MOL   C17319465   1.188   6.832   0.170  0.3866 -0.5424 -0.5617
  107MOL   C17419466   1.189   6.977   0.122 -0.7329 -0.5166  0.5040
  107MOL   C17519467   1.069   7.001   0.038  0.4191  0.0973  0.1846
  107MOL   O17619468   0.960   7.024   0.084  0.3418 -0.1720  0.0699
  107MOL   O17719469   1.089   6.991   7.756  0.6096  0.7906  0.6353
  107MOL   H17819470   1.169   6.762   0.089  0.7448 -0.3586 -0.8089
  107MOL   H17919471   1.290   6.811   0.203  0.5539 -0.8896 -1.2800
  107MOL   H18019472   1.199   7.056   0.196 -0.5615 -0.5715  0.5409
  107MOL   H18119473   1.005   7.013   7.718  0.6902  0.5787  0.3289
  107MOL   H18219474   1.268   7.001   0.051 -1.7001  2.3598  0.3580
  108MOL     C119475   3.316   0.828   7.648  0.4065 -0.6298  0.1523
  108MOL     C219476   3.385   0.720   7.564  0.0000 -0.7667 -0.2340
  108MOL     C319477   3.325   0.578   7.598  0.3487 -0.8233 -0.1272
  108MOL     O419478   3.374   0.506   7.682 -0.1482  0.1810  0.4513
  108MOL     O519479   3.211   0.557   7.527  0.3061  0.4438  0.1167
  108MOL     H619480   3.209   0.814   7.665  0.5307  0.8396  2.4248
  108MOL     H719481   3.356   0.828   7.750 -0.1160 -0.0358  0.3641
  108MOL     H819482   3.363   0.754   7.463 -1.6271  0.7974  0.6092
  108MOL     H919483   3.157   0.488   7.564 -1.6883  2.3989  0.9552
  108MOL    H1019484   3.324   0.925   7.599 -1.8121 -0.3761  0.2269
  108MOL    C1119485   3.540   0.731   7.582 -1.0998  0.1516 -0.0968
  108MOL    C1219486   3.628   0.635   7.490 -0.4594  0.0268  0.0348
  108MOL    C1319487   3.742   0.582   7.577  0.4081 -0.4114 -0.2417
  108MOL    O1419488   3.753   0.465   7.613  0.3952 -0.6007  0.0209
  108MOL    O1519489   3.825   0.681   7.617  0.8177  0.2698  0.3437
  108MOL    H1619490   3.557   0.710   7.688 -1.4651  0.4842  0.0274
  108MOL    H1719491   3.551   0.837   7.561  0.2362 -0.0712 -0.5425
  108MOL    H1819492   3.575   0.541   7.473 -1.1897  0.6963 -1.5569
  108MOL    H1919493   3.889   0.646   7.676  0.3472 -1.2675 -0.0465
  108MOL    C2019494   3.682   0.690   7.358  0.1028 -0.5070  0.4084
  108MOL    C2119495   3.578   0.736   7.252  0.4873  0.1421  0.5879
  108MOL    C2219496   3.474   0.632   7.212 -0.1060 -0.2999 -0.8510
  108MOL    O2319497   3.357   0.665   7.205 -0.0854 -0.1287 -0.0787
  108MOL    O2419498   3.523   0.510   7.183  0.0963  0.3883 -0.0232
  108MOL    H2519499   3.729   0.602   7.314 -1.2558 -1.5036  0.9300
  108MOL    H2619500   3.768   0.756   7.362  0.4225 -0.8484 -0.7197
  108MOL    H2719501   3.526   0.815   7.306 -1.2246 -0.7970  0.3403
  108MOL    H2819502   3.617   0.504   7.196 -0.2118 -0.0526  2.3252
  108MOL    C2919503   3.637   0.797   7.123 -1.0733  0.5400  0.9347
  108MOL    C3019504   3.629   0.950   7.104  0.1858 -0.4755 -0.5145
  108MOL    C3119505   3.587   0.998   6.957  0.0791  0.3929  0.3232
  108MOL    O3219506   3.663   1.001   6.863 -0.2126 -0.6870 -0.7848
  108MOL    O3319507   3.451   1.031   6.949  0.1631 -0.7168  0.3136
  108MOL    H3419508   3.600   0.749   7.032  0.3245 -0.7436  1.0195
  108MOL    H3519509   3.742   0.771   7.112 -1.3402 -0.6181  1.1062
  108MOL    H3619510   3.546   0.981   7.169  2.2706  3.0700  0.5808
  108MOL    H3719511   3.441   1.030   6.855  1.5578 -2.9582  0.1459
  108MOL    C3819512   3.757   1.027   7.164 -0.9106 -0.8006  0.1366
  108MOL    C3919513   3.738   1.172   7.216  0.0675 -0.4900  0.2808
  108MOL    C4019514   3.730   1.276   7.105 -0.3164  0.1046  0.4201
  108MOL    O4119515   3.764   1.258   6.984  0.2311  0.2239  0.7888
  108MOL    O4219516   3.672   1.391   7.154  0.1684 -0.3259 -0.6132
  108MOL    H4319517   3.830   1.035   7.084 -0.3932  0.3890  0.7165
  108MOL    H4419518   3.810   0.963   7.235 -1.1537 -1.2059 -0.0438
  108MOL    H4519519   3.639   1.177   7.262 -1.5136 -1.5769 -2.8855
  108MOL    H4619520   3.666   1.463   7.093  1.9855  1.5955  1.3730
  108MOL    C4719521   3.853   1.217   7.314 -0.0013  0.4483  1.0257
  108MOL    C4819522   3.849   1.208   7.468 -0.3259  0.4438  0.0845
  108MOL    C4919523   3.815   1.066   7.507  0.5173 -0.1197 -0.2122
  108MOL    O5019524   3.702   1.028   7.534 -0.2429 -0.3052 -0.8299
  108MOL    O5119525   3.922   0.992   7.528  0.2439  0.3125  0.2172
  108MOL    H5219526   3.894   1.317   7.298  0.6986 -0.1633 -1.2044
  108MOL    H5319527   3.939   1.163   7.275  0.6444  0.5091  2.3499
  108MOL    H5419528   3.951   1.217   7.504 -0.1838  4.7886 -1.1259
  108MOL    H5519529   3.896   0.906   7.556 -1.4793  0.8233  0.2237
  108MOL    C5619530   3.759   1.316   7.527 -0.3467 -0.0737  0.0897
  108MOL    C5719531   3.804   1.411   7.645 -0.8555  0.0484  0.2714
  108MOL    C5819532   3.693   1.438   7.747  0.1993  0.2006  0.2689
  108MOL    O5919533   3.575   1.463   7.716 -0.4179 -0.3468  0.9157
  108MOL    O6019534   3.732   1.423   0.019 -0.3705  0.3772  0.2280
  108MOL    H6119535   3.676   1.262   7.573 -0.9354  1.0039  0.3098
  108MOL    H6219536   3.701   1.372   7.452  0.7580 -0.5603 -1.1439
  108MOL    H6319537   3.883   1.366   7.704 -1.6340  1.2235  2.2729
  108MOL    H6419538   3.657   1.422   0.077 -0.0816 -1.7732  0.6211
  108MOL    C6519539   3.871   1.541   7.587 -0.5099 -0.3192  0.1253
  108MOL    C6619540   3.974   1.623   7.672  0.5612 -0.4254 -0.5178
  108MOL    C6719541   3.911   1.718   7.776 -0.3780  0.1325 -0.4711
  108MOL    O6819542   3.800   1.768   7.772 -0.5890  0.3494 -0.1545
  108MOL    O6919543   3.987   1.727   0.039 -0.0771 -0.3085 -0.0082
  108MOL    H7019544   3.798   1.605   7.537  0.8047  0.5226 -0.7459
  108MOL    H7119545   3.931   1.498   7.508  2.0951  1.0722  1.2888
  108MOL    H7219546   4.042   1.552   7.719 -0.5076 -1.1288 -0.0206
  108MOL    H7319547   3.941   1.752   0.118 -2.0955 -1.4168 -0.7921
  108MOL    C7419548   4.050   1.713   7.570 -0.0653  0.2010  0.1168
  108MOL    C7519549   4.177   1.783   7.621 -0.1281 -0.6362 -0.4045
  108MOL    C7619550   4.211   1.905   7.539 -0.3419 -0.1322  0.3880
  108MOL    O7719551   4.165   1.917   7.426  0.3403  0.3511  0.2616
  108MOL    O7819552   4.303   1.988   7.595 -0.7058 -0.5065 -0.5464
  108MOL    H7919553   3.976   1.787   7.540  0.6103  0.9946  0.4026
  108MOL    H8019554   4.068   1.654   7.480  0.8790 -0.9972  1.0886
  108MOL    H8119555   4.152   1.818   7.721 -1.8561 -2.3907 -0.1875
  108MOL    H8219556   4.309   2.066   7.540  0.7370 -0.2662 -0.0639
  108MOL    C8319557   4.294   1.676   7.616 -0.6601  0.0843 -0.0808
  108MOL    C8419558   4.412   1.709   7.713  0.7115 -0.6244  0.3088
  108MOL    C8519559   4.541   1.634   7.687  1.2690  0.0728 -0.0707
  108MOL    O8619560   4.639   1.700   7.659 -0.1196 -0.1814  0.0388
  108MOL    O8719561   4.539   1.499   7.701 -1.1666 -0.5233  0.2774
  108MOL    H8819562   4.328   1.664   7.514 -1.1984 -0.4495 -0.1976
  108MOL    H8919563   4.257   1.578   7.644  0.2685 -0.4427 -0.7101
  108MOL    H9019564   4.436   1.814   7.697 -2.5383  0.1151 -0.1057
  108MOL    H9119565   4.622   1.455   7.689 -0.8523 -0.1496  1.0728
  108MOL    C9219566   4.366   1.687   0.003  0.1096 -0.5340 -0.4661
  108MOL    C9319567   4.443   1.754   0.114 -0.4896 -0.6891  0.1779
  108MOL    C9419568   4.360   1.757   0.235 -0.2475  0.0844 -0.7018
  108MOL    O9519569   4.393   1.704   0.340 -0.0261  0.1716  0.3615
  108MOL    O9619570   4.256   1.845   0.226 -0.3299  0.0065 -0.0430
  108MOL    H9719571   4.359   1.580   0.021 -1.0945 -0.4518 -0.4360
  108MOL    H9819572   4.260   1.710   0.012  0.2273 -0.6520  1.4069
  108MOL    H9919573   4.534   1.696   0.126  0.9224  1.5373  0.3411
  108MOL   H10019574   4.209   1.831   0.306 -0.6661 -0.8640 -0.3915
  108MOL   C10119575   4.489   1.895   0.068  0.0482 -0.5106 -0.3627
  108MOL   C10219576   4.550   1.992   0.175 -0.1742 -0.4992  0.4793
  108MOL   C10319577   4.510   2.128   0.118 -0.3890 -0.1305 -0.1650
  108MOL   O10419578   4.588   2.183   0.037  0.0254 -0.3045 -0.0854
  108MOL   O10519579   4.400   2.183   0.174  0.0070  0.3952  0.0827
  108MOL   H10619580   4.407   1.936   0.010 -1.0903 -0.1315  1.4695
  108MOL   H10719581   4.572   1.877   7.853 -1.2098 -1.4589 -1.6483
  108MOL   H10819582   4.504   1.983   0.273 -2.5180 -0.7733 -0.6117
  108MOL   H10919583   4.388   2.274   0.152 -2.0534 -0.6223 -3.3174
  108MOL   C11019584   4.702   1.969   0.201  0.7592 -0.1306  0.1471
  108MOL   C11119585   4.757   2.017   0.338  0.0060 -0.1257  0.0104
  108MOL   C11219586   4.685   1.953   0.453  0.7710  0.0180 -0.6044
  108MOL   O11319587   4.651   2.009   0.558  0.4519  0.2506 -0.3486
  108MOL   O11419588   4.669   1.815   0.433 -0.3492  0.1749 -0.1721
  108MOL   H11519589   4.766   2.003   0.119  1.3084 -0.6581  0.3522
  108MOL   H11619590   4.717   1.861   0.193 -0.0464 -0.3011  0.8915
  108MOL   H11719591   4.860   1.981   0.337  1.0421  2.6831 -0.2622
  108MOL   H11819592   4.612   1.791   0.504 -0.0680  0.9306  0.3160
  108MOL   C11919593   4.757   2.174   0.340 -0.1696 -0.0144 -0.4480
  108MOL   C12019594   4.868   2.248   0.420  0.4208  0.0381  0.2081
  108MOL   C12119595   5.005   2.222   0.353 -0.3437 -0.5317 -0.6901
  108MOL   O12219596   5.089   2.148   0.398 -0.3914  0.1767  0.0463
  108MOL   O12319597   5.027   2.293   0.239 -0.4048 -0.2278 -0.2048
  108MOL   H12419598   4.658   2.207   0.373  0.4159  1.7602 -0.4236
  108MOL   H12519599   4.773   2.218   0.242  0.6266 -0.4974 -0.5435
  108MOL   H12619600   4.852   2.355   0.427 -0.6887 -0.1736  1.2142
  108MOL   H12719601   5.110   2.281   0.195 -0.6289  2.2049 -1.3848
  108MOL   C12819602   4.872   2.218   0.571 -0.2004  0.3213 -0.2681
  108MOL   C12919603   4.768   2.282   0.663  0.6745  0.5584  0.2065
  108MOL   C13019604   4.772   2.437   0.668 -0.0104  0.1992 -0.4364
  108MOL   O13119605   4.871   2.491   0.718 -0.2040 -0.1804 -0.2414
  108MOL   O13219606   4.653   2.499   0.654 -0.2775  0.2777 -0.1762
  108MOL   H13319607   4.971   2.251   0.600  0.5252 -1.1478 -1.0285
  108MOL   H13419608   4.881   2.111   0.589  0.3101  0.4587  0.2774
  108MOL   H13519609   4.669   2.247   0.631 -0.5910  4.2747 -0.2416
  108MOL   H13619610   4.666   2.589   0.682 -0.4097 -0.0716  1.0269
  108MOL   C13719611   4.785   2.228   0.812 -0.2279  0.0826 -0.2902
  108MOL   C13819612   4.671   2.238   0.917 -0.6773  0.5554 -0.0284
  108MOL   C13919613   4.734   2.221   1.055  0.5056 -0.1456  0.1523
  108MOL   O14019614   4.728   2.308   1.147  0.2685  0.0194 -0.1456
  108MOL   O14119615   4.776   2.095   1.084  0.9358 -0.4486 -0.0770
  108MOL   H14219616   4.875   2.272   0.854 -0.9897  0.0637  1.4006
  108MOL   H14319617   4.805   2.121   0.814 -0.9209 -0.0424  0.4450
  108MOL   H14419618   4.624   2.335   0.903 -0.5428  0.9825  2.2818
  108MOL   H14519619   4.781   2.035   1.011 -1.7189 -0.3918 -0.3791
  108MOL   C14619620   4.552   2.137   0.909 -0.2052 -0.0921  0.4308
  108MOL   C14719621   4.444   2.181   0.808 -0.8222 -0.0928 -0.1437
  108MOL   C14819622   4.342   2.273   0.877  0.4231 -1.0201  0.0914
  108MOL   O14919623   4.246   2.228   0.948  0.4630  0.5256 -0.1154
  108MOL   O15019624   4.352   2.404   0.836  0.1179 -0.1224 -0.1544
  108MOL   H15119625   4.498   2.130   1.003  1.4534 -1.9468  1.2817
  108MOL   H15219626   4.589   2.037   0.884  1.0789  0.6338 -0.6627
  108MOL   H15319627   4.490   2.237   0.727  0.6174  2.2118  2.1678
  108MOL   H15419628   4.287   2.468   0.861 -0.7614 -0.6491 -1.0377
  108MOL   C15519629   4.381   2.057   0.731 -0.4098 -0.3098  0.3013
  108MOL   C15619630   4.274   2.097   0.626 -0.3837 -0.9032  0.3334
  108MOL   C15719631   4.211   1.965   0.589  0.1572 -0.1282 -0.0638
  108MOL   O15819632   4.275   1.873   0.539 -0.7609  0.0730  0.4381
  108MOL   O15919633   4.077   1.957   0.618  0.5120  0.0461  0.0041
  108MOL   H16019634   4.332   2.002   0.812  2.3268  0.6327  2.6848
  108MOL   H16119635   4.459   1.986   0.703  0.4560  1.2558 -1.4349
  108MOL   H16219636   4.196   2.160   0.666  0.3574  0.2898 -0.0526
  108MOL   H16319637   4.041   2.037   0.655 -1.5994 -0.4656 -0.8970
  108MOL   C16419638   4.345   2.165   0.504  0.2632 -0.4433  0.6187
  108MOL   C16519639   4.283   2.303   0.472  0.0925  0.2545 -0.0973
  108MOL   C16619640   4.175   2.289   0.368  0.3261 -0.2496  0.1117
  108MOL   O16719641   4.178   2.346   0.256 -0.2455  0.5874 -0.0549
  108MOL   O16819642   4.071   2.206   0.405  0.3876  0.3262  1.0322
  108MOL   H16919643   4.341   2.101   0.416 -1.7253  0.0589  0.2983
  108MOL   H17019644   4.450   2.171   0.530 -0.2560 -0.4441  2.8105
  108MOL   H17119645   4.243   2.342   0.565 -0.3641  1.8017 -0.9147
  108MOL   H17219646   4.026   2.181   0.326 -0.3807  0.6583  1.3605
  108MOL   C17319647   4.392   2.412   0.427  0.1662  0.1664 -0.0699
  108MOL   C17419648   4.362   2.565   0.431 -0.7219 -0.0556  0.2960
  108MOL   C17519649   4.478   2.654   0.394  0.4384 -0.4125  0.8298
  108MOL   O17619650   4.577   2.610   0.324  0.0080 -0.2365 -0.0731
  108MOL   O17719651   4.455   2.782   0.437  0.3028 -0.2553 -0.0339
  108MOL   H17819652   4.434   2.387   0.329 -2.0022  2.4529 -1.6436
  108MOL   H17919653   4.475   2.409   0.498  0.8353  1.3220 -0.7932
  108MOL   H18019654   4.284   2.582   0.357 -0.9751 -2.4837 -0.0245
  108MOL   H18119655   4.524   2.837   0.404 -1.3126  0.1347 -2.9007
  108MOL   H18219656   4.325   2.599   0.528  1.6884  0.0642  1.2067
  109MOL     C119657   6.097   6.180   2.955  0.3631 -0.2705  0.4763
  109MOL     C219658   5.951   6.186   3.008 -0.2726 -0.3459 -0.4107
  109MOL     C319659   5.851   6.162   2.894 -0.2790  0.2164 -0.3454
  109MOL     O419660   5.784   6.251   2.836  0.1927  0.8250 -0.8553
  109MOL     O519661   5.854   6.030   2.862 -0.1609  0.4623  0.4697
  109MOL     H619662   6.121   6.082   2.915 -0.8369  0.0417 -1.0364
  109MOL     H719663   6.122   6.252   2.877  0.5932 -0.4184  0.4140
  109MOL     H819664   5.952   6.109   3.085 -1.0560  1.6381  1.6476
  109MOL     H919665   5.778   6.000   2.815 -0.4241  2.1918 -0.2630
  109MOL    H1019666   6.166   6.175   3.039 -1.5465 -2.2267  1.9848
  109MOL    C1119667   5.923   6.324   3.075  0.3340  0.3894 -0.1690
  109MOL    C1219668   5.983   6.332   3.222 -0.2599  0.0153 -0.7554
  109MOL    C1319669   5.887   6.251   3.315 -0.4785  0.9361 -0.3676
  109MOL    O1419670   5.914   6.148   3.373  0.1454  0.0918  0.1529
  109MOL    O1519671   5.764   6.306   3.312 -0.2026  0.0453  0.5788
  109MOL    H1619672   5.818   6.354   3.076  0.4164  0.6777  0.1463
  109MOL    H1719673   5.974   6.392   3.006 -0.6906  0.1515 -1.1744
  109MOL    H1819674   6.075   6.275   3.232  0.3807  0.3990 -3.9454
  109MOL    H1919675   5.712   6.248   3.365 -0.5237 -0.1485  0.0614
  109MOL    C2019676   6.005   6.482   3.259  0.2951  0.6549 -0.7249
  109MOL    C2119677   6.152   6.519   3.232  0.1793 -0.0242 -0.3148
  109MOL    C2219678   6.251   6.489   3.348 -0.2842  0.5918  0.3561
  109MOL    O2319679   6.347   6.562   3.374  0.2309 -0.0886  0.1143
  109MOL    O2419680   6.219   6.379   3.425 -0.3939  0.2621  0.1559
  109MOL    H2519681   5.973   6.491   3.362 -2.3183  0.6013 -1.5066
  109MOL    H2619682   5.944   6.545   3.194  1.1690  0.3710 -1.8565
  109MOL    H2719683   6.193   6.462   3.149 -1.5048  0.3917 -1.4545
  109MOL    H2819684   6.279   6.363   3.496 -0.7435 -0.9256  0.1880
  109MOL    C2919685   6.172   6.664   3.181  0.5569 -0.5789  0.4981
  109MOL    C3019686   6.145   6.784   3.266 -0.2316 -0.0880 -0.0780
  109MOL    C3119687   6.000   6.796   3.309  0.5555  0.0979 -0.0974
  109MOL    O3219688   5.960   6.756   3.415 -0.6799 -0.0354 -0.6563
  109MOL    O3319689   5.928   6.856   3.211 -0.0768 -0.0292  0.0236
  109MOL    H3419690   6.111   6.685   3.093 -0.2511  2.3158  1.6853
  109MOL    H3519691   6.274   6.675   3.143  0.6597 -0.6390  0.7531
  109MOL    H3619692   6.206   6.766   3.355 -0.0909  0.2018 -0.1139
  109MOL    H3719693   5.837   6.876   3.227 -0.6590 -1.6107 -1.2215
  109MOL    C3819694   6.209   6.913   3.202  0.4271 -0.4529 -0.7842
  109MOL    C3919695   6.232   7.031   3.299 -0.2336  0.1869 -0.1427
  109MOL    C4019696   6.250   7.163   3.224 -0.0587  0.6130  0.5277
  109MOL    O4119697   6.338   7.182   3.141 -0.1841  0.1922 -0.2636
  109MOL    O4219698   6.157   7.247   3.263 -0.1121  0.0375  0.5251
  109MOL    H4319699   6.145   6.952   3.123  0.5815 -1.3190 -1.3401
  109MOL    H4419700   6.298   6.904   3.140  0.7808  2.4138 -0.7512
  109MOL    H4519701   6.139   7.038   3.355 -0.3437  1.6536 -0.5075
  109MOL    H4619702   6.163   7.337   3.233 -1.0164  0.1248  0.5961
  109MOL    C4719703   6.363   7.000   3.389  0.7871 -0.4695 -0.7071
  109MOL    C4819704   6.358   7.034   3.540  0.3231 -0.4663  0.1629
  109MOL    C4919705   6.342   7.181   3.573 -0.1623  0.0600 -0.0348
  109MOL    O5019706   6.231   7.233   3.606  0.6878 -0.2449 -0.0213
  109MOL    O5119707   6.455   7.249   3.556 -0.1645  0.0019 -0.2582
  109MOL    H5219708   6.445   7.044   3.333 -0.0882 -0.9887 -2.4121
  109MOL    H5319709   6.392   6.895   3.383  3.5468  0.0610  1.8812
  109MOL    H5419710   6.270   6.980   3.574 -0.3730 -0.0476 -0.9493
  109MOL    H5519711   6.447   7.327   3.610  0.2097  0.7124 -1.2063
  109MOL    C5619712   6.485   6.973   3.610  0.5431 -0.3159  0.3256
  109MOL    C5719713   6.467   6.944   3.761  0.0258  0.3116  0.1441
  109MOL    C5819714   6.585   7.010   3.832 -0.2104  0.0908 -1.2198
  109MOL    O5919715   6.667   6.944   3.891  0.1631  0.1211 -0.5064
  109MOL    O6019716   6.577   7.145   3.833 -0.3837 -0.6227  0.9253
  109MOL    H6119717   6.577   7.024   3.582  0.9241 -1.4930 -0.6058
  109MOL    H6219718   6.504   6.877   3.563 -1.1991 -0.3301 -0.3531
  109MOL    H6319719   6.385   6.991   3.816 -0.8306 -3.1628  1.9741
  109MOL    H6419720   6.656   7.176   3.875 -0.3711  2.0956 -0.9758
  109MOL    C6519721   6.459   6.799   3.808  0.6354  0.8850 -0.0954
  109MOL    C6619722   6.333   6.714   3.757 -0.0072 -0.2345 -0.5529
  109MOL    C6719723   6.208   6.779   3.808  0.2655 -0.0478 -0.2570
  109MOL    O6819724   6.122   6.815   3.733 -0.3159 -0.1936  0.6513
  109MOL    O6919725   6.202   6.791   3.945  0.3689  0.3256 -0.3764
  109MOL    H7019726   6.473   6.790   3.915 -2.7918  0.7111  0.4063
  109MOL    H7119727   6.548   6.749   3.769 -0.9473 -1.0347 -1.3452
  109MOL    H7219728   6.330   6.713   3.648  1.9353  0.0267 -0.6202
  109MOL    H7319729   6.110   6.802   3.966  0.0607 -3.0522  0.2936
  109MOL    C7419730   6.325   6.564   3.797  0.0783  0.5661 -0.0931
  109MOL    C7519731   6.460   6.486   3.797 -0.1536  0.8334  0.7369
  109MOL    C7619732   6.486   6.461   3.646  0.3100 -0.2639  0.0258
  109MOL    O7719733   6.444   6.364   3.583  0.2153 -0.4454  0.3672
  109MOL    O7819734   6.565   6.560   3.596 -0.2099  0.2019 -0.0826
  109MOL    H7919735   6.258   6.501   3.737  3.7300 -3.1529 -0.5364
  109MOL    H8019736   6.297   6.544   3.900 -0.6478 -0.2105 -0.4327
  109MOL    H8119737   6.543   6.553   3.818  0.3068  0.1464  1.1492
  109MOL    H8219738   6.577   6.532   3.506  0.3741  1.2222 -0.3166
  109MOL    C8319739   6.466   6.367   3.897 -0.3807 -0.6186 -1.3217
  109MOL    C8419740   6.528   6.404   4.040  0.0184  0.0285 -0.1468
  109MOL    C8519741   6.651   6.321   4.084 -0.4795 -0.0155  0.0839
  109MOL    O8619742   6.673   6.285   4.203 -0.5481  0.4789  0.2095
  109MOL    O8719743   6.731   6.289   3.977  0.5644  0.1432 -0.1944
  109MOL    H8819744   6.532   6.298   3.844  0.2527 -0.4850 -0.7142
  109MOL    H8919745   6.371   6.315   3.910 -0.1520 -0.6460  0.2966
  109MOL    H9019746   6.587   6.495   4.028 -1.0539  0.9862  1.5173
  109MOL    H9119747   6.814   6.245   3.988  0.4176 -0.6175 -1.8597
  109MOL    C9219748   6.420   6.423   4.152 -0.5475  0.3525  0.6853
  109MOL    C9319749   6.428   6.575   4.196  0.0760 -0.4159 -0.3581
  109MOL    C9419750   6.554   6.616   4.274 -0.7246  0.8455 -0.0321
  109MOL    O9519751   6.640   6.688   4.225  0.2383 -0.3964  0.7017
  109MOL    O9619752   6.556   6.558   4.399 -0.2298 -0.5028  0.0887
  109MOL    H9719753   6.450   6.374   4.244  1.2355 -0.2207 -0.1775
  109MOL    H9819754   6.323   6.392   4.113  0.7902 -2.5409 -0.5270
  109MOL    H9919755   6.430   6.630   4.102  2.7695  1.9923  1.0666
  109MOL   H10019756   6.638   6.563   4.445 -0.4515 -2.5291  0.7456
  109MOL   C10119757   6.299   6.622   4.273  0.6686 -0.6435  0.0401
  109MOL   C10219758   6.240   6.546   4.397 -0.1120  0.0534 -0.1944
  109MOL   C10319759   6.170   6.412   4.368 -0.1824  0.0849 -0.1381
  109MOL   O10419760   6.065   6.408   4.307 -0.3559 -0.2464  0.3778
  109MOL   O10519761   6.227   6.305   4.422 -0.5761  0.3932  0.0037
  109MOL   H10619762   6.222   6.621   4.195  0.1041 -0.4810  0.5930
  109MOL   H10719763   6.315   6.727   4.296 -1.5939 -0.9080  3.2449
  109MOL   H10819764   6.323   6.507   4.456  0.0805 -1.5882 -1.5134
  109MOL   H10919765   6.302   6.325   4.476 -1.2924  1.8639  0.4896
  109MOL   C11019766   6.152   6.629   4.498 -0.2303 -0.9014  0.7759
  109MOL   C11119767   6.014   6.686   4.459  0.9691 -0.4266  0.3933
  109MOL   C11219768   6.012   6.768   4.327  0.4634 -0.1187  0.4972
  109MOL   O11319769   6.087   6.866   4.301 -0.1115  0.0255  0.5505
  109MOL   O11419770   5.918   6.722   4.240  0.0463 -0.2038 -0.3184
  109MOL   H11519771   6.212   6.711   4.538 -0.6350 -0.1785 -0.0762
  109MOL   H11619772   6.132   6.560   4.580  0.6381 -1.3179  0.6382
  109MOL   H11719773   5.956   6.600   4.424  0.2778 -0.0731  0.6617
  109MOL   H11819774   5.913   6.774   4.161  1.1115  1.1787  0.4983
  109MOL   C11919775   5.929   6.752   4.578  0.3080 -0.3690 -0.2176
  109MOL   C12019776   6.004   6.861   4.661  0.9519  0.8218 -0.4004
  109MOL   C12119777   6.057   6.795   4.789  0.0175  0.6519  0.2984
  109MOL   O12219778   5.981   6.744   4.869 -0.5036  0.4740  0.2181
  109MOL   O12319779   6.191   6.783   4.785 -0.3533  0.1531  0.5841
  109MOL   H12419780   5.895   6.667   4.636  1.0147  0.0064  0.7593
  109MOL   H12519781   5.841   6.798   4.533 -1.4581 -2.6146  0.8539
  109MOL   H12619782   6.083   6.908   4.602  0.0781  3.1448  0.2253
  109MOL   H12719783   6.230   6.731   4.853 -0.1390  0.6072  0.8146
  109MOL   C12819784   5.902   6.986   4.692 -0.4059 -0.8461 -0.1011
  109MOL   C12919785   5.949   7.088   4.801 -0.1503 -0.2832 -0.0508
  109MOL   C13019786   5.835   7.194   4.824  0.4441 -0.2474  0.1633
  109MOL   O13119787   5.848   7.312   4.786 -0.7284 -1.0065  0.3678
  109MOL   O13219788   5.727   7.147   4.893 -0.2221  0.4135 -0.3207
  109MOL   H13319789   5.816   6.937   4.738 -2.4749  1.5555 -1.2557
  109MOL   H13419790   5.866   7.040   4.605 -0.1731  1.7087  1.3362
  109MOL   H13519791   5.954   7.036   4.897 -0.3836 -2.5497 -1.2324
  109MOL   H13619792   5.664   7.217   4.886  0.5287  1.4082  2.3739
  109MOL   C13719793   6.092   7.139   4.769  0.3796 -0.9783 -1.1649
  109MOL   C13819794   6.158   7.224   4.889  0.7083 -0.0885 -0.1576
  109MOL   C13919795   6.208   7.354   4.834  0.3965  0.6946 -0.1973
  109MOL   O14019796   6.237   7.370   4.715 -0.6937  0.4247  0.5848
  109MOL   O14119797   6.227   7.450   4.935  0.2077  0.1096  0.2837
  109MOL   H14219798   6.065   7.203   4.685 -1.2398 -0.2613 -0.1290
  109MOL   H14319799   6.159   7.062   4.733 -0.2520 -2.1481  0.1127
  109MOL   H14419800   6.081   7.259   4.957 -0.8891 -1.4795 -1.1947
  109MOL   H14519801   6.264   7.525   4.891  0.8440 -0.7675 -0.7063
  109MOL   C14619802   6.272   7.149   4.960  0.8256 -0.2890  0.0037
  109MOL   C14719803   6.244   7.019   5.035  0.7351 -0.0525  0.1821
  109MOL   C14819804   6.137   7.019   5.141 -1.0582  0.0636 -1.4247
  109MOL   O14919805   6.097   6.916   5.199  0.6589 -1.0873  0.0955
  109MOL   O15019806   6.083   7.145   5.162  0.2267 -0.1079  0.3259
  109MOL   H15119807   6.326   7.214   5.029  0.1460 -1.1582  1.3867
  109MOL   H15219808   6.354   7.128   4.891  0.5771  0.5542 -0.5487
  109MOL   H15319809   6.204   6.958   4.954 -0.3351  0.6136  0.2019
  109MOL   H15419810   6.011   7.148   5.223  1.3863  0.9587  1.6746
  109MOL   C15519811   6.368   6.934   5.075  0.9290 -0.5437  0.5292
  109MOL   C15619812   6.468   6.994   5.179  0.1730  0.0381  0.1579
  109MOL   C15719813   6.614   6.976   5.129 -0.0119 -0.0879 -0.3490
  109MOL   O15819814   6.685   7.070   5.086  0.6333  0.0181  0.2736
  109MOL   O15919815   6.641   6.846   5.126 -0.0959  0.3247  0.3360
  109MOL   H16019816   6.408   6.883   4.987 -0.3862 -0.6784 -0.0099
  109MOL   H16119817   6.343   6.843   5.130  1.7309 -1.1953 -0.1524
  109MOL   H16219818   6.455   7.102   5.174  0.9303  0.0880 -0.9845
  109MOL   H16319819   6.724   6.828   5.085 -0.7513  0.8239 -1.2602
  109MOL   C16419820   6.430   6.967   5.326  0.0526  0.9417 -0.2995
  109MOL   C16519821   6.526   7.023   5.432  0.3772 -1.0421  0.2551
  109MOL   C16619822   6.484   6.989   5.578 -0.1633  0.2572 -0.4632
  109MOL   O16719823   6.371   6.958   5.613  0.8400  0.2563 -0.3658
  109MOL   O16819824   6.586   6.999   5.663 -0.9296 -0.1936 -0.0037
  109MOL   H16919825   6.431   6.860   5.346  1.4704  0.7858 -1.1626
  109MOL   H17019826   6.327   6.988   5.355 -0.2207  1.4243 -1.6005
  109MOL   H17119827   6.625   6.977   5.429  2.2678  2.7173  1.2824
  109MOL   H17219828   6.560   6.970   5.749  0.7993  1.1920  1.0297
  109MOL   C17319829   6.556   7.174   5.425 -0.1582 -0.1374  0.0697
  109MOL   C17419830   6.424   7.263   5.417  0.1380  0.3621 -0.1684
  109MOL   C17519831   6.448   7.384   5.323 -0.6477 -0.9356 -0.2290
  109MOL   O17619832   6.445   7.383   5.201 -0.3174  0.4011 -0.8410
  109MOL   O17719833   6.480   7.491   5.401  0.1612 -0.3607  0.2225
  109MOL   H17819834   6.627   7.211   5.350 -0.9014 -0.5598 -0.8432
  109MOL   H17919835   6.606   7.203   5.518 -3.8096 -0.6821  2.2980
  109MOL   H18019836   6.341   7.202   5.382 -0.5668  1.2214 -0.0113
  109MOL   H18119837   6.515   7.567   5.357  1.5715 -1.2927 -0.3339
  109MOL   H18219838   6.391   7.288   5.518 -0.7066 -0.2468 -0.2886
  110MOL     C119839   4.983   7.744   5.810  0.1070  0.3224  0.3216
  110MOL     C219840   4.923   7.844   5.712 -0.5052  0.5048 -0.1882
  110MOL     C319841   4.776   0.003   5.742  0.1226 -0.0047 -0.0971
  110MOL     O419842   4.712   7.781   5.816  0.8019 -0.1325  0.2564
  110MOL     O519843   4.720   0.109   5.682  0.7998 -0.4384 -0.1039
  110MOL     H619844   4.954   7.766   5.913  2.0477 -2.4473  1.5554
  110MOL     H719845   4.951   7.641   5.791  0.6337 -0.0167  1.2376
  110MOL     H819846   4.964   0.090   5.731 -0.4517  0.6565 -1.0786
  110MOL     H919847   4.627   0.119   5.677  0.7722 -1.0691 -0.8425
  110MOL    H1019848   5.091   7.754   5.812  0.2659 -1.3923  1.3089
  110MOL    C1119849   4.952   7.812   5.560 -0.9561  0.1693  0.1110
  110MOL    C1219850   4.964   0.079   5.465  0.1139 -0.1123 -0.3906
  110MOL    C1319851   4.944   0.056   5.316  0.2712 -0.3363  0.3039
  110MOL    O1419852   4.939   7.796   5.268 -0.2613 -0.5243 -0.2391
  110MOL    O1519853   4.927   0.172   5.249  0.3306 -0.2196 -0.5058
  110MOL    H1619854   4.868   7.755   5.521 -0.5229  0.2720 -1.0060
  110MOL    H1719855   5.046   7.757   5.547 -1.4493 -0.5196 -0.6124
  110MOL    H1819856   4.885   0.147   5.496  1.7300  2.6045 -1.9831
  110MOL    H1919857   4.897   0.170   5.159 -0.8676 -2.4237 -0.0955
  110MOL    C2019858   5.089   0.165   5.475 -0.0303  0.2382  0.4297
  110MOL    C2119859   5.229   0.105   5.435 -0.2548  0.1843 -0.0000
  110MOL    C2219860   5.298   0.043   5.563  1.2544  0.8471  0.4355
  110MOL    O2319861   5.288   0.077   5.679 -0.1448  0.4024  0.1879
  110MOL    O2419862   5.379   7.798   5.526  0.4797  0.7223  0.1564
  110MOL    H2519863   5.099   0.202   5.577  0.7513  1.3605 -0.0506
  110MOL    H2619864   5.074   0.257   5.418  0.4308  1.8670  2.8541
  110MOL    H2719865   5.219   0.034   5.353  2.1238  0.0314 -0.2007
  110MOL    H2819866   5.415   7.758   5.604 -1.5363  1.6619  1.6137
  110MOL    C2919867   5.316   0.211   5.374  0.1135  0.3822 -0.1697
  110MOL    C3019868   5.444   0.163   5.296 -0.4099 -0.7213  0.6197
  110MOL    C3119869   5.545   0.279   5.290  0.6732  0.2361 -0.3464
  110MOL    O3219870   5.666   0.263   5.299  0.3660  0.5941 -0.4663
  110MOL    O3319871   5.483   0.399   5.272 -0.1680 -0.4090 -0.1284
  110MOL    H3419872   5.358   0.264   5.460  0.4201  0.1137 -0.1505
  110MOL    H3519873   5.259   0.286   5.320  1.0510 -0.5755 -2.5736
  110MOL    H3619874   5.484   0.086   5.361 -2.3227 -1.8544  0.4790
  110MOL    H3719875   5.550   0.463   5.254 -2.1356  1.0431 -2.7513
  110MOL    C3819876   5.428   0.105   5.152  0.5770  0.2928  0.0417
  110MOL    C3919877   5.397   0.194   5.029 -0.3154 -0.3071  0.1053
  110MOL    C4019878   5.253   0.204   4.993  0.0288  0.5928  0.3585
  110MOL    O4119879   5.187   0.112   4.939  0.2271  0.4864 -0.2373
  110MOL    O4219880   5.201   0.318   5.045  0.1231 -0.6080 -0.3787
  110MOL    H4319881   5.351   0.029   5.161 -0.4298  1.2575 -0.3886
  110MOL    H4419882   5.519   0.049   5.127  0.1396 -0.5746  0.3741
  110MOL    H4519883   5.427   0.297   5.048  2.2722 -0.7079 -1.5915
  110MOL    H4619884   5.109   0.319   5.026 -0.1108 -1.5882  0.7304
  110MOL    C4719885   5.473   0.157   4.907 -0.7152 -0.2910  0.4495
  110MOL    C4819886   5.617   0.208   4.901  0.7893 -0.0796 -0.6454
  110MOL    C4919887   5.625   0.355   4.873  0.1413  0.2578  0.4612
  110MOL    O5019888   5.556   0.416   4.792  0.0707  0.2452 -0.3995
  110MOL    O5119889   5.713   0.412   4.961  0.2604  0.8995  0.8186
  110MOL    H5219890   5.423   0.202   4.821 -0.5207 -0.1284  0.4199
  110MOL    H5319891   5.474   0.050   4.888 -0.7673 -0.2308  0.0916
  110MOL    H5419892   5.657   0.193   5.001 -1.0786 -0.0279  0.1251
  110MOL    H5519893   5.738   0.501   4.939  4.2179 -0.0645  1.1171
  110MOL    C5619894   5.718   0.146   4.801 -0.1076  0.0334 -0.2628
  110MOL    C5719895   5.753   7.851   4.821 -0.1826 -0.2242  0.3236
  110MOL    C5819896   5.824   7.829   4.952 -0.4888 -0.4152 -0.1443
  110MOL    O5919897   5.934   0.018   4.969  0.2807 -0.1783  0.4977
  110MOL    O6019898   5.757   7.753   5.042  0.0796  0.6706  0.4168
  110MOL    H6119899   5.816   0.194   4.804 -0.0432  0.2781 -3.6998
  110MOL    H6219900   5.684   0.168   4.700 -0.5248 -1.1978 -0.4020
  110MOL    H6319901   5.651   7.814   4.828 -0.4331  0.8434  3.0509
  110MOL    H6419902   5.810   7.722   5.113  0.9400 -0.4675 -0.7059
  110MOL    C6519903   5.825   7.785   4.694  0.7198 -0.0537 -1.0630
  110MOL    C6619904   5.793   7.638   4.691  0.3258  0.5658 -0.0059
  110MOL    C6719905   5.890   7.568   4.593 -0.5124  0.0687  0.0795
  110MOL    O6819906   5.861   7.522   4.487 -0.1448  0.1551  0.1675
  110MOL    O6919907   6.020   7.579   4.635 -0.3296 -0.4737 -0.0378
  110MOL    H7019908   5.932   7.806   4.699  0.4044  1.1145  1.5774
  110MOL    H7119909   5.784   7.839   4.608  0.6301  0.5207 -0.6651
  110MOL    H7219910   5.797   7.594   4.791  0.9342 -0.5710 -0.5185
  110MOL    H7319911   6.082   7.537   4.578 -1.8997 -2.2116 -0.5378
  110MOL    C7419912   5.640   7.635   4.632 -0.6507  0.7765  0.0998
  110MOL    C7519913   5.530   7.559   4.712 -1.0631 -0.4913  0.3684
  110MOL    C7619914   5.562   7.407   4.737  0.1643 -0.2021  0.1851
  110MOL    O7719915   5.572   7.358   4.849 -0.4810 -0.4136  0.0855
  110MOL    O7819916   5.580   7.343   4.621  0.4038  0.2363  0.3748
  110MOL    H7919917   5.648   7.586   4.535  0.6929  0.8453  0.1604
  110MOL    H8019918   5.586   7.728   4.616  0.6068  1.3032 -1.1493
  110MOL    H8119919   5.534   7.596   4.814 -1.8165 -0.4586  0.3887
  110MOL    H8219920   5.569   7.408   4.553 -0.7341  0.8153  1.0919
  110MOL    C8319921   5.387   7.580   4.653  0.0426  0.4192  0.6977
  110MOL    C8419922   5.255   7.530   4.722  0.0726  0.1729  0.3879
  110MOL    C8519923   5.138   7.567   4.641  0.0199 -0.1193 -0.6691
  110MOL    O8619924   5.145   7.640   4.541  0.3641  0.7377 -0.4071
  110MOL    O8719925   5.015   7.519   4.687  0.0347 -0.0182 -0.2122
  110MOL    H8819926   5.397   7.532   4.556 -1.1095  0.0259  0.7691
  110MOL    H8919927   5.381   7.686   4.630 -0.8984  0.5361  1.4546
  110MOL    H9019928   5.260   7.421   4.717  2.3491  0.2720 -0.2593
  110MOL    H9119929   4.940   7.561   4.649  0.1191  0.7193  0.4284
  110MOL    C9219930   5.253   7.574   4.871 -0.3268 -0.3249 -0.3906
  110MOL    C9319931   5.168   7.501   4.979 -0.4916  0.0480 -0.0293
  110MOL    C9419932   5.119   7.587   5.101  0.2832 -0.0802 -0.0711
  110MOL    O9519933   5.201   7.649   5.168 -0.0161 -0.5544 -0.3412
  110MOL    O9619934   4.985   7.577   5.138 -0.5757 -0.0183  0.3660
  110MOL    H9719935   5.232   7.681   4.879 -3.1727 -0.8100 -1.0010
  110MOL    H9819936   5.349   7.568   4.922  0.1443 -2.0031 -1.4414
  110MOL    H9919937   5.079   7.489   4.918 -0.5390  0.4308 -0.0378
  110MOL   H10019938   4.970   7.646   5.201  0.1697  2.2853 -1.8737
  110MOL   C10119939   5.242   7.369   5.015  0.0976  0.8507 -0.8675
  110MOL   C10219940   5.161   7.241   4.989  0.4514  0.0360 -0.5588
  110MOL   C10319941   5.052   7.237   5.093 -0.3051 -0.2219 -0.2244
  110MOL   O10419942   5.072   7.198   5.208 -0.2464 -0.0210 -0.2282
  110MOL   O10519943   4.931   7.281   5.052  0.5149 -0.0132 -0.4861
  110MOL   H10619944   5.286   7.365   5.115  0.1170 -0.8113 -0.9260
  110MOL   H10719945   5.332   7.371   4.953  0.7622  0.5024  0.0794
  110MOL   H10819946   5.111   7.261   4.895  0.1955 -0.6872 -0.5806
  110MOL   H10919947   4.858   7.313   5.103  1.6864  1.8053  0.0895
  110MOL   C11019948   5.250   7.112   5.009 -0.2284  0.5878  0.1589
  110MOL   C11119949   5.181   6.974   4.998  0.9269  1.0113 -0.1720
  110MOL   C11219950   5.256   6.884   5.098  0.9484 -0.3833 -0.0162
  110MOL   O11319951   5.360   6.824   5.077  0.1195 -0.4413 -0.1059
  110MOL   O11419952   5.198   6.891   5.219 -0.3060 -0.4616  0.2177
  110MOL   H11519953   5.306   7.119   5.103  1.9578 -2.0118 -0.8848
  110MOL   H11619954   5.333   7.122   4.939 -1.1551  0.4949 -0.9653
  110MOL   H11719955   5.081   6.981   5.039  0.1054 -0.8448 -1.8215
  110MOL   H11819956   5.250   6.831   5.270 -0.0526 -0.4002  0.0313
  110MOL   C11919957   5.183   6.915   4.854  0.0117  0.5529 -0.6781
  110MOL   C12019958   5.135   6.767   4.833  0.4476 -1.7748  0.1879
  110MOL   C12119959   5.258   6.677   4.815 -0.2210 -0.7279 -0.0646
  110MOL   O12219960   5.288   6.583   4.888 -0.0673  0.1899 -0.3084
  110MOL   O12319961   5.325   6.713   4.705 -0.0808 -0.6504 -0.2308
  110MOL   H12419962   5.289   6.916   4.828  0.3284  3.3080  0.5530
  110MOL   H12519963   5.138   6.989   4.788  1.0417  0.8109 -1.0999
  110MOL   H12619964   5.071   6.733   4.915  0.2744  0.6003  1.0684
  110MOL   H12719965   5.398   6.653   4.697 -0.1154 -0.6027 -0.9301
  110MOL   C12819966   5.038   6.746   4.715  0.2851 -0.1708  0.3400
  110MOL   C12919967   4.904   6.813   4.729  0.4587  0.2866  0.7307
  110MOL   C13019968   4.810   6.744   4.828 -0.0643 -0.0310  0.2492
  110MOL   O13119969   4.836   6.636   4.879 -0.2054 -0.4222 -0.6697
  110MOL   O13219970   4.693   6.815   4.849 -0.3664  0.6440  0.0036
  110MOL   H13319971   5.028   6.646   4.672  1.1824  0.2926 -0.9600
  110MOL   H13419972   5.081   6.808   4.637 -0.1310  0.3559  0.5288
  110MOL   H13519973   4.918   6.914   4.766  0.2639  1.9554 -3.5393
  110MOL   H13619974   4.637   6.770   4.911  0.4213 -2.0366 -1.1390
  110MOL   C13719975   4.829   6.845   4.597 -0.4115  0.1950  0.0675
  110MOL   C13819976   4.790   6.722   4.514  0.1775  0.1872  0.1349
  110MOL   C13919977   4.893   6.681   4.406  0.3683  0.3426 -0.2819
  110MOL   O14019978   4.996   6.744   4.375  0.4056 -0.6635 -0.2168
  110MOL   O14119979   4.870   6.560   4.353 -0.2957 -0.2627  0.0027
  110MOL   H14219980   4.899   6.901   4.536  0.6919 -3.9354 -2.6664
  110MOL   H14319981   4.750   6.915   4.623  1.4250  0.7941  4.4004
  110MOL   H14419982   4.783   6.635   4.580  1.5163 -0.4281 -0.5028
  110MOL   H14519983   4.936   6.532   4.292 -0.9212 -1.0670 -0.3121
  110MOL   C14619984   4.653   6.750   4.448  0.2046  0.1165 -0.3199
  110MOL   C14719985   4.519   6.746   4.528  0.7328  0.2633  0.0692
  110MOL   C14819986   4.500   6.602   4.579 -0.2088 -0.4719 -0.7109
  110MOL   O14919987   4.456   6.513   4.508  0.2102 -0.6658 -0.0338
  110MOL   O15019988   4.541   6.584   4.707 -0.2436 -0.0406 -0.0088
  110MOL   H15119989   4.630   6.694   4.357 -1.7715  0.8795 -0.3173
  110MOL   H15219990   4.654   6.855   4.419  0.9448 -0.0155 -0.7968
  110MOL   H15319991   4.518   6.815   4.613 -0.5332 -2.2543  2.1850
  110MOL   H15419992   4.543   6.494   4.734  3.0720 -0.1846 -0.5277
  110MOL   C15519993   4.408   6.793   4.432  0.2562 -0.0107 -0.6384
  110MOL   C15619994   4.263   6.790   4.494  0.0863 -0.2302 -0.1011
  110MOL   C15719995   4.193   6.655   4.458  0.9269 -0.2573  0.0845
  110MOL   O15819996   4.217   6.603   4.352  0.6513 -0.1668  0.2215
  110MOL   O15919997   4.101   6.611   4.548  0.1690 -0.3151  0.2143
  110MOL   H16019998   4.405   6.726   4.346 -0.6134 -0.9036  0.0850
  110MOL   H16119999   4.439   6.893   4.400  0.2896  0.5178  1.0169
  110MOL   H16220000   4.266   6.808   4.602 -0.4589  2.8460 -0.5535
  110MOL   H16320001   4.063   6.534   4.511  0.8067 -0.1801 -0.7349
  110MOL   C16420002   4.185   6.914   4.447 -0.3937 -0.5173 -0.1737
  110MOL   C16520003   4.092   6.901   4.327 -0.5388 -0.1891  0.3965
  110MOL   C16620004   4.158   6.891   4.190 -0.3643 -0.2577 -0.1249
  110MOL   O16720005   4.241   6.966   4.148 -0.0699  0.0003 -0.3926
  110MOL   O16820006   4.120   6.780   4.129  0.3994 -0.6751 -0.5130
  110MOL   H16920007   4.253   6.997   4.425 -1.0997  0.1913  0.3132
  110MOL   H17020008   4.127   6.932   4.537  1.4815  3.5028  0.3723
  110MOL   H17120009   4.010   6.829   4.337  0.2022 -1.4917 -2.4221
  110MOL   H17220010   4.160   6.773   4.044 -0.4269  1.7341 -1.1474
  110MOL   C17320011   4.009   7.035   4.318 -0.2069  0.3891  0.4481
  110MOL   C17420012   3.890   7.020   4.219  0.2575 -0.5351 -0.1683
  110MOL   C17520013   3.774   7.111   4.254 -0.1216  0.0818  0.0013
  110MOL   O17620014   3.742   7.141   4.367  0.1257 -0.4005 -0.3609
  110MOL   O17720015   3.708   7.149   4.139  0.1880 -0.3486  0.2618
  110MOL   H17820016   4.072   7.119   4.287  0.2937 -0.2432 -0.2574
  110MOL   H17920017   3.966   7.058   4.416  1.9177 -2.1561  2.0522
  110MOL   H18020018   3.917   7.040   4.116 -0.3991 -2.0916 -0.6568
  110MOL   H18120019   3.637   7.210   4.148 -0.8998 -1.4166 -0.7946
  110MOL   H18220020   3.846   6.920   4.225 -1.7974  0.3585  0.0440
  111MOL     C120021   6.005   3.442   2.664  0.2290 -0.1864 -0.2631
  111MOL     C220022   6.153   3.486   2.669  0.4181  0.2674  0.4321
  111MOL     C320023   6.242   3.405   2.566  0.1719  0.1964 -0.1033
  111MOL     O420024   6.223   3.285   2.543 -0.6907  0.7576 -0.3097
  111MOL     O520025   6.331   3.487   2.503  0.0273  0.5031 -0.0806
  111MOL     H620026   5.937   3.491   2.734 -1.0125 -0.5764 -1.1686
  111MOL     H720027   5.973   3.468   2.563 -2.0001  0.3463  0.5596
  111MOL     H820028   6.158   3.588   2.630 -1.7827  0.6986  1.2194
  111MOL     H920029   6.378   3.433   2.442  2.3504 -0.0717  2.1679
  111MOL    H1020030   6.007   3.333   2.676  0.3288 -0.2469 -0.8179
  111MOL    C1120031   6.189   3.482   2.822 -0.1805 -0.7578  0.0373
  111MOL    C1220032   6.227   3.623   2.892  0.7466  0.0632 -0.2056
  111MOL    C1320033   6.352   3.672   2.817  0.6685 -0.6127 -0.0239
  111MOL    O1420034   6.372   3.790   2.785 -0.3364 -0.1786 -0.4551
  111MOL    O1520035   6.427   3.570   2.767 -0.1453 -0.0063  0.4025
  111MOL    H1620036   6.263   3.406   2.846  1.1720  0.2016 -1.0301
  111MOL    H1720037   6.097   3.453   2.874 -0.2011 -0.3206  0.2513
  111MOL    H1820038   6.140   3.687   2.874  0.0806 -0.6919  0.2894
  111MOL    H1920039   6.494   3.603   2.708 -1.3237  1.8538  0.0789
  111MOL    C2020040   6.242   3.598   3.042 -0.1328 -0.0445 -0.6032
  111MOL    C2120041   6.262   3.728   3.135 -0.0751  0.3408 -0.3778
  111MOL    C2220042   6.404   3.772   3.140  0.2187 -0.0041 -0.2354
  111MOL    O2320043   6.499   3.694   3.151 -0.0859  0.5826 -0.4708
  111MOL    O2420044   6.417   3.902   3.114 -0.0347 -0.0128  0.2032
  111MOL    H2520045   6.311   3.514   3.053 -2.4900 -1.7564  1.7317
  111MOL    H2620046   6.148   3.559   3.080  0.3221  1.3044  2.0241
  111MOL    H2720047   6.200   3.812   3.103  0.5890 -0.0859 -2.9329
  111MOL    H2820048   6.508   3.928   3.111 -0.5819  1.8647 -0.5466
  111MOL    C2920049   6.207   3.696   3.283  0.4342  0.2424 -0.1838
  111MOL    C3020050   6.049   3.687   3.309  0.3112  0.0872  0.2922
  111MOL    C3120051   5.963   3.797   3.236 -0.3912  0.7461  0.2464
  111MOL    O3220052   5.934   3.911   3.283 -0.6848 -0.9150 -0.0796
  111MOL    O3320053   5.934   3.764   3.106 -0.3156  0.0494 -0.1970
  111MOL    H3420054   6.251   3.757   3.363  3.9972  0.5367 -2.2529
  111MOL    H3520055   6.254   3.603   3.316  2.9976  1.6123  0.1784
  111MOL    H3620056   6.031   3.589   3.265 -1.1359  1.1736 -1.5965
  111MOL    H3720057   5.887   3.841   3.075 -1.7421 -0.2621  1.1544
  111MOL    C3820058   6.006   3.680   3.457 -0.3361 -0.8489  0.5957
  111MOL    C3920059   5.858   3.621   3.489  0.1451 -0.0738 -0.3328
  111MOL    C4020060   5.799   3.683   3.613  0.4929  0.3877 -0.2053
  111MOL    O4120061   5.697   3.747   3.601 -0.0385 -0.1671 -0.5561
  111MOL    O4220062   5.858   3.649   3.731  0.1110  0.7318  0.0048
  111MOL    H4320063   6.019   3.772   3.514  0.5775 -2.1819  2.6218
  111MOL    H4420064   6.082   3.623   3.510 -0.9906 -2.5203 -0.2449
  111MOL    H4520065   5.788   3.649   3.410 -0.8576 -3.7819 -0.8388
  111MOL    H4620066   5.800   3.661   3.804  1.8919  0.3311  1.5134
  111MOL    C4720067   5.869   3.466   3.492  0.4213  0.0835 -0.1014
  111MOL    C4820068   5.732   3.389   3.469  0.2796 -0.4986 -0.1977
  111MOL    C4920069   5.683   3.403   3.325  0.2656 -0.1415  0.1647
  111MOL    O5020070   5.747   3.465   3.234 -0.2062  0.0582  0.0319
  111MOL    O5120071   5.568   3.342   3.299  0.1121 -0.4646  0.2406
  111MOL    H5220072   5.926   3.425   3.576  0.2121 -0.5444 -0.2666
  111MOL    H5320073   5.933   3.443   3.407  0.5403  0.6934 -0.1813
  111MOL    H5420074   5.759   3.286   3.488  2.6584 -0.1364 -1.4543
  111MOL    H5520075   5.527   3.366   3.217 -1.2100 -0.6888  0.8209
  111MOL    C5620076   5.619   3.425   3.573  0.9117 -0.5334  0.0849
  111MOL    C5720077   5.507   3.322   3.582  0.4931 -0.1829 -0.6054
  111MOL    C5820078   5.362   3.380   3.587 -0.1612  0.0992  0.0194
  111MOL    O5920079   5.309   3.451   3.500 -0.9244 -0.0505 -0.6659
  111MOL    O6020080   5.294   3.342   3.696 -0.4258  0.4080  0.0906
  111MOL    H6120081   5.581   3.517   3.529  1.9626  0.0963  0.4764
  111MOL    H6220082   5.669   3.435   3.669 -0.9505  0.5587  0.9509
  111MOL    H6320083   5.502   3.258   3.494  0.3432 -1.2712  0.1758
  111MOL    H6420084   5.208   3.381   3.692 -0.1942  0.9432  0.3563
  111MOL    C6520085   5.532   3.220   3.700  0.6031  0.3912 -0.4930
  111MOL    C6620086   5.445   3.086   3.722 -0.5275 -0.1390 -0.1635
  111MOL    C6720087   5.466   3.023   3.861  0.2296  0.3938  0.4387
  111MOL    O6820088   5.369   2.990   3.932  0.1762  0.4319  0.3913
  111MOL    O6920089   5.594   2.998   3.893 -0.1527  0.2984  0.7239
  111MOL    H7020090   5.537   3.275   3.794 -0.5017  1.9309 -1.3276
  111MOL    H7120091   5.636   3.187   3.692  0.3667 -0.5351  0.1154
  111MOL    H7220092   5.339   3.111   3.716 -0.4074  0.0555 -1.8990
  111MOL    H7320093   5.607   2.946   3.971  2.7523 -1.0715 -0.6240
  111MOL    C7420094   5.461   2.983   3.618 -0.4867 -0.4091 -0.3948
  111MOL    C7520095   5.342   2.881   3.588  0.0167  0.1660 -0.3073
  111MOL    C7620096   5.354   2.768   3.691  0.7379 -0.4250  0.0909
  111MOL    O7720097   5.460   2.716   3.714 -0.0316 -0.4604 -0.1875
  111MOL    O7820098   5.234   2.750   3.747 -0.5491 -0.0567  0.0157
  111MOL    H7920099   5.555   2.928   3.629 -1.1419 -1.0909  2.0869
  111MOL    H8020100   5.478   3.030   3.521  2.6054 -1.6616 -0.5334
  111MOL    H8120101   5.255   2.933   3.629 -0.2066 -0.0598 -0.4949
  111MOL    H8220102   5.239   2.681   3.811  1.2227 -1.5272 -1.6457
  111MOL    C8320103   5.328   2.828   3.439  0.4140 -0.3660 -0.4109
  111MOL    C8420104   5.308   2.933   3.327 -0.5756  0.1890 -0.6341
  111MOL    C8520105   5.175   3.010   3.346  0.3177 -0.2253 -0.4057
  111MOL    O8620106   5.098   3.002   3.438  0.0609  0.6494  0.0891
  111MOL    O8720107   5.147   3.095   3.243  0.0125  0.2851 -0.3208
  111MOL    H8820108   5.245   2.758   3.438 -1.0554  1.2456  2.3919
  111MOL    H8920109   5.424   2.778   3.422  0.8765 -0.2563  1.7624
  111MOL    H9020110   5.381   3.014   3.331 -1.2437  0.7924 -0.6230
  111MOL    H9120111   5.064   3.139   3.259  0.3507  0.6811  0.3623
  111MOL    C9220112   5.314   2.858   3.188 -1.1675 -0.2231  0.4632
  111MOL    C9320113   5.456   2.813   3.139 -0.8312  1.3855  0.1544
  111MOL    C9420114   5.522   2.944   3.090 -0.3689  0.5680 -0.0401
  111MOL    O9520115   5.509   2.992   2.977 -0.0421 -0.4292  0.4300
  111MOL    O9620116   5.601   2.997   3.189  0.6382 -0.0836  0.0963
  111MOL    H9720117   5.255   2.913   3.115  2.0178  2.6202 -0.0663
  111MOL    H9820118   5.250   2.771   3.200 -2.1880  0.3108 -0.9875
  111MOL    H9920119   5.517   2.759   3.211  0.2397  1.2306 -0.8577
  111MOL   H10020120   5.612   2.941   3.264  1.4927 -1.9462 -1.3981
  111MOL   C10120121   5.432   2.706   3.024  0.2317 -0.0346  0.1227
  111MOL   C10220122   5.556   2.637   2.948  0.2808 -0.4687  0.3193
  111MOL   C10320123   5.648   2.734   2.871 -0.7658 -0.3210 -0.4176
  111MOL   O10420124   5.603   2.785   2.767 -0.2865 -0.2001 -0.2445
  111MOL   O10520125   5.775   2.743   2.917  0.2543 -0.4166  0.3392
  111MOL   H10620126   5.365   2.750   2.950  1.1089  0.1906 -0.5444
  111MOL   H10720127   5.387   2.621   3.074  0.3863  1.1686  2.3459
  111MOL   H10820128   5.613   2.584   3.023  1.9982  0.8739  0.0095
  111MOL   H10920129   5.831   2.800   2.867 -0.0529 -1.7214 -1.5326
  111MOL   C11020130   5.511   2.523   2.859 -0.4401 -0.3036  0.6363
  111MOL   C11120131   5.429   2.407   2.916  0.0027 -0.2023  0.3721
  111MOL   C11220132   5.488   2.335   3.032  0.2246 -0.7462 -0.1915
  111MOL   O11320133   5.454   2.345   3.145  0.5594 -0.1330 -0.2945
  111MOL   O11420134   5.603   2.274   2.992  0.8820 -0.6470  0.0685
  111MOL   H11520135   5.598   2.469   2.822 -0.6232  0.4423 -0.9050
  111MOL   H11620136   5.452   2.564   2.776  1.5921  0.5391 -0.4259
  111MOL   H11720137   5.333   2.443   2.952  1.0717  2.0515  1.0354
  111MOL   H11820138   5.652   2.247   3.068 -0.3426 -0.4752  0.9390
  111MOL   C11920139   5.399   2.313   2.795  0.0758 -0.1222  0.4464
  111MOL   C12020140   5.342   2.170   2.834  0.1068 -0.1953 -0.3994
  111MOL   C12120141   5.391   2.071   2.723  0.5315  0.4918 -0.6833
  111MOL   O12220142   5.455   1.970   2.749 -0.3077 -0.0363  0.4046
  111MOL   O12320143   5.355   2.112   2.601 -0.5320 -0.1039 -0.1369
  111MOL   H12420144   5.487   2.294   2.734 -0.7534  0.2016 -0.8745
  111MOL   H12520145   5.317   2.355   2.736  0.9073  0.3152 -0.3928
  111MOL   H12620146   5.390   2.124   2.920 -1.1351 -1.8445 -0.5740
  111MOL   H12720147   5.396   2.055   2.537  0.0464 -0.9883  0.9984
  111MOL   C12820148   5.188   2.163   2.847  0.2360 -0.0176 -0.2291
  111MOL   C12920149   5.136   2.124   2.981  0.8202  0.0890 -0.1300
  111MOL   C13020150   5.153   1.973   3.019 -0.9937 -0.1944  0.2250
  111MOL   O13120151   5.160   1.872   2.944 -0.5600  0.4231 -0.3576
  111MOL   O13220152   5.170   1.969   3.156 -0.1502 -0.3503  0.1489
  111MOL   H13320153   5.138   2.104   2.770 -0.2522  0.7496 -0.4955
  111MOL   H13420154   5.149   2.260   2.818 -1.4561 -1.1834 -1.9761
  111MOL   H13520155   5.199   2.173   3.056  0.8698 -1.0455  0.5692
  111MOL   H13620156   5.179   1.877   3.179 -0.9449 -0.6497 -0.6954
  111MOL   C13720157   4.989   2.166   3.002 -0.5000  0.6898  0.6824
  111MOL   C13820158   4.977   2.314   3.044  1.1377  0.7285 -0.3945
  111MOL   C13920159   5.035   2.347   3.182 -0.2353 -0.1610 -0.3373
  111MOL   O14020160   5.031   2.267   3.276 -0.5693 -0.2876 -0.0109
  111MOL   O14120161   5.082   2.477   3.179 -0.3825 -0.5181  0.5884
  111MOL   H14220162   4.933   2.109   3.077  0.5993  2.0641  2.6003
  111MOL   H14320163   4.932   2.158   2.910  0.6990 -1.4776  0.0873
  111MOL   H14420164   5.046   2.367   2.978  2.6061 -1.0441 -0.3416
  111MOL   H14520165   5.122   2.501   3.262  2.0193 -2.6963  0.1102
  111MOL   C14620166   4.841   2.377   3.015 -0.6087  0.9147  0.3493
  111MOL   C14720167   4.819   2.429   2.871 -0.2837  0.5207  0.7649
  111MOL   C14820168   4.907   2.551   2.838  0.0058  0.0078  0.3568
  111MOL   O14920169   4.988   2.549   2.748 -0.8618  0.2567  0.3217
  111MOL   O15020170   4.880   2.652   2.928  0.6766 -0.1194  0.1910
  111MOL   H15120171   4.818   2.456   3.087  0.3646  0.9079  0.6820
  111MOL   H15220172   4.762   2.304   3.030  0.2661 -0.4974 -1.6675
  111MOL   H15320173   4.836   2.351   2.796 -1.4134  0.7231  0.2940
  111MOL   H15420174   4.933   2.727   2.904 -2.3314  1.9716 -0.2964
  111MOL   C15520175   4.666   2.464   2.854  0.7963  0.0045 -0.5986
  111MOL   C15620176   4.601   2.448   2.713  0.2265 -0.9156  0.4383
  111MOL   C15720177   4.584   2.300   2.679 -0.0325 -0.4872  0.0334
  111MOL   O15820178   4.515   2.226   2.756 -0.3277  0.1124  0.2210
  111MOL   O15920179   4.647   2.263   2.564  0.1680 -0.3915  0.5803
  111MOL   H16020180   4.651   2.567   2.885  0.1420 -0.0351 -0.7684
  111MOL   H16120181   4.594   2.407   2.912  1.1825  1.3092  1.1924
  111MOL   H16220182   4.499   2.486   2.719  0.7478  0.4435  0.8688
  111MOL   H16320183   4.636   2.170   2.549  1.2557 -0.7350  1.7962
  111MOL   C16420184   4.688   2.522   2.605 -1.1280 -0.3651  0.2301
  111MOL   C16520185   4.624   2.580   2.474 -0.1492  0.8110 -0.3519
  111MOL   C16620186   4.723   2.635   2.380  0.4640 -0.3416 -1.0604
  111MOL   O16720187   4.820   2.574   2.353  0.1342  0.1986  0.7355
  111MOL   O16820188   4.692   2.760   2.336 -0.3565 -0.4932 -0.1345
  111MOL   H16920189   4.777   2.466   2.576 -1.2655 -1.7409  2.3417
  111MOL   H17020190   4.708   2.613   2.661  0.0915  0.0766 -0.8877
  111MOL   H17120191   4.588   2.494   2.416 -0.9102  1.3331 -0.6679
  111MOL   H17220192   4.755   2.786   2.270 -0.6150  1.5498  0.3958
  111MOL   C17320193   4.492   2.671   2.494 -0.5545  0.0792  0.3760
  111MOL   C17420194   4.498   2.777   2.607  0.1201  0.1185  0.5741
  111MOL   C17520195   4.404   2.890   2.583  0.5286  0.4568  0.4334
  111MOL   O17620196   4.378   2.945   2.473  0.5031  0.0387  0.1930
  111MOL   O17720197   4.328   2.902   2.698 -0.5281 -0.4672  0.1047
  111MOL   H17820198   4.414   2.599   2.518  1.4997 -2.7647 -1.2287
  111MOL   H17920199   4.466   2.707   2.395 -3.2206 -0.0853  0.9800
  111MOL   H18020200   4.484   2.731   2.705  0.5951  0.3843  0.7724
  111MOL   H18120201   4.247   2.950   2.685  0.1527  0.8653  0.6734
  111MOL   H18220202   4.598   2.821   2.602  0.8372 -1.7042 -1.9029
  112MOL     C120203   4.628   6.339   6.711  0.5265 -0.7104  0.3104
  112MOL     C220204   4.503   6.402   6.775  0.2924  0.7582 -0.2363
  112MOL     C320205   4.540   6.526   6.862 -0.2102 -0.0029 -0.1943
  112MOL     O420206   4.544   6.522   6.983  0.7219 -0.5634  0.2597
  112MOL     O520207   4.555   6.637   6.791  0.0496  0.0653  0.4839
  112MOL     H620208   4.611   6.267   6.631 -2.1832 -0.3650  0.5171
  112MOL     H720209   4.710   6.404   6.681  0.1960 -0.9517 -1.1468
  112MOL     H820210   4.451   6.460   6.699 -0.8587  0.1715  0.0888
  112MOL     H920211   4.579   6.707   6.851 -2.9259 -1.1466  3.2274
  112MOL    H1020212   4.671   6.279   6.791 -0.8135 -0.1843  1.4605
  112MOL    C1120213   4.402   6.304   6.838  0.0933 -0.2092 -0.2243
  112MOL    C1220214   4.268   6.297   6.757 -0.2903 -0.3188 -0.2662
  112MOL    C1320215   4.174   6.422   6.777 -0.0317 -0.7831 -0.3972
  112MOL    O1420216   4.209   6.502   6.861  0.4587 -0.2706 -0.1828
  112MOL    O1520217   4.080   6.428   6.684  0.6326 -0.2436 -0.8807
  112MOL    H1620218   4.385   6.338   6.940  0.6248  1.4858 -0.6723
  112MOL    H1720219   4.451   6.207   6.844  0.4895  0.1226  2.0862
  112MOL    H1820220   4.296   6.295   6.652  0.0010  0.1448 -0.1957
  112MOL    H1920221   4.029   6.507   6.685 -1.3955 -1.5304  1.0687
  112MOL    C2020222   4.196   6.162   6.799  0.9004  0.1671 -0.1929
  112MOL    C2120223   4.224   6.044   6.694  0.2201 -0.8003  0.4456
  112MOL    C2220224   4.381   6.013   6.667 -0.0681  0.2139 -0.0184
  112MOL    O2320225   4.446   6.067   6.577 -0.4059  0.1610  0.0598
  112MOL    O2420226   4.419   5.908   6.754  0.3178  0.1717 -0.0687
  112MOL    H2520227   4.089   6.175   6.814  1.4120  3.6636  0.8368
  112MOL    H2620228   4.247   6.129   6.890 -0.0462 -1.0129 -0.0747
  112MOL    H2720229   4.189   5.957   6.750  1.6122 -1.4505  0.3324
  112MOL    H2820230   4.510   5.888   6.739  0.7302  0.8204  1.4848
  112MOL    C2920231   4.144   6.064   6.562  0.2511 -0.4215 -0.0203
  112MOL    C3020232   4.097   5.943   6.484  0.0115 -0.5224  0.0578
  112MOL    C3120233   4.201   5.836   6.458 -0.1175 -0.4959  0.3548
  112MOL    O3220234   4.223   5.742   6.529  0.3314 -0.0810 -0.1561
  112MOL    O3320235   4.272   5.852   6.342 -0.2942  0.2766  0.0205
  112MOL    H3420236   4.196   6.136   6.498 -0.8694  1.9743  1.6966
  112MOL    H3520237   4.054   6.119   6.589  0.4386  1.1544 -2.4308
  112MOL    H3620238   4.030   5.888   6.551 -0.3524  0.4317  0.4854
  112MOL    H3720239   4.318   5.770   6.329 -2.0301 -1.0366  1.8699
  112MOL    C3820240   4.008   5.977   6.362  0.2444  0.2998 -0.5203
  112MOL    C3920241   4.062   6.064   6.250  0.5004  0.1369 -0.9868
  112MOL    C4020242   4.043   6.210   6.271 -0.4382  0.0832 -0.0946
  112MOL    O4120243   3.965   6.258   6.343 -0.1557 -0.5654 -0.2798
  112MOL    O4220244   4.113   6.281   6.177  0.1954 -0.0158  0.9534
  112MOL    H4320245   3.912   6.011   6.402 -0.5393 -0.2897 -1.8581
  112MOL    H4420246   3.984   5.883   6.312 -0.1712 -0.2153  0.6337
  112MOL    H4520247   4.168   6.041   6.238  0.5065  0.3071 -1.2687
  112MOL    H4620248   4.074   6.367   6.172 -0.5841 -0.5185 -2.5214
  112MOL    C4720249   4.007   6.023   6.116  0.3458  0.0554  0.2433
  112MOL    C4820250   3.861   6.075   6.079  0.1924  0.3000 -0.6882
  112MOL    C4920251   3.758   5.988   6.149 -0.1940  0.9776  0.2656
  112MOL    O5020252   3.775   5.870   6.171  0.4179  0.5279  0.3004
  112MOL    O5120253   3.643   6.055   6.180  0.0832  0.1041  0.0317
  112MOL    H5220254   4.023   5.917   6.096 -0.7745 -0.0004 -0.3886
  112MOL    H5320255   4.070   6.077   6.045  0.0893  0.8224  0.5885
  112MOL    H5420256   3.847   6.176   6.116 -0.2462  0.4270 -1.2027
  112MOL    H5520257   3.568   6.005   6.208 -0.3354  0.4709 -0.4124
  112MOL    C5620258   3.838   6.051   5.923  0.3591  0.1228 -0.3994
  112MOL    C5720259   3.921   6.124   5.820  0.5645 -0.3794  0.1958
  112MOL    C5820260   3.901   6.284   5.828 -0.2530 -0.2906 -0.6997
  112MOL    O5920261   3.996   6.356   5.832  0.2014 -0.8893  0.0781
  112MOL    O6020262   3.774   6.319   5.804 -0.0596 -0.2532  0.0939
  112MOL    H6120263   3.732   6.070   5.911  0.3316  0.2575  0.0547
  112MOL    H6220264   3.847   5.944   5.904 -1.0757  0.2355 -1.7399
  112MOL    H6320265   4.025   6.110   5.849  0.7145  0.5389  0.1212
  112MOL    H6420266   3.718   6.244   5.787  0.7990 -1.1043  0.9620
  112MOL    C6520267   3.906   6.066   5.676  0.2913 -0.0583 -0.1251
  112MOL    C6620268   4.004   6.130   5.571  0.5832 -0.4466 -0.7558
  112MOL    C6720269   3.945   6.110   5.431  0.1494 -0.5564 -0.7235
  112MOL    O6820270   3.990   6.026   5.356  0.0900  0.0383 -0.0827
  112MOL    O6920271   3.850   6.203   5.399  0.2144 -0.2463 -0.1501
  112MOL    H7020272   3.805   6.096   5.647  0.8413  1.9729  0.0453
  112MOL    H7120273   3.916   5.957   5.672 -0.0459 -0.0888 -0.1341
  112MOL    H7220274   4.010   6.236   5.595 -3.7917 -0.4946  1.1448
  112MOL    H7320275   3.837   6.199   5.305 -0.7145  0.4750 -0.0567
  112MOL    C7420276   4.143   6.074   5.593  0.4208 -0.1568 -0.2378
  112MOL    C7520277   4.256   6.141   5.508 -0.6025  0.0988  0.8185
  112MOL    C7620278   4.327   6.032   5.427 -0.7134  0.1763  0.0976
  112MOL    O7720279   4.350   5.915   5.476  0.0897  0.1263  0.1575
  112MOL    O7820280   4.379   6.081   5.307  0.1359 -0.1326 -0.6911
  112MOL    H7920281   4.136   5.967   5.574 -1.4959 -0.1533  0.3405
  112MOL    H8020282   4.175   6.090   5.696 -1.4877 -1.6085  0.5988
  112MOL    H8120283   4.206   6.204   5.435  0.1135  1.8278  1.7871
  112MOL    H8220284   4.453   6.025   5.287 -0.1546 -0.3728 -1.1009
  112MOL    C8320285   4.349   6.243   5.577 -0.5751  0.1455  0.4679
  112MOL    C8420286   4.426   6.333   5.472 -0.8798  0.1113 -0.9361
  112MOL    C8520287   4.574   6.290   5.464  0.1147  0.6941  0.4371
  112MOL    O8620288   4.632   6.223   5.547  0.7257  0.3444  0.8743
  112MOL    O8720289   4.637   6.327   5.349  0.5713 -0.0840  0.0390
  112MOL    H8820290   4.422   6.196   5.644  1.4236  2.0214 -0.3171
  112MOL    H8920291   4.296   6.306   5.647  1.2113  2.4818 -0.2094
  112MOL    H9020292   4.378   6.322   5.374  1.6220 -3.6762 -1.8465
  112MOL    H9120293   4.726   6.295   5.347  1.3884  2.0366  0.1836
  112MOL    C9220294   4.419   6.494   5.488  0.1128  0.3968  0.3219
  112MOL    C9320295   4.282   6.553   5.455 -0.0222  0.7333 -0.4625
  112MOL    C9420296   4.302   6.702   5.448 -0.1883 -0.6858 -0.9876
  112MOL    O9520297   4.252   6.768   5.355  0.5333 -0.8107 -0.3661
  112MOL    O9620298   4.363   6.750   5.560 -0.4924  0.2551 -0.1865
  112MOL    H9720299   4.499   6.535   5.427  1.2762 -2.0770  0.1159
  112MOL    H9820300   4.457   6.511   5.588  1.5300  0.8704 -0.2919
  112MOL    H9920301   4.258   6.518   5.355  0.0858 -3.4866  0.8780
  112MOL   H10020302   4.353   6.844   5.562  1.3460  0.4484  1.6696
  112MOL   C10120303   4.162   6.519   5.548 -0.7566  0.5815 -0.6549
  112MOL   C10220304   4.031   6.596   5.524  0.2062 -0.3984 -1.0310
  112MOL   C10320305   3.991   6.681   5.651 -0.2245 -0.0893  0.4395
  112MOL   O10420306   3.968   6.799   5.637  0.0348  0.6710 -0.2527
  112MOL   O10520307   3.977   6.613   5.771  0.9671  0.3839  0.3555
  112MOL   H10620308   4.186   6.518   5.654 -0.1399  0.4013 -0.7949
  112MOL   H10720309   4.128   6.418   5.527  1.9709 -0.8140  1.4470
  112MOL   H10820310   4.048   6.670   5.446 -2.9153  1.8703  0.3552
  112MOL   H10920311   4.009   6.524   5.770  0.9578  0.3873 -1.2667
  112MOL   C11020312   3.910   6.515   5.470 -0.3588 -0.4899 -0.5088
  112MOL   C11120313   3.805   6.607   5.396 -0.2537 -0.1874  0.4650
  112MOL   C11220314   3.680   6.517   5.375  0.2815  0.1764  0.5266
  112MOL   O11320315   3.644   6.478   5.263  0.0267  0.2229  1.1655
  112MOL   O11420316   3.619   6.478   5.490  0.0587 -0.4293  0.3728
  112MOL   H11520317   3.869   6.455   5.552 -0.8916 -0.3941 -0.7021
  112MOL   H11620318   3.957   6.452   5.394 -1.3015 -1.1133 -0.5868
  112MOL   H11720319   3.780   6.693   5.457 -0.2369 -0.5642  1.0100
  112MOL   H11820320   3.556   6.413   5.465  0.3489 -0.8623  0.7684
  112MOL   C11920321   3.860   6.653   5.257  0.2472  0.0973 -0.2515
  112MOL   C12020322   3.780   6.768   5.192 -0.7329  0.5882 -0.0047
  112MOL   C12120323   3.804   6.779   5.037  0.4389  0.0090 -0.4045
  112MOL   O12220324   3.740   6.859   4.973  0.2078 -0.1414  0.6618
  112MOL   O12320325   3.876   6.683   4.976 -0.5057 -0.3131  0.4787
  112MOL   H12420326   3.871   6.563   5.196 -0.5363 -1.0156  1.2250
  112MOL   H12520327   3.964   6.684   5.265  0.5991 -1.2235  0.4374
  112MOL   H12620328   3.674   6.744   5.196 -0.5995  0.1720  1.1929
  112MOL   H12720329   3.882   6.697   4.883  2.2871 -2.6159  0.2610
  112MOL   C12820330   3.794   6.904   5.268 -0.0735  0.1816  0.0235
  112MOL   C12920331   3.939   6.964   5.272 -0.3362 -0.0758  0.3823
  112MOL   C13020332   3.964   7.062   5.382 -0.2563  0.7031 -0.0600
  112MOL   O13120333   4.075   7.075   5.432 -0.0972 -0.6229  0.1612
  112MOL   O13220334   3.860   7.138   5.427  0.5075 -0.4587  0.3175
  112MOL   H13320335   3.753   6.901   5.369  0.5444  2.7134  0.3936
  112MOL   H13420336   3.732   6.979   5.219  0.5739  0.9101  0.3059
  112MOL   H13520337   4.008   6.880   5.285  0.7660  1.1561  2.8126
  112MOL   H13620338   3.781   7.144   5.375  0.5004 -1.5472  0.1938
  112MOL   C13720339   3.965   7.044   5.140 -0.2763 -0.5303  0.4569
  112MOL   C13820340   4.121   7.041   5.102 -0.2378 -0.1605  0.0332
  112MOL   C13920341   4.156   7.187   5.056 -0.0677  0.5667 -0.4419
  112MOL   O14020342   4.159   7.212   4.937 -0.0276 -0.2595  0.5440
  112MOL   O14120343   4.188   7.269   5.158  0.0350  0.2289  0.1557
  112MOL   H14220344   3.916   7.140   5.159  1.1249  0.4356 -0.7636
  112MOL   H14320345   3.911   7.007   5.053  1.2514  2.5364 -1.8814
  112MOL   H14420346   4.185   7.024   5.189  0.7926 -1.5829 -0.9841
  112MOL   H14520347   4.194   7.358   5.126 -1.0303  0.3496  0.2854
  112MOL   C14620348   4.155   6.923   5.011  0.1525  0.3740  0.4211
  112MOL   C14720349   4.297   6.867   5.003  0.4518  0.6044  0.4936
  112MOL   C14820350   4.401   6.960   4.947  0.7427 -1.1967  0.2790
  112MOL   O14920351   4.423   6.961   4.823  0.0130 -0.1247 -0.6408
  112MOL   O15020352   4.465   7.055   5.028  0.4124  0.2825 -0.0266
  112MOL   H15120353   4.133   6.946   4.907  0.7805 -0.9559 -0.0064
  112MOL   H15220354   4.086   6.844   5.042 -1.0693  1.3666  0.2922
  112MOL   H15320355   4.341   6.838   5.099 -1.0415 -0.8004  0.7825
  112MOL   H15420356   4.520   7.100   4.966 -1.2587  0.6441 -1.2866
  112MOL   C15520357   4.297   6.730   4.924  0.2973 -0.5655 -0.6311
  112MOL   C15620358   4.300   6.599   5.003  0.2546 -0.6423  0.2919
  112MOL   C15720359   4.445   6.571   5.054 -0.4597 -0.0991  0.4857
  112MOL   O15820360   4.541   6.639   5.022 -0.1724  0.2776 -0.0132
  112MOL   O15920361   4.451   6.467   5.145 -0.3126  0.3081 -0.0730
  112MOL   H16020362   4.381   6.720   4.856  0.6210  0.4075 -0.3732
  112MOL   H16120363   4.215   6.725   4.853 -1.0334  0.5990  0.7976
  112MOL   H16220364   4.246   6.611   5.097 -0.2623  1.2847 -0.2148
  112MOL   H16320365   4.538   6.450   5.179  0.0006  1.2314 -0.3901
  112MOL   C16420366   4.234   6.481   4.928 -0.0357 -0.4938 -0.4689
  112MOL   C16520367   4.116   6.417   4.998 -0.1345  0.0967 -0.4668
  112MOL   C16620368   4.168   6.331   5.125  0.9339  0.2402  0.3058
  112MOL   O16720369   4.119   6.341   5.241 -0.4073  0.5031 -0.9973
  112MOL   O16820370   4.265   6.248   5.089  0.1586  0.2422 -0.8738
  112MOL   H16920371   4.301   6.402   4.894 -1.5593 -2.5685  1.1678
  112MOL   H17020372   4.197   6.523   4.835  0.2331  0.6891 -0.0402
  112MOL   H17120373   4.048   6.493   5.038  0.5636 -0.9129  2.7850
  112MOL   H17220374   4.283   6.192   5.163 -1.7606  0.8525  0.1015
  112MOL   C17320375   4.032   6.315   4.914  0.0725  0.5253  0.0996
  112MOL   C17420376   3.936   6.386   4.810  0.8969 -1.1083 -0.0051
  112MOL   C17520377   3.861   6.283   4.719  0.4870  0.0290  0.6768
  112MOL   O17620378   3.795   6.309   4.618  0.0802  0.3535 -0.0300
  112MOL   O17720379   3.882   6.155   4.761 -0.2444 -0.2884 -0.1366
  112MOL   H17820380   3.974   6.263   4.990 -0.4475  1.2041  0.1732
  112MOL   H17920381   4.103   6.243   4.874 -0.4356  0.9593 -1.5940
  112MOL   H18020382   3.860   6.429   4.874  1.8734  0.2223  0.2851
  112MOL   H18120383   3.841   6.084   4.713  1.3782 -0.5853 -1.1587
  112MOL   H18220384   3.980   6.469   4.755  0.2255 -0.4034  0.5067
  113MOL     C120385   6.501   2.534   5.206  0.0757 -0.3044  0.0245
  113MOL     C220386   6.631   2.500   5.275  0.0372  0.3674 -0.1093
  113MOL     C320387   6.691   2.630   5.345  0.1911 -0.2671  0.5760
  113MOL     O420388   6.778   2.694   5.283  0.2230 -0.1839  0.4493
  113MOL     O520389   6.640   2.654   5.469  0.0314 -0.1042 -0.3240
  113MOL     H620390   6.435   2.452   5.180 -0.7732  0.8574 -1.5210
  113MOL     H720391   6.444   2.604   5.266 -0.6643 -0.7989 -0.0958
  113MOL     H820392   6.601   2.424   5.347 -0.0307 -2.0517 -2.5884
  113MOL     H920393   6.688   2.730   5.499 -0.4871 -0.2565  0.9112
  113MOL    H1020394   6.527   2.596   5.121 -1.6964  0.2608 -0.1158
  113MOL    C1120395   6.730   2.430   5.176 -0.4558  0.5258 -0.3550
  113MOL    C1220396   6.846   2.353   5.241 -0.3179 -1.2878  0.9053
  113MOL    C1320397   6.941   2.280   5.144  0.0977 -0.0709  0.5611
  113MOL    O1420398   7.063   2.269   5.178 -0.0042 -0.2715  0.1374
  113MOL    O1520399   6.886   2.234   5.032 -0.2628 -0.2917  0.6665
  113MOL    H1620400   6.761   2.505   5.104 -1.2751  0.5294 -0.7107
  113MOL    H1720401   6.672   2.361   5.115 -0.6525  1.3535 -1.1179
  113MOL    H1820402   6.908   2.429   5.290 -1.0260 -1.7051  2.4504
  113MOL    H1920403   6.959   2.198   4.983  0.4732  0.7578  0.9691
  113MOL    C2020404   6.813   2.264   5.360 -0.1400 -0.4568  0.2694
  113MOL    C2120405   6.731   2.139   5.338  0.2213  0.8481  0.3956
  113MOL    C2220406   6.585   2.161   5.283 -0.3608  0.3151 -0.3058
  113MOL    O2320407   6.495   2.221   5.337  0.0866 -0.4553  0.2419
  113MOL    O2420408   6.577   2.105   5.164  0.8295  0.3550 -0.1322
  113MOL    H2520409   6.777   2.324   5.444  3.6729  2.6115 -0.1348
  113MOL    H2620410   6.911   2.232   5.393  0.1873 -0.8023 -1.0246
  113MOL    H2720411   6.781   2.081   5.260  2.3846 -1.7855  3.6033
  113MOL    H2820412   6.489   2.125   5.134  0.8137 -0.0667 -0.3796
  113MOL    C2920413   6.727   2.056   5.471  0.2027  0.0663  0.1641
  113MOL    C3020414   6.792   1.917   5.460  0.5501 -0.2688 -0.6069
  113MOL    C3120415   6.693   1.805   5.437  0.0905  0.3648  0.3425
  113MOL    O3220416   6.694   1.700   5.497  0.1816 -0.2080 -0.9589
  113MOL    O3320417   6.613   1.832   5.334  0.0784  0.3126  0.0616
  113MOL    H3420418   6.624   2.048   5.507 -0.1865  1.2022 -0.6665
  113MOL    H3520419   6.775   2.120   5.545  3.4705 -1.1980 -0.7883
  113MOL    H3620420   6.851   1.907   5.369 -0.4959  0.1400 -1.3387
  113MOL    H3720421   6.534   1.782   5.322  1.6517 -1.8162 -1.7797
  113MOL    C3820422   6.880   1.880   5.573 -0.7012  0.2521 -0.2681
  113MOL    C3920423   7.005   1.959   5.594  0.5417  0.1158 -0.0875
  113MOL    C4020424   7.126   1.931   5.507 -0.3967  0.2531 -0.2890
  113MOL    O4120425   7.236   1.909   5.561 -0.0077 -0.2633  1.0234
  113MOL    O4220426   7.108   1.946   5.376  0.4154 -0.0519  0.0766
  113MOL    H4320427   6.931   1.788   5.542  0.0994 -0.0052  1.6757
  113MOL    H4420428   6.819   1.863   5.662 -0.7906  1.5362 -0.0747
  113MOL    H4520429   6.981   2.059   5.558 -0.1029  0.5271  1.4720
  113MOL    H4620430   7.193   1.962   5.338  1.4691 -0.0481  2.3809
  113MOL    C4720431   7.047   1.939   5.746  0.2939 -0.2068 -0.1589
  113MOL    C4820432   7.142   2.055   5.802  0.3078  0.3666  0.4325
  113MOL    C4920433   7.264   1.982   5.876  0.0560  0.1906 -0.3105
  113MOL    O5020434   7.276   1.974   5.994 -0.0064 -0.3815  0.4165
  113MOL    O5120435   7.349   1.921   5.794  0.2057  0.4338 -0.0585
  113MOL    H5220436   7.085   1.839   5.771  0.1999 -0.8931 -2.5445
  113MOL    H5320437   6.955   1.951   5.802  0.5374  2.2701 -0.2476
  113MOL    H5420438   7.184   2.100   5.712 -0.7832  0.2369 -0.1402
  113MOL    H5520439   7.321   1.939   5.705 -0.0294  1.2090  0.1668
  113MOL    C5620440   7.074   2.162   5.890 -0.2720 -0.0849  0.6308
  113MOL    C5720441   6.956   2.235   5.819 -0.4646  0.6132 -1.0922
  113MOL    C5820442   7.014   2.346   5.729 -0.0326 -0.0156 -0.1924
  113MOL    O5920443   7.020   2.464   5.760  0.2939 -0.7715 -0.2599
  113MOL    O6020444   7.071   2.297   5.614 -0.4945 -0.1589 -0.1182
  113MOL    H6120445   7.141   2.241   5.922 -0.3422  0.8412 -1.4258
  113MOL    H6220446   7.028   2.105   5.971  1.3153 -1.0008  0.9001
  113MOL    H6320447   6.917   2.160   5.751 -1.2970 -0.1024  0.1344
  113MOL    H6420448   7.109   2.368   5.564 -2.3747  0.3019 -0.9389
  113MOL    C6520449   6.852   2.290   5.920 -0.0580  0.2102 -0.4527
  113MOL    C6620450   6.727   2.207   5.920 -0.0280 -0.0048  0.0295
  113MOL    C6720451   6.634   2.248   5.807  0.4419 -0.3590  0.0163
  113MOL    O6820452   6.673   2.319   5.715 -0.4802 -0.5822 -0.0277
  113MOL    O6920453   6.508   2.194   5.807 -0.0201  0.2156  0.0669
  113MOL    H7020454   6.827   2.391   5.890 -0.3059  1.5045  3.8556
  113MOL    H7120455   6.894   2.300   6.020 -1.5214 -4.4141  0.7565
  113MOL    H7220456   6.751   2.101   5.919  0.1724  0.0454 -0.5775
  113MOL    H7320457   6.461   2.221   5.730 -2.0892 -0.7150  0.9571
  113MOL    C7420458   6.656   2.226   6.053  0.8594  0.7341 -0.0182
  113MOL    C7520459   6.708   2.148   6.178  0.1843  0.1735 -0.4423
  113MOL    C7620460   6.666   2.001   6.194 -0.1447 -0.1301 -0.2497
  113MOL    O7720461   6.602   1.960   6.291 -0.0360  0.3666  0.1781
  113MOL    O7820462   6.728   1.919   6.107  1.0465 -0.0299 -0.9701
  113MOL    H7920463   6.551   2.198   6.041  0.4348  2.1510  0.2462
  113MOL    H8020464   6.659   2.333   6.076  0.0707  0.4956  1.2693
  113MOL    H8120465   6.817   2.145   6.176  0.2195 -0.0915  1.1831
  113MOL    H8220466   6.707   1.830   6.132  0.3541  0.8110  1.5210
  113MOL    C8320467   6.687   2.233   6.307  0.4131  0.0128  0.1500
  113MOL    C8420468   6.801   2.337   6.331 -0.2449 -0.2122  0.3764
  113MOL    C8520469   6.917   2.279   6.409  0.3171 -0.3448  0.1412
  113MOL    O8620470   7.028   2.255   6.362 -0.1587  0.1090  0.6442
  113MOL    O8720471   6.880   2.251   6.539  0.7329 -0.2095 -0.6826
  113MOL    H8820472   6.673   2.182   6.403  1.0428  1.7762  1.1994
  113MOL    H8920473   6.590   2.278   6.287  0.4008  1.0938  2.4978
  113MOL    H9020474   6.848   2.364   6.236  1.5787 -2.0396  0.7206
  113MOL    H9120475   6.959   2.230   6.587  0.4307 -1.3280 -0.6651
  113MOL    C9220476   6.752   2.477   6.383  0.0394 -0.7668 -0.2141
  113MOL    C9320477   6.836   2.608   6.374 -1.2786  0.5694 -0.3149
  113MOL    C9420478   6.855   2.644   6.231  0.1191 -0.1612 -0.0567
  113MOL    O9520479   6.765   2.716   6.177 -0.4473  0.2370  0.5975
  113MOL    O9620480   6.970   2.597   6.169 -0.3899 -0.0458  0.0808
  113MOL    H9720481   6.723   2.457   6.486 -1.6285 -0.3102 -0.5755
  113MOL    H9820482   6.659   2.509   6.336  0.9060  2.2967  0.0794
  113MOL    H9920483   6.782   2.694   6.413  1.8192  2.3704  0.1560
  113MOL   H10020484   6.989   2.649   6.092  2.1115 -1.1670 -0.0977
  113MOL   C10120485   6.968   2.610   6.456  1.1227  0.0849  0.0511
  113MOL   C10220486   6.946   2.624   6.612 -0.0286  0.0817  0.5881
  113MOL   C10320487   6.930   2.770   6.661 -0.1226 -0.4755 -0.6325
  113MOL   O10420488   6.821   2.810   6.718 -0.2240 -0.3218  0.0679
  113MOL   O10520489   7.039   2.842   6.634 -0.5183  0.0050  0.8295
  113MOL   H10620490   7.030   2.697   6.433  0.7692  0.6130  1.0499
  113MOL   H10720491   7.029   2.522   6.437 -2.0579 -2.5515  1.5577
  113MOL   H10820492   6.846   2.586   6.635 -0.1093  0.8365  1.5156
  113MOL   H10920493   7.020   2.934   6.649  1.4037  1.3955 -4.1452
  113MOL   C11020494   7.060   2.552   6.701 -0.3234  0.3293 -0.1035
  113MOL   C11120495   7.030   2.535   6.859  0.1636  0.4906 -0.7244
  113MOL   C11220496   6.891   2.472   6.889 -0.6390  0.8703  0.2024
  113MOL   O11320497   6.812   2.529   6.957 -0.5762  0.3226  0.0274
  113MOL   O11420498   6.868   2.354   6.819 -0.3808  0.1191  0.1571
  113MOL   H11520499   7.157   2.600   6.698 -0.3764  0.5392  1.2845
  113MOL   H11620500   7.071   2.451   6.662  0.8840  1.1544 -1.9505
  113MOL   H11720501   7.089   2.454   6.903  1.0185  1.7854  0.5575
  113MOL   H11820502   6.779   2.323   6.821 -0.2640 -0.1954  0.4441
  113MOL   C11920503   7.074   2.642   6.956 -0.4847 -0.3149 -0.6165
  113MOL   C12020504   7.229   2.652   6.990  0.4755 -0.1123 -0.1845
  113MOL   C12120505   7.251   2.550   7.102  0.0945 -0.5332  0.8286
  113MOL   O12220506   7.164   2.473   7.137 -0.3939  0.3493  0.0679
  113MOL   O12320507   7.380   2.554   7.147 -0.2297  0.0484 -0.2527
  113MOL   H12420508   7.019   2.648   7.050  1.2687  1.9645  0.2956
  113MOL   H12520509   7.031   2.736   6.920 -0.4088  0.3492  1.0072
  113MOL   H12620510   7.289   2.606   6.912  0.6099 -0.0804 -0.1009
  113MOL   H12720511   7.398   2.501   7.224  1.2864 -0.5186 -0.9708
  113MOL   C12820512   7.286   2.794   7.018  0.1691  0.4112 -0.3735
  113MOL   C12920513   7.251   2.897   6.900 -0.8463 -0.1715 -0.1599
  113MOL   C13020514   7.347   2.883   6.784  0.2263  0.5142 -0.7516
  113MOL   O13120515   7.441   2.808   6.794  0.1538 -0.2354 -1.1434
  113MOL   O13220516   7.313   2.957   6.674 -0.0741 -0.1402 -0.7543
  113MOL   H13320517   7.389   2.785   7.051 -0.7349 -0.1047  2.4558
  113MOL   H13420518   7.236   2.835   7.106  0.2881  0.8471 -0.5089
  113MOL   H13520519   7.148   2.887   6.866 -0.4052 -0.2195 -1.5175
  113MOL   H13620520   7.389   2.953   6.618 -1.1203 -2.8637 -2.0475
  113MOL   C13720521   7.264   3.042   6.965  0.3377  0.1343 -0.0959
  113MOL   C13820522   7.133   3.127   6.945 -0.4254  0.1827  0.0302
  113MOL   C13920523   7.166   3.275   6.929 -0.5864 -0.4202  0.7382
  113MOL   O14020524   7.112   3.354   6.860 -0.2595 -0.4190 -0.1918
  113MOL   O14120525   7.258   3.315   7.021 -0.1858 -0.3391  0.4131
  113MOL   H14220526   7.345   3.104   6.928  0.9218 -1.4551 -1.5872
  113MOL   H14320527   7.294   3.043   7.070  2.2710  3.0708 -0.6300
  113MOL   H14420528   7.084   3.097   6.853  2.7969  0.3819 -1.8124
  113MOL   H14520529   7.254   3.409   7.019 -1.7167 -0.4012  0.1110
  113MOL   C14620530   7.040   3.086   7.055 -0.4431 -0.5297 -0.1921
  113MOL   C14720531   6.897   3.157   7.064 -0.0020 -0.4992  0.6643
  113MOL   C14820532   6.917   3.289   7.144 -0.9975 -0.2920 -0.7014
  113MOL   O14920533   6.913   3.404   7.095 -0.4176 -0.0026  0.0124
  113MOL   O15020534   6.935   3.260   7.273 -0.7422 -0.3545 -0.4255
  113MOL   H15120535   7.094   3.107   7.148 -1.6932  1.1245  0.1993
  113MOL   H15220536   7.032   2.978   7.045 -0.6653 -0.4934 -0.3981
  113MOL   H15320537   6.864   3.192   6.966  2.7186  2.2024  0.6360
  113MOL   H15420538   6.955   3.341   7.317  2.4991 -2.5676  2.5571
  113MOL   C15520539   6.785   3.063   7.121 -0.3241  0.1610  0.6225
  113MOL   C15620540   6.636   3.105   7.132 -0.1973 -1.0211 -0.1594
  113MOL   C15720541   6.603   3.171   7.266  0.2754 -0.7781  1.1130
  113MOL   O15820542   6.560   3.285   7.272 -0.8949 -0.1203 -0.3483
  113MOL   O15920543   6.623   3.098   7.380  0.1905  0.0127 -0.0967
  113MOL   H16020544   6.824   3.028   7.217  2.7546 -1.2029 -1.0354
  113MOL   H16120545   6.807   2.980   7.055  1.4745  0.9789  0.1381
  113MOL   H16220546   6.618   3.175   7.050  0.5609  0.1273  0.6310
  113MOL   H16320547   6.610   3.155   7.454 -0.8279  0.9571 -0.9882
  113MOL   C16420548   6.542   2.977   7.109 -0.5044 -0.9586 -0.1700
  113MOL   C16520549   6.390   2.991   7.099 -0.5481  0.2829  0.3422
  113MOL   C16620550   6.349   3.086   6.975 -0.1862 -0.6872  0.1573
  113MOL   O16720551   6.342   3.206   6.979  0.4775 -0.1025  0.0515
  113MOL   O16820552   6.331   3.017   6.855  0.4497  0.5341  0.9684
  113MOL   H16920553   6.562   2.911   7.194 -3.0747  0.8886  1.9635
  113MOL   H17020554   6.572   2.928   7.017 -2.8997  0.0707 -1.5365
  113MOL   H17120555   6.350   2.896   7.063 -0.2833 -0.7796  2.7691
  113MOL   H17220556   6.334   2.924   6.871  1.6467  0.9008  3.0820
  113MOL   C17320557   6.310   3.019   7.225 -0.3342 -0.4279 -0.1766
  113MOL   C17420558   6.156   3.032   7.216 -0.5573 -0.1778  0.2778
  113MOL   C17520559   6.091   3.019   7.349 -0.3982  0.1083 -0.0194
  113MOL   O17620560   6.147   3.021   7.460 -0.2260 -0.1559  0.0955
  113MOL   O17720561   5.958   3.028   7.338  0.1370 -0.3372  0.2178
  113MOL   H17820562   6.343   3.109   7.277 -0.7687  0.2590 -1.0755
  113MOL   H17920563   6.333   2.937   7.293 -1.8924 -2.8395 -2.4724
  113MOL   H18020564   6.126   3.125   7.167  1.2589  0.5635  0.5352
  113MOL   H18120565   5.909   3.046   7.416 -0.2272  1.1628 -0.3419
  113MOL   H18220566   6.119   2.949   7.156 -0.5841 -0.4621  0.6936
  114MOL     C120567   6.916   6.520   3.749 -0.1011  0.2679 -0.1883
  114MOL     C220568   7.001   6.641   3.795  0.2763  0.0123  0.5760
  114MOL     C320569   6.929   6.763   3.828 -0.7436 -0.4266  0.9927
  114MOL     O420570   6.942   6.864   3.759  0.8935  0.1749  0.1587
  114MOL     O520571   6.832   6.755   3.919 -0.2364 -0.2935 -0.0001
  114MOL     H620572   6.817   6.521   3.796  0.3132 -1.2725  0.7662
  114MOL     H720573   6.903   6.503   3.642 -0.7569  0.3681 -0.1321
  114MOL     H820574   7.039   6.608   3.892  0.4976 -0.1113  0.4488
  114MOL     H920575   6.789   6.838   3.932 -0.5609 -0.2892 -1.0399
  114MOL    H1020576   6.961   6.431   3.793 -1.6746 -0.3975  0.1128
  114MOL    C1120577   7.121   6.657   3.698 -0.2876 -0.7875  0.1576
  114MOL    C1220578   7.258   6.626   3.767 -0.7856  0.2014  0.4657
  114MOL    C1320579   7.272   6.474   3.794 -0.7913 -0.0711  0.0505
  114MOL    O1420580   7.332   6.392   3.723 -0.5022 -0.0701 -0.0002
  114MOL    O1520581   7.206   6.436   3.910 -0.0591 -0.3685  0.1622
  114MOL    H1620582   7.123   6.761   3.664  0.1055  0.1160  2.8202
  114MOL    H1720583   7.114   6.595   3.609 -0.1266  1.9962 -1.8763
  114MOL    H1820584   7.341   6.650   3.700 -1.1761 -1.1386 -0.5267
  114MOL    H1920585   7.229   6.347   3.929  3.7887  0.2122 -1.4492
  114MOL    C2020586   7.284   6.713   3.901 -0.4122 -0.6794 -0.3546
  114MOL    C2120587   7.437   6.744   3.935 -0.2259 -0.8249 -0.3351
  114MOL    C2220588   7.480   6.864   3.854  0.0210 -0.6424  0.3394
  114MOL    O2320589   7.421   6.975   3.862  0.1586 -0.1246 -0.6425
  114MOL    O2420590   7.576   6.843   3.763  0.0692  0.0364  0.3179
  114MOL    H2520591   7.249   6.663   3.991 -3.0079  0.1288 -0.8643
  114MOL    H2620592   7.227   6.806   3.894  0.4513 -0.1660 -0.5340
  114MOL    H2720593   7.429   6.780   4.038 -0.4131  0.3744 -0.7635
  114MOL    H2820594   7.603   6.927   3.728  0.4983 -0.1797  0.1262
  114MOL    C2920595   7.526   6.623   3.946 -0.3932  0.1664 -0.2208
  114MOL    C3020596   7.502   6.538   4.077  0.8585 -0.3556 -0.2132
  114MOL    C3120597   7.534   6.611   4.210  0.0278  0.0190 -0.1937
  114MOL    O3220598   7.501   6.561   4.313 -0.3398  0.4825  0.2981
  114MOL    O3320599   7.612   6.726   4.203  0.2511  0.0909  0.0852
  114MOL    H3420600   7.628   6.661   3.951 -1.0718  2.0326 -0.2692
  114MOL    H3520601   7.530   6.565   3.854 -2.7798  0.6478 -0.6563
  114MOL    H3620602   7.398   6.504   4.076  0.6542  0.2482 -1.1754
  114MOL    H3720603   7.597   6.776   4.281  0.0460 -1.2821  0.9427
  114MOL    C3820604   7.584   6.405   4.074  0.3906  0.0384 -0.2114
  114MOL    C3920605   7.741   6.409   4.079  0.3101 -0.3685  0.0552
  114MOL    C4020606   7.805   6.375   3.944  0.1435 -0.7571  0.1097
  114MOL    O4120607   7.748   6.315   3.855 -0.1315 -0.7594 -0.5199
  114MOL    O4220608   0.076   6.430   3.929 -0.4981  0.0317 -0.1861
  114MOL    H4320609   7.555   6.360   3.979 -0.8405  2.4071 -0.9790
  114MOL    H4420610   7.541   6.346   4.155 -0.1732  0.5258 -0.1562
  114MOL    H4520611   7.762   6.514   4.097 -1.4387  0.1948 -1.0469
  114MOL    H4620612   0.109   6.425   3.841  2.2559  1.8672  0.6834
  114MOL    C4720613   7.798   6.333   4.202  0.1646 -0.4689 -1.1745
  114MOL    C4820614   0.079   6.378   4.258  0.3988  0.1492  0.1370
  114MOL    C4920615   0.210   6.330   4.185  0.5277  0.1929  0.0890
  114MOL    O5020616   0.239   6.214   4.163 -0.1213 -0.3295 -0.0961
  114MOL    O5120617   0.294   6.435   4.157  0.0358 -0.5501 -0.0442
  114MOL    H5220618   7.785   6.225   4.195  0.6278 -0.4452 -2.7696
  114MOL    H5320619   7.723   6.338   4.281 -0.8580 -0.6267 -2.1323
  114MOL    H5420620   0.081   6.487   4.251 -0.6215  0.2004  0.5514
  114MOL    H5520621   0.367   6.393   4.113 -0.3861 -4.4665  2.6569
  114MOL    C5620622   0.090   6.344   4.407  0.0385 -0.1033  0.9959
  114MOL    C5720623   0.196   6.422   4.490 -0.1357 -0.9500  0.2222
  114MOL    C5820624   0.206   6.346   4.621  0.7534  0.7426 -0.8098
  114MOL    O5920625   0.108   6.329   4.699  0.7520 -0.3402 -0.5070
  114MOL    O6020626   0.335   6.320   4.647 -0.2877 -0.8000  0.2038
  114MOL    H6120627   0.114   6.238   4.407 -2.8308 -0.7878  1.2466
  114MOL    H6220628   7.848   6.359   4.457 -0.8574 -1.6406 -0.2120
  114MOL    H6320629   0.289   6.416   4.433 -0.5077 -2.5568 -0.2294
  114MOL    H6420630   0.356   6.278   4.729 -1.1226 -2.4468 -0.3824
  114MOL    C6520631   0.153   6.574   4.508  0.0666 -0.7086 -0.2530
  114MOL    C6620632   0.262   6.676   4.553 -0.1690  0.5798 -0.6344
  114MOL    C6720633   0.200   6.785   4.631  0.3124  0.2738 -0.7612
  114MOL    O6820634   0.147   6.884   4.568  0.1459 -0.4793  0.3382
  114MOL    O6920635   0.193   6.754   4.762  0.6109 -0.1693 -0.2713
  114MOL    H7020636   0.061   6.583   4.566 -0.6260 -0.3097 -1.4001
  114MOL    H7120637   0.124   6.611   4.410 -2.1062  1.0545  0.9976
  114MOL    H7220638   0.323   6.628   4.630 -1.4028 -1.1993 -0.7453
  114MOL    H7320639   0.152   6.826   4.806  2.2460  0.2394  0.6500
  114MOL    C7420640   0.338   6.731   4.425 -0.0777  0.6297  0.2809
  114MOL    C7520641   0.454   6.830   4.464 -0.1218  0.6881 -0.6899
  114MOL    C7620642   0.507   6.898   4.339 -0.2639  0.7358  0.2195
  114MOL    O7720643   0.530   6.840   4.235 -0.0366  0.1913  0.2440
  114MOL    O7820644   0.519   7.032   4.355  0.0412  0.1162 -0.1990
  114MOL    H7920645   0.266   6.779   4.359  0.1504  0.4109 -0.1310
  114MOL    H8020646   0.378   6.643   4.374 -0.6068 -0.2935  1.4207
  114MOL    H8120647   0.418   6.909   4.529 -1.8612 -2.3172  2.1268
  114MOL    H8220648   0.561   7.082   4.287 -1.8555 -2.0037 -3.0873
  114MOL    C8320649   0.568   6.753   4.537 -0.2061 -0.2877 -0.1222
  114MOL    C8420650   0.627   6.842   4.650 -0.2056  0.1498  0.6362
  114MOL    C8520651   0.731   6.940   4.592 -0.6989  0.3242  0.9069
  114MOL    O8620652   0.729   7.067   4.593  0.1132  0.4086 -1.0233
  114MOL    O8720653   0.831   6.867   4.534 -0.5936 -0.0748 -0.4245
  114MOL    H8820654   0.637   6.718   4.460 -0.7351 -1.3705 -0.1048
  114MOL    H8920655   0.520   6.660   4.565 -1.0659  0.0199 -0.5318
  114MOL    H9020656   0.554   6.914   4.686 -0.2806  0.0211  0.7354
  114MOL    H9120657   0.907   6.917   4.505 -1.3755  0.9448 -0.7474
  114MOL    C9220658   0.693   6.757   4.765  0.1117  0.4069 -0.0016
  114MOL    C9320659   0.613   6.644   4.823 -0.6176 -0.1003 -0.5995
  114MOL    C9420660   0.478   6.684   4.874  0.6158 -0.4027 -0.5631
  114MOL    O9520661   0.440   6.796   4.894  0.0738 -0.3556 -0.3211
  114MOL    O9620662   0.397   6.576   4.905 -0.2992 -0.5422  1.0336
  114MOL    H9720663   0.714   6.826   4.847  2.1692 -0.1738 -0.0177
  114MOL    H9820664   0.782   6.706   4.730 -0.2333  0.1859 -0.5616
  114MOL    H9920665   0.599   6.578   4.737  1.1978 -0.4610 -0.6391
  114MOL   H10020666   0.321   6.609   4.949 -0.5469 -1.7620  1.5350
  114MOL   C10120667   0.690   6.560   4.932 -0.3096 -0.4827  0.0988
  114MOL   C10220668   0.773   6.441   4.860 -0.1461  0.0361  0.1104
  114MOL   C10320669   0.690   6.326   4.789  0.0192 -0.4716  0.1962
  114MOL   O10420670   0.569   6.321   4.797 -0.0811 -0.0362 -0.0243
  114MOL   O10520671   0.776   6.245   4.721 -0.1602  0.1347 -0.2186
  114MOL   H10620672   0.639   6.519   5.020  0.5178 -3.6161 -0.8137
  114MOL   H10720673   0.762   6.625   4.982 -0.5684  1.4182 -1.9643
  114MOL   H10820674   0.840   6.488   4.787  1.2432  0.2364  1.5004
  114MOL   H10920675   0.721   6.184   4.674 -2.1030 -0.0689  2.2157
  114MOL   C11020676   0.870   6.378   4.963 -0.4790  0.0825 -0.4552
  114MOL   C11120677   0.796   6.291   5.075  0.0114  0.7241 -0.2407
  114MOL   C11220678   0.847   6.319   5.214  0.0113  0.3521 -0.7433
  114MOL   O11320679   0.779   6.342   5.312 -0.7358 -0.0042 -0.2470
  114MOL   O11420680   0.984   6.294   5.222 -0.3995  0.0788  0.7080
  114MOL   H11520681   0.921   6.460   5.013  1.6150 -0.7505 -1.1738
  114MOL   H11620682   0.950   6.327   4.910  1.0994 -0.5603  2.4250
  114MOL   H11720683   0.694   6.329   5.085  0.4832  2.3336 -1.2978
  114MOL   H11820684   1.012   6.289   5.312  1.7230 -0.6065  0.0216
  114MOL   C11920685   0.776   6.137   5.052  0.1780 -0.0628  0.9029
  114MOL   C12020686   0.642   6.074   5.080 -0.3388  0.5306  0.4328
  114MOL   C12120687   0.594   6.078   5.231  0.3173 -0.3081 -0.0699
  114MOL   O12220688   0.511   6.158   5.276 -0.4323 -0.2002 -0.4366
  114MOL   O12320689   0.660   5.984   5.316  0.0103  0.0694  0.0788
  114MOL   H12420690   0.867   6.083   5.078 -1.1902 -2.3674  0.9996
  114MOL   H12520691   0.780   6.127   4.943  1.1543  1.4815  0.7838
  114MOL   H12620692   0.564   6.124   5.023 -1.0446  0.8479  1.6627
  114MOL   H12720693   0.657   6.005   5.408 -1.6999 -2.7983  0.7287
  114MOL   C12820694   0.648   5.920   5.030  0.2419  0.5438  0.3092
  114MOL   C12920695   0.501   5.854   5.018  0.0034 -0.1505  0.3900
  114MOL   C13020696   0.469   5.736   5.117 -0.5024  0.1209  0.2191
  114MOL   O13120697   0.550   5.680   5.191  0.3588  0.1917  0.0499
  114MOL   O13220698   0.341   5.703   5.107 -0.4876 -0.0007 -0.3383
  114MOL   H13320699   0.706   5.854   5.094 -0.2982  0.6697  0.9430
  114MOL   H13420700   0.692   5.923   4.930 -1.2565 -1.4156 -0.4268
  114MOL   H13520701   0.430   5.931   5.046  0.2475  0.3825 -0.4262
  114MOL   H13620702   0.310   5.636   5.166 -2.1799  0.3474 -0.7933
  114MOL   C13720703   0.481   5.798   4.872 -0.2610 -0.8057  0.0841
  114MOL   C13820704   0.450   5.908   4.776 -0.9022 -0.2411  0.2414
  114MOL   C13920705   0.333   5.996   4.819  0.8195 -0.9591  0.1059
  114MOL   O14020706   0.343   6.112   4.858 -0.7319 -0.3332 -0.0879
  114MOL   O14120707   0.215   5.930   4.798 -0.0421 -0.4202 -0.6400
  114MOL   H14220708   0.401   5.725   4.862 -1.0363 -0.1153  1.1842
  114MOL   H14320709   0.567   5.746   4.827 -0.2807 -1.4415  0.7753
  114MOL   H14420710   0.527   5.986   4.776 -0.5254 -0.6104 -0.0849
  114MOL   H14520711   0.136   5.980   4.811 -0.9682 -1.1311 -3.2811
  114MOL   C14620712   0.433   5.859   4.632 -0.6333 -0.5096 -0.2438
  114MOL   C14720713   0.540   5.898   4.526 -0.3928  0.2008  0.2966
  114MOL   C14820714   0.548   6.052   4.514 -0.1029  0.7923 -0.4420
  114MOL   O14920715   0.643   6.118   4.549 -0.6789  0.5896  0.0463
  114MOL   O15020716   0.431   6.102   4.463 -0.0187 -0.5967  0.2535
  114MOL   H15120717   0.336   5.888   4.591 -0.2838  0.7728 -0.1833
  114MOL   H15220718   0.423   5.751   4.634 -1.4601 -0.4313  0.1277
  114MOL   H15320719   0.636   5.857   4.557 -0.6082  1.4446  2.6374
  114MOL   H15420720   0.436   6.194   4.442 -1.5964 -0.3095  1.0324
  114MOL   C15520721   0.509   5.835   4.384 -0.3119 -0.0204 -0.2743
  114MOL   C15620722   0.625   5.837   4.280  0.4479  0.4945 -0.3271
  114MOL   C15720723   0.653   5.963   4.207 -0.3720 -0.1735  0.1418
  114MOL   O15820724   0.752   6.027   4.232  0.2740 -0.0229  0.1532
  114MOL   O15920725   0.562   5.995   4.111 -0.1126  0.3457  0.2401
  114MOL   H16020726   0.416   5.875   4.341 -0.3597  0.1654  0.0037
  114MOL   H16120727   0.492   5.729   4.403  0.7103  0.0707  1.1979
  114MOL   H16220728   0.721   5.821   4.329 -0.0718 -1.9769 -0.0316
  114MOL   H16320729   0.573   6.081   4.072  1.0580  0.4126  0.6931
  114MOL   C16420730   0.610   5.718   4.182  0.5269 -0.3828 -0.4871
  114MOL   C16520731   0.659   5.581   4.232  0.3824  0.5842  1.0350
  114MOL   C16620732   0.811   5.562   4.216  0.9393 -0.7427 -0.2554
  114MOL   O16720733   0.890   5.600   4.301  0.2410  0.2581  0.3533
  114MOL   O16820734   0.851   5.512   4.098  0.2013  0.0822 -0.1091
  114MOL   H16920735   0.669   5.752   4.096 -0.2753  1.7836 -0.2056
  114MOL   H17020736   0.509   5.722   4.143  0.6504 -1.0172 -0.8919
  114MOL   H17120737   0.637   5.570   4.338 -3.2367  3.4448  0.6932
  114MOL   H17220738   0.945   5.523   4.089  0.0276  0.5445 -1.4758
  114MOL   C17320739   0.581   5.473   4.149  0.3839  0.1039  0.0373
  114MOL   C17420740   0.440   5.469   4.212  0.9071  0.1668 -0.3887
  114MOL   C17520741   0.362   5.342   4.177 -0.2473 -0.7892  0.7817
  114MOL   O17620742   0.417   5.247   4.116  0.0055  0.2818  0.7865
  114MOL   O17720743   0.231   5.349   4.210 -0.3223 -0.0874 -0.3011
  114MOL   H17820744   0.634   5.378   4.152 -0.1603 -0.2334 -1.0549
  114MOL   H17920745   0.568   5.502   4.045  1.3204 -2.9475 -0.9976
  114MOL   H18020746   0.443   5.464   4.321 -2.4683 -1.3506 -0.2959
  114MOL   H18120747   0.176   5.284   4.170 -2.0526  0.5179  1.0362
  114MOL   H18220748   0.380   5.555   4.181  3.1834  1.6627 -0.7066
  115MOL     C120749   1.791   1.368   2.352 -0.0526 -0.0582 -0.7576
  115MOL     C220750   1.837   1.514   2.360 -0.0439  0.2394  0.5138
  115MOL     C320751   1.954   1.538   2.258  0.4463  0.2114  0.1184
  115MOL     O420752   2.077   1.541   2.285  0.4376 -0.1325  0.1449
  115MOL     O520753   1.901   1.541   2.134  0.5003  0.3974 -0.4342
  115MOL     H620754   1.704   1.352   2.417  1.4029 -1.0085  0.9970
  115MOL     H720755   1.784   1.338   2.248 -0.6191 -2.0439 -0.1682
  115MOL     H820756   1.758   1.584   2.334  0.9560  1.5347  0.8692
  115MOL     H920757   1.961   1.554   2.063  0.9022  2.1693  0.1945
  115MOL    H1020758   1.868   1.305   2.395 -0.7327 -0.6341 -0.3685
  115MOL    C1120759   1.880   1.530   2.504 -0.4447  0.1396 -0.0702
  115MOL    C1220760   1.924   1.678   2.539 -0.1259 -0.0917  0.2712
  115MOL    C1320761   2.040   1.677   2.637 -0.7805  0.6268  0.3753
  115MOL    O1420762   2.034   1.616   2.747 -0.7000 -0.4959  0.3622
  115MOL    O1520763   2.146   1.745   2.584  0.1399 -0.1230  0.6247
  115MOL    H1620764   1.962   1.460   2.524 -0.1776 -0.3520 -2.7126
  115MOL    H1720765   1.805   1.499   2.577  1.1007 -1.6774  0.8027
  115MOL    H1820766   1.958   1.724   2.446  0.5033 -1.6123 -0.2682
  115MOL    H1920767   2.225   1.730   2.633  1.2680 -0.5591 -1.2799
  115MOL    C2020768   1.796   1.754   2.599 -0.5054 -0.3942  0.0537
  115MOL    C2120769   1.792   1.910   2.568 -0.2972  0.0976 -0.1105
  115MOL    C2220770   1.772   1.942   2.420 -0.5022  0.2080 -0.5051
  115MOL    O2320771   1.725   1.856   2.343 -0.4154 -0.0497  0.6918
  115MOL    O2420772   1.818   2.068   2.382 -0.0527  0.1096 -0.1070
  115MOL    H2520773   1.785   1.733   2.706  2.4033  1.6262  0.8181
  115MOL    H2620774   1.712   1.705   2.551 -0.4111  0.3572 -0.8784
  115MOL    H2720775   1.696   1.934   2.614  0.3305  1.9337  0.2802
  115MOL    H2820776   1.838   2.079   2.291  1.5975  3.2926  0.5415
  115MOL    C2920777   1.899   1.993   2.643 -0.3402  0.2298 -0.2709
  115MOL    C3020778   1.849   2.127   2.689 -0.5032 -0.5407  0.8233
  115MOL    C3120779   1.962   2.238   2.698  0.1931  0.2610  0.0429
  115MOL    O3220780   2.037   2.255   2.794 -0.6010  0.4951 -0.5872
  115MOL    O3320781   1.958   2.325   2.593 -0.4477 -0.0880  0.0570
  115MOL    H3420782   1.986   2.010   2.579 -0.4902 -0.6419 -0.7170
  115MOL    H3520783   1.931   1.940   2.733  1.1026  0.8624 -0.3953
  115MOL    H3620784   1.773   2.169   2.622 -0.3286 -3.0650 -1.0138
  115MOL    H3720785   2.007   2.405   2.607  0.6646 -0.5566 -1.0234
  115MOL    C3820786   1.761   2.124   2.821 -0.4587 -0.3790  0.6361
  115MOL    C3920787   1.708   2.251   2.885  0.6493  0.0377  0.6170
  115MOL    C4020788   1.659   2.226   3.027 -0.2653  0.4314  1.0503
  115MOL    O4120789   1.566   2.148   3.043 -0.4310  0.2143  0.2296
  115MOL    O4220790   1.717   2.293   3.125 -0.3600 -0.1621 -0.0339
  115MOL    H4320791   1.817   2.062   2.891  1.1656 -1.1387 -1.3104
  115MOL    H4420792   1.669   2.067   2.811  0.4137 -1.4826 -1.3540
  115MOL    H4520793   1.789   2.324   2.895  1.3353 -0.7686  1.0332
  115MOL    H4620794   1.679   2.276   3.210  2.2294  1.9630  1.6162
  115MOL    C4720795   1.597   2.315   2.804 -0.3986 -0.6895 -0.4933
  115MOL    C4820796   1.558   2.458   2.845 -0.2312  0.1388  0.1749
  115MOL    C4920797   1.418   2.492   2.807  0.3632 -0.0263 -0.2300
  115MOL    O5020798   1.392   2.585   2.730  0.0348 -0.1955 -0.2218
  115MOL    O5120799   1.323   2.417   2.867 -0.1956 -0.0363 -0.3713
  115MOL    H5220800   1.511   2.248   2.808  1.2880 -2.9494 -0.6317
  115MOL    H5320801   1.633   2.327   2.702 -1.0432 -1.0476 -0.7683
  115MOL    H5420802   1.555   2.469   2.954 -3.1552  3.2337 -0.1305
  115MOL    H5520803   1.233   2.434   2.843 -0.0184 -0.5026 -1.4164
  115MOL    C5620804   1.670   2.558   2.796 -0.1664 -0.1685  0.6478
  115MOL    C5720805   1.665   2.706   2.829  0.1714 -0.8381  0.1214
  115MOL    C5820806   1.746   2.796   2.726  0.3617 -0.4633  0.2769
  115MOL    O5920807   1.855   2.843   2.761  0.0999 -0.1417  0.6166
  115MOL    O6020808   1.688   2.812   2.607 -0.6069  0.2792 -0.4033
  115MOL    H6120809   1.672   2.550   2.687 -1.1231  0.5316  0.5684
  115MOL    H6220810   1.756   2.520   2.850 -0.2520 -0.4169  0.6107
  115MOL    H6320811   1.561   2.735   2.809  1.1266  3.0283  0.2223
  115MOL    H6420812   1.750   2.860   2.553  0.2558  0.6897  0.9150
  115MOL    C6520813   1.696   2.735   2.979 -0.3046 -1.4618 -0.1252
  115MOL    C6620814   1.681   2.880   3.034 -0.7534  0.5069 -0.1995
  115MOL    C6720815   1.817   2.930   3.082 -0.2359  0.0412  0.1019
  115MOL    O6820816   1.831   2.963   3.199 -0.3823  0.2125  0.0428
  115MOL    O6920817   1.911   2.939   2.988 -0.5313 -0.3960 -0.4681
  115MOL    H7020818   1.790   2.687   3.006  1.3101  1.0961 -0.9624
  115MOL    H7120819   1.620   2.680   3.033  0.6671  0.3584  3.3050
  115MOL    H7220820   1.651   2.946   2.953 -0.3041  1.5772  0.4900
  115MOL    H7320821   1.887   2.903   2.905  1.7895 -1.3174 -0.7742
  115MOL    C7420822   1.566   2.886   3.143  0.1271 -0.5296 -0.4702
  115MOL    C7520823   1.530   3.022   3.220  0.3865  0.0149  0.8606
  115MOL    C7620824   1.418   3.004   3.321 -0.4658 -0.0498  0.2854
  115MOL    O7720825   1.333   2.912   3.317  0.1506 -0.3385 -0.1045
  115MOL    O7820826   1.434   3.092   3.423  0.6191 -0.2418  0.2556
  115MOL    H7920827   1.592   2.809   3.216  1.3969 -1.0338 -1.4349
  115MOL    H8020828   1.481   2.837   3.096  1.0664 -1.0055 -1.7074
  115MOL    H8120829   1.623   3.044   3.272  2.0745 -2.4655 -1.0044
  115MOL    H8220830   1.370   3.077   3.490 -0.0713 -0.2789 -0.4076
  115MOL    C8320831   1.498   3.133   3.120  0.1533  0.5072  0.4793
  115MOL    C8420832   1.492   3.274   3.177 -0.1881  0.2648 -0.2406
  115MOL    C8520833   1.440   3.372   3.069 -0.0792  0.1399  1.0315
  115MOL    O8620834   1.321   3.410   3.068  0.8886 -0.2894  0.2444
  115MOL    O8720835   1.530   3.381   2.965 -0.1300  0.0513 -0.6351
  115MOL    H8820836   1.403   3.111   3.072  0.5937  0.3303 -0.3177
  115MOL    H8920837   1.560   3.123   3.031 -1.8953  1.9639 -1.1433
  115MOL    H9020838   1.419   3.274   3.258 -0.9249  0.5522 -0.8910
  115MOL    H9120839   1.479   3.427   2.899  1.5027  2.2640 -0.4314
  115MOL    C9220840   1.624   3.329   3.230 -0.4534  0.1407  0.7365
  115MOL    C9320841   1.609   3.436   3.339 -0.1004  0.1931  0.3421
  115MOL    C9420842   1.739   3.516   3.342  0.5507  0.2250 -0.3438
  115MOL    O9520843   1.849   3.458   3.349 -0.2540 -0.1232 -0.2393
  115MOL    O9620844   1.729   3.649   3.372 -0.0480  0.2132 -0.2384
  115MOL    H9720845   1.683   3.370   3.148  1.6861 -2.6299  0.8354
  115MOL    H9820846   1.696   3.253   3.261 -1.8909 -2.6379 -2.4172
  115MOL    H9920847   1.525   3.500   3.313 -0.6687 -1.7349 -2.7744
  115MOL   H10020848   1.817   3.685   3.379 -0.3125  0.7347  0.4853
  115MOL   C10120849   1.564   3.376   3.475 -0.1402 -0.6416 -0.4053
  115MOL   C10220850   1.564   3.463   3.595 -0.2082 -0.7483 -0.5929
  115MOL   C10320851   1.528   3.380   3.718 -0.3278  0.7942 -0.4413
  115MOL   O10420852   1.616   3.323   3.781 -0.3490  0.0084  0.3473
  115MOL   O10520853   1.400   3.368   3.752 -0.5656 -0.0067  0.3744
  115MOL   H10620854   1.619   3.285   3.498  0.1872 -0.6118 -1.0651
  115MOL   H10720855   1.462   3.336   3.470 -0.5119  0.4593 -1.8991
  115MOL   H10820856   1.669   3.490   3.609 -0.1466 -1.1950 -0.1841
  115MOL   H10920857   1.383   3.318   3.830  0.9589 -3.4427 -1.3703
  115MOL   C11020858   1.478   3.597   3.577 -0.1850  0.0964 -0.4838
  115MOL   C11120859   1.498   3.711   3.682  0.5523 -0.3851  0.1854
  115MOL   C11220860   1.385   3.813   3.665 -0.7629 -0.2931 -0.7674
  115MOL   O11320861   1.268   3.783   3.660 -0.0550 -0.4083  0.5525
  115MOL   O11420862   1.428   3.940   3.660  0.2594 -0.7083  0.2770
  115MOL   H11520863   1.373   3.569   3.579 -0.6583  1.8478  0.5694
  115MOL   H11620864   1.484   3.647   3.481  0.8299 -0.2160 -0.5992
  115MOL   H11720865   1.472   3.670   3.779  3.4102  0.2603  1.2662
  115MOL   H11820866   1.359   4.005   3.655 -0.0132 -1.0844 -0.9393
  115MOL   C11920867   1.640   3.770   3.684 -0.1716  0.6767  0.6604
  115MOL   C12020868   1.693   3.798   3.828 -0.2157 -0.5206  0.5706
  115MOL   C12120869   1.808   3.897   3.823 -0.2141 -0.1296 -0.6366
  115MOL   O12220870   1.900   3.899   3.740  0.6653  0.0620 -0.5004
  115MOL   O12320871   1.790   3.993   3.917  0.3311 -0.2271 -0.4893
  115MOL   H12420872   1.652   3.850   3.612  2.3487 -2.5864 -2.7386
  115MOL   H12520873   1.715   3.705   3.639 -0.2038  1.2480 -0.2115
  115MOL   H12620874   1.614   3.838   3.891  1.1538  0.9727  1.3635
  115MOL   H12720875   1.860   4.057   3.910 -0.4277  0.6591 -0.0586
  115MOL   C12820876   1.732   3.654   3.889 -0.2304  0.1649  0.2896
  115MOL   C12920877   1.698   3.621   4.037 -0.1551 -0.0568 -0.2777
  115MOL   C13020878   1.545   3.615   4.075  0.0649 -0.2862 -0.6296
  115MOL   O13120879   1.490   3.686   4.160 -0.6609  0.1386  0.1941
  115MOL   O13220880   1.480   3.519   3.999  0.0416  0.2767 -0.4195
  115MOL   H13320881   1.838   3.631   3.873 -0.8800 -1.5952 -1.7213
  115MOL   H13420882   1.674   3.581   3.834  0.0343  0.1954 -0.0336
  115MOL   H13520883   1.735   3.519   4.050  1.9584  0.5160 -1.5953
  115MOL   H13620884   1.391   3.517   4.030 -0.3630  2.3036 -1.3651
  115MOL   C13720885   1.780   3.717   4.124 -0.3453  0.0319 -0.1061
  115MOL   C13820886   1.935   3.717   4.108  0.4189 -1.0734  0.9816
  115MOL   C13920887   1.995   3.581   4.134  0.6496 -0.8215 -0.0062
  115MOL   O14020888   2.047   3.521   4.038  0.0473  0.4182  0.4172
  115MOL   O14120889   1.957   3.535   4.252  0.5869 -0.6171  0.1523
  115MOL   H14220890   1.769   3.693   4.230  1.0784  1.2347  0.3388
  115MOL   H14320891   1.740   3.818   4.116  0.6176  0.5482  1.2786
  115MOL   H14420892   1.969   3.748   4.009 -2.7758  0.6505  0.3631
  115MOL   H14520893   1.977   3.443   4.264  1.2444 -0.5668 -0.4915
  115MOL   C14620894   1.997   3.823   4.197 -0.3384 -0.2715  0.5486
  115MOL   C14720895   2.139   3.885   4.155  0.0962 -0.1009 -0.1592
  115MOL   C14820896   2.251   3.788   4.203  0.3170 -0.2255 -0.3016
  115MOL   O14920897   2.308   3.718   4.120 -0.1819 -0.6504 -0.2591
  115MOL   O15020898   2.255   3.784   4.340  0.2481  0.4068 -0.6540
  115MOL   H15120899   2.001   3.773   4.294 -0.0289 -0.6669  0.3325
  115MOL   H15220900   1.933   3.910   4.212  1.5127  1.2121 -0.0020
  115MOL   H15320901   2.160   3.905   4.050  3.9442  1.7410  0.8539
  115MOL   H15420902   2.329   3.729   4.364 -1.1140 -0.9679  0.5338
  115MOL   C15520903   2.171   4.026   4.221 -0.2888  0.3827 -0.3030
  115MOL   C15620904   2.082   4.141   4.169 -0.4014  0.2964 -0.2324
  115MOL   C15720905   2.092   4.149   4.012  0.3981 -0.5558  0.2909
  115MOL   O15820906   1.995   4.151   3.934  0.0936 -0.2360 -0.1066
  115MOL   O15920907   2.218   4.176   3.973  0.2946 -0.0045 -0.0490
  115MOL   H16020908   2.272   4.066   4.209  0.1043  1.0620  4.2345
  115MOL   H16120909   2.164   4.014   4.329 -2.6346  2.1122 -0.2145
  115MOL   H16220910   1.976   4.127   4.190 -0.6178 -0.6197 -1.8244
  115MOL   H16320911   2.230   4.185   3.880  1.0276 -4.5715 -0.4893
  115MOL   C16420912   2.124   4.279   4.236 -0.0145  0.1198 -0.4452
  115MOL   C16520913   2.041   4.405   4.210  0.4556  0.0313  0.3661
  115MOL   C16620914   2.054   4.464   4.071 -0.9052 -0.2168  0.4036
  115MOL   O16720915   1.963   4.473   3.998  0.2999  0.3182 -0.1507
  115MOL   O16820916   2.188   4.479   4.040 -0.5191  0.3351  0.0104
  115MOL   H16920917   2.227   4.301   4.208  0.3110 -1.8143 -0.8789
  115MOL   H17020918   2.140   4.263   4.343  0.7330 -0.5174 -0.6413
  115MOL   H17120919   1.938   4.373   4.229  0.2780  0.5692  0.3024
  115MOL   H17220920   2.252   4.469   4.109  0.7158  2.2702 -0.7835
  115MOL   C17320921   2.073   4.511   4.322 -0.1389  0.2124  0.7464
  115MOL   C17420922   1.973   4.635   4.328 -0.1737  0.3397  0.8229
  115MOL   C17520923   1.866   4.615   4.435 -0.5371 -0.7829 -0.3416
  115MOL   O17620924   1.828   4.715   4.500  0.2583 -0.1268 -0.4050
  115MOL   O17720925   1.808   4.491   4.439 -0.4071 -0.6386  0.1764
  115MOL   H17820926   2.179   4.538   4.320  0.6160 -2.6673 -0.9826
  115MOL   H17920927   2.057   4.453   4.413  2.6020 -1.2059  0.4032
  115MOL   H18020928   2.023   4.732   4.329 -1.2530  0.9384 -0.8026
  115MOL   H18120929   1.743   4.484   4.507  1.3322  0.3288  2.0233
  115MOL   H18220930   1.922   4.643   4.232 -2.1709 -1.4488  1.7056
  116MOL     C120931   6.393   0.619   3.435  0.0350  0.0559 -0.5786
  116MOL     C220932   6.321   0.494   3.487 -0.2355 -0.1218  0.7443
  116MOL     C320933   6.181   0.530   3.513 -0.2351  0.1086 -0.5698
  116MOL     O420934   6.134   0.554   3.623  0.3493  0.1359 -0.1448
  116MOL     O520935   6.114   0.530   3.392  0.4492 -0.6164  0.2237
  116MOL     H620936   6.502   0.614   3.425  0.1374  2.4491 -0.9353
  116MOL     H720937   6.379   0.624   3.327  0.2592  1.5166 -0.5587
  116MOL     H820938   6.327   0.414   3.412  0.2538  0.1720  0.4679
  116MOL     H920939   6.027   0.567   3.399  0.7292  0.0856  0.0349
  116MOL    H1020940   6.356   0.712   3.479  0.7216  1.0036 -1.9958
  116MOL    C1120941   6.393   0.432   3.607 -0.6665  0.8633  0.0951
  116MOL    C1220942   6.379   0.270   3.632  0.0711 -0.5239  0.2971
  116MOL    C1320943   6.235   0.228   3.675  0.2663 -0.2450  0.1999
  116MOL    O1420944   6.176   0.133   3.617  0.6398  0.1137 -0.0541
  116MOL    O1520945   6.182   0.303   3.775 -0.4399  0.4694 -0.1303
  116MOL    H1620946   6.379   0.481   3.703 -2.3678 -1.8998  1.3137
  116MOL    H1720947   6.499   0.455   3.596  0.0419 -0.9188  2.9131
  116MOL    H1820948   6.382   0.220   3.535 -0.7355  0.6445 -0.3432
  116MOL    H1920949   6.245   0.369   3.802 -1.0991  1.0382  0.0276
  116MOL    C2020950   6.489   0.205   3.725 -0.0072 -0.7430 -0.4218
  116MOL    C2120951   6.638   0.218   3.677 -0.0312 -0.2749  0.3868
  116MOL    C2220952   6.656   0.193   3.522  0.7244  0.2150 -0.2151
  116MOL    O2320953   6.581   0.116   3.457  0.3552 -0.0686 -0.0414
  116MOL    O2420954   6.759   0.258   3.461  0.5067 -0.3418 -0.1075
  116MOL    H2520955   6.471   0.098   3.736  0.9703 -0.8729 -0.0359
  116MOL    H2620956   6.481   0.249   3.824  1.6553 -1.6008  0.1298
  116MOL    H2720957   6.667   0.321   3.696  2.6794 -1.0126  0.4232
  116MOL    H2820958   6.765   0.243   3.368 -0.1359 -2.6712  0.1952
  116MOL    C2920959   6.736   0.126   3.758  1.0159  0.2668 -0.6130
  116MOL    C3020960   6.818   0.209   3.860  0.3084 -0.7871  0.3224
  116MOL    C3120961   6.910   0.299   3.783  0.3891 -0.0596  1.4403
  116MOL    O3220962   6.899   0.421   3.786 -0.5841  0.5698  0.0623
  116MOL    O3320963   6.996   0.232   3.708 -0.1467  0.3892 -0.5373
  116MOL    H3420964   6.806   0.087   3.684  1.8814 -0.9335  0.8302
  116MOL    H3520965   6.699   0.036   3.806  2.5659 -0.3177 -0.5009
  116MOL    H3620966   6.748   0.279   3.906  0.7654 -0.7319  0.9437
  116MOL    H3720967   7.032   0.296   3.649 -2.2256  1.1803 -0.9991
  116MOL    C3820968   6.888   0.122   3.962  0.1182  0.3862 -0.2630
  116MOL    C3920969   6.817   0.148   4.098  0.3142  0.6805 -0.0676
  116MOL    C4020970   6.844   0.292   4.162 -0.3113  0.1675  0.4396
  116MOL    O4120971   6.760   0.369   4.206  0.6043  0.4534 -0.2009
  116MOL    O4220972   6.973   0.315   4.174  0.2564  0.5710  0.6782
  116MOL    H4320973   6.994   0.141   3.971  0.3165 -0.1186 -1.3254
  116MOL    H4420974   6.872   0.017   3.934 -2.3651  0.8414 -0.6597
  116MOL    H4520975   6.711   0.128   4.083  0.1840  1.7748 -0.6043
  116MOL    H4620976   6.988   0.404   4.204  0.6092  0.2336  1.4865
  116MOL    C4720977   6.866   0.036   4.194 -0.0871 -0.4164  0.2498
  116MOL    C4820978   6.778   0.013   4.319 -0.2312  0.3755 -0.6339
  116MOL    C4920979   6.858   0.047   4.448 -0.2511  0.5453  0.8191
  116MOL    O5020980   6.900   7.812   4.532 -0.0141 -1.0514 -0.1488
  116MOL    O5120981   6.869   0.182   4.453  0.5792  0.7358 -0.1920
  116MOL    H5220982   6.967   0.066   4.222 -0.7793  1.3144  0.9732
  116MOL    H5320983   6.872   7.796   4.139 -1.6160 -0.8457  0.7648
  116MOL    H5420984   6.697   0.085   4.318 -0.5359  0.0369 -0.6019
  116MOL    H5520985   6.936   0.204   4.516  0.7336  0.5190 -0.2775
  116MOL    C5620986   6.715   7.722   4.323  0.7374 -0.2312  0.4030
  116MOL    C5720987   6.637   7.663   4.202  0.0542  0.2253  0.3832
  116MOL    C5820988   6.522   7.751   4.155  0.2422  0.1134  0.0122
  116MOL    O5920989   6.511   7.779   4.038  0.1796  0.5075  0.4563
  116MOL    O6020990   6.442   7.771   4.258  0.0030  0.4289 -0.1831
  116MOL    H6120991   6.653   7.720   4.413 -0.1107  0.8384 -0.1518
  116MOL    H6220992   6.798   7.656   4.349  2.4416  1.5447 -0.4124
  116MOL    H6320993   6.713   7.654   4.125 -1.5799 -1.1979 -1.0833
  116MOL    H6420994   6.363   7.820   4.242 -0.6908 -0.4498  0.5495
  116MOL    C6520995   6.595   7.519   4.237 -0.0965  0.0404  0.3476
  116MOL    C6620996   6.679   7.411   4.170 -0.5092 -0.4349  0.2789
  116MOL    C6720997   6.651   7.408   4.012  0.4852  0.2058  0.4120
  116MOL    O6820998   6.720   7.346   3.932  0.8043 -0.1712 -0.0313
  116MOL    O6920999   6.544   7.489   3.968  0.0266 -0.0606  0.4356
  116MOL    H7021000   6.491   7.501   4.208  0.1546 -1.4002  0.3239
  116MOL    H7121001   6.605   7.499   4.343  4.1287  1.8626  0.3853
  116MOL    H7221002   6.784   7.441   4.175 -0.8937  0.9812  0.1604
  116MOL    H7321003   6.533   7.486   3.875  0.8286  0.9784  0.2904
  116MOL    C7421004   6.647   7.272   4.232 -0.0281 -0.1598  0.1382
  116MOL    C7521005   6.730   7.152   4.183  0.0733 -0.5755 -0.2324
  116MOL    C7621006   6.687   7.014   4.235 -0.0796  0.2080  0.1961
  116MOL    O7721007   6.599   6.997   4.314 -0.3840  0.0769 -0.0138
  116MOL    O7821008   6.765   6.918   4.188  0.4065 -1.2649 -0.0517
  116MOL    H7921009   6.547   7.236   4.205 -0.1748  1.4750 -1.5575
  116MOL    H8021010   6.642   7.282   4.341  0.4490 -2.1832  0.3597
  116MOL    H8121011   6.721   7.143   4.075  0.0907 -1.6123 -0.1547
  116MOL    H8221012   6.733   6.833   4.215 -1.7155 -0.5907 -0.3587
  116MOL    C8321013   6.882   7.168   4.222 -0.4760 -0.0690  0.0585
  116MOL    C8421014   6.982   7.216   4.115 -0.1370 -0.5311  0.1286
  116MOL    C8521015   7.011   7.107   4.012  0.2566  0.4074  1.1623
  116MOL    O8621016   7.110   7.040   4.011 -0.0337  0.3528  0.4695
  116MOL    O8721017   6.915   7.098   3.913 -0.3732  0.1199 -0.2287
  116MOL    H8821018   6.925   7.079   4.269 -0.5002 -0.6318 -0.9667
  116MOL    H8921019   6.892   7.242   4.301  1.3952 -0.0485 -0.1835
  116MOL    H9021020   6.923   7.286   4.056  0.3820  0.1471  0.4051
  116MOL    H9121021   6.948   7.042   3.845  0.6967  0.2901  0.1323
  116MOL    C9221022   7.103   7.287   4.178 -0.6098  0.2446 -0.2878
  116MOL    C9321023   7.185   7.216   4.289 -0.4668  0.4932 -0.5265
  116MOL    C9421024   7.122   7.232   4.432 -0.2078 -0.2893  0.6289
  116MOL    O9521025   7.121   7.343   4.488  0.1946 -0.0891 -0.2823
  116MOL    O9621026   7.066   7.122   4.481 -0.2001  0.4484 -0.3428
  116MOL    H9721027   7.084   7.391   4.204 -2.7313  0.2534 -1.7366
  116MOL    H9821028   7.178   7.288   4.098 -0.5970 -0.7447 -0.2959
  116MOL    H9921029   7.196   7.109   4.270  0.2667 -0.2306  3.4839
  116MOL   H10021030   7.033   7.120   4.569 -1.9881  0.0065 -1.0003
  116MOL   C10121031   7.328   7.275   4.289  0.5744  0.2913  0.3731
  116MOL   C10221032   7.444   7.179   4.306 -0.3501  0.1363 -0.7084
  116MOL   C10321033   7.446   7.068   4.201 -0.1686 -0.7086  0.0982
  116MOL   O10421034   7.417   6.949   4.222  0.6444  0.1423 -0.0513
  116MOL   O10521035   7.462   7.115   4.075 -0.4590 -0.0496  0.2288
  116MOL   H10621036   7.339   7.359   4.358  2.2798  0.9593 -0.6965
  116MOL   H10721037   7.352   7.325   4.195 -0.6375 -1.5196 -0.9309
  116MOL   H10821038   7.529   7.244   4.288 -0.0187 -0.4111 -1.1144
  116MOL   H10921039   7.456   7.052   4.006 -0.6670  3.0087 -2.6855
  116MOL   C11021040   7.450   7.120   4.447  0.4532 -0.6248 -0.0770
  116MOL   C11121041   7.583   7.145   4.520 -0.7777  0.9349  0.0824
  116MOL   C11221042   7.680   7.027   4.486  0.0841  0.4265 -0.3251
  116MOL   O11321043   7.647   6.911   4.466 -0.5361 -0.4521 -0.7102
  116MOL   O11421044   7.808   7.065   4.491  0.3819 -0.3208 -0.3199
  116MOL   H11521045   7.424   7.015   4.451  2.5928 -1.1442  0.9541
  116MOL   H11621046   7.383   7.181   4.509  2.6729  2.1235 -0.2633
  116MOL   H11721047   7.635   7.232   4.479 -1.2719  1.7163  1.1037
  116MOL   H11821048   0.012   6.990   4.487 -0.8358 -1.2563 -0.2589
  116MOL   C11921049   7.567   7.158   4.676  0.4411  0.0589 -0.0821
  116MOL   C12021050   7.503   7.031   4.736  0.4410  0.4645  0.1083
  116MOL   C12121051   7.383   7.076   4.822 -0.0849  0.0798 -0.2613
  116MOL   O12221052   7.386   7.102   4.942 -1.0139 -0.2174  0.0764
  116MOL   O12321053   7.278   7.094   4.746  0.5461 -0.8954  0.8947
  116MOL   H12421054   7.507   7.246   4.700  0.9411  0.0837  1.0790
  116MOL   H12521055   7.657   7.189   4.729  0.6809 -1.7664  0.6197
  116MOL   H12621056   7.451   6.973   4.660  0.8315  1.2155 -0.7273
  116MOL   H12721057   7.216   7.154   4.785  2.5448  2.6796 -1.1895
  116MOL   C12821058   7.614   6.956   4.813  0.0457 -0.4549 -0.6055
  116MOL   C12921059   7.588   6.806   4.818 -0.3119 -0.4148  0.0344
  116MOL   C13021060   7.504   6.776   4.942  0.6764 -0.2148  0.0510
  116MOL   O13121061   7.390   6.728   4.935  0.3756  0.3917 -0.0369
  116MOL   O13221062   7.558   6.819   5.060  0.0189 -0.0264 -0.4134
  116MOL   H13321063   7.637   6.999   4.910 -0.1115  2.0254 -1.6261
  116MOL   H13421064   7.705   6.966   4.754 -0.3278  3.5926 -0.6978
  116MOL   H13521065   7.531   6.785   4.728  0.6070  0.3871 -0.7474
  116MOL   H13621066   7.497   6.812   5.132  0.1273 -1.5303 -0.4487
  116MOL   C13721067   7.719   6.719   4.813 -0.2542  1.5327  0.2923
  116MOL   C13821068   7.720   6.563   4.827  0.3880  0.3030 -0.0181
  116MOL   C13921069   7.621   6.498   4.730  0.2562  0.1156 -0.1014
  116MOL   O14021070   7.533   6.427   4.769 -0.3342  0.4704  0.0402
  116MOL   O14121071   7.656   6.516   4.600  0.6343 -0.2742 -0.8379
  116MOL   H14221072   7.784   6.764   4.889  1.6414 -0.2140 -0.2802
  116MOL   H14321073   7.773   6.730   4.719 -1.7217 -2.1999 -1.0420
  116MOL   H14421074   7.819   6.531   4.794  0.3111 -0.6785  0.7021
  116MOL   H14521075   7.583   6.506   4.541 -2.1439  0.5807  2.3384
  116MOL   C14621076   7.708   6.504   4.971  0.2570 -0.0810  0.0649
  116MOL   C14721077   7.799   6.568   5.081 -0.2911 -0.3760  0.1957
  116MOL   C14821078   0.093   6.573   5.048  0.3936 -0.3757  0.4004
  116MOL   O14921079   0.174   6.669   5.055  0.1016 -0.0547  0.2347
  116MOL   O15021080   0.131   6.449   5.014 -0.1799  0.1646  0.5422
  116MOL   H15121081   7.729   6.397   4.961 -2.8574 -0.6546 -0.8001
  116MOL   H15221082   7.606   6.498   5.010  0.2856  1.0457  0.3223
  116MOL   H15321083   7.778   6.675   5.088  1.6415 -0.0460  1.4319
  116MOL   H15421084   0.221   6.437   4.988 -0.5436  0.5608 -0.9487
  116MOL   C15521085   7.769   6.507   5.218  0.1664  0.9192  0.3245
  116MOL   C15621086   7.634   6.557   5.283  0.1920  0.1357  0.1299
  116MOL   C15721087   7.652   6.673   5.372 -0.0876  0.4921  0.0527
  116MOL   O15821088   7.728   6.681   5.467  0.4605 -0.7799 -0.1188
  116MOL   O15921089   7.583   6.775   5.332 -0.0705 -0.2467 -0.3047
  116MOL   H16021090   7.845   6.526   5.294  1.4445 -0.4428 -0.5908
  116MOL   H16121091   7.756   6.400   5.200 -0.5351  0.9582  0.5754
  116MOL   H16221092   7.567   6.590   5.204 -0.8950 -1.2223  0.4635
  116MOL   H16321093   7.598   6.856   5.379  1.6090  0.2254 -1.6233
  116MOL   C16421094   7.565   6.434   5.357 -0.5508  0.0896 -0.1612
  116MOL   C16521095   7.438   6.442   5.436  0.5429  0.2379  0.3587
  116MOL   C16621096   7.464   6.465   5.583  0.2587 -0.1255 -0.1224
  116MOL   O16721097   7.411   6.549   5.650  0.3209  0.3827 -0.2461
  116MOL   O16821098   7.550   6.367   5.632  0.3262 -0.1795  0.6435
  116MOL   H16921099   7.640   6.380   5.414 -0.8330 -0.4662 -0.3188
  116MOL   H17021100   7.545   6.357   5.283 -0.4532  1.6069 -1.7889
  116MOL   H17121101   7.382   6.528   5.402  1.9815  1.0156 -0.1020
  116MOL   H17221102   7.564   6.395   5.721  0.7387  1.0800  0.1842
  116MOL   C17321103   7.340   6.317   5.419 -0.2808  0.2683  0.1352
  116MOL   C17421104   7.205   6.343   5.364  0.4748 -0.0336  0.1713
  116MOL   C17521105   7.104   6.226   5.363  0.1105  0.0413 -0.1428
  116MOL   O17621106   6.985   6.236   5.393 -0.7076  0.3591 -0.3050
  116MOL   O17721107   7.155   6.104   5.329 -0.5668 -0.1020 -0.2693
  116MOL   H17821108   7.316   6.275   5.517  0.3562 -1.9225 -0.6138
  116MOL   H17921109   7.389   6.234   5.367  1.4651  1.5259 -0.2630
  116MOL   H18021110   7.164   6.415   5.435  1.3250  0.3858  0.2406
  116MOL   H18121111   7.085   6.040   5.331  0.6469 -1.4170  2.6991
  116MOL   H18221112   7.213   6.394   5.268 -0.1530 -1.6835 -0.7943
  117MOL     C121113   5.869   4.239   1.495 -0.1445 -0.3275  0.6361
  117MOL     C221114   5.908   4.090   1.473  0.1060  0.3749 -0.2467
  117MOL     C321115   5.803   4.012   1.392 -0.3137  1.1924 -0.7220
  117MOL     O421116   5.828   3.963   1.283  0.0466  0.6539 -0.3332
  117MOL     O521117   5.688   4.003   1.466 -0.6396 -0.0886 -0.2521
  117MOL     H621118   5.959   4.301   1.495 -1.4954  1.6782  0.3381
  117MOL     H721119   5.815   4.277   1.408  2.1897 -1.5427 -1.4352
  117MOL     H821120   6.001   4.098   1.417  1.2644  2.9845  1.9109
  117MOL     H921121   5.624   3.950   1.422 -0.8079  2.2480 -2.9361
  117MOL    H1021122   5.804   4.245   1.582 -1.2531 -0.0690 -0.2010
  117MOL    C1121123   5.951   4.015   1.610 -0.1072 -0.0566 -0.1715
  117MOL    C1221124   6.058   3.911   1.586  0.5501 -1.1086  0.1178
  117MOL    C1321125   5.982   3.778   1.579  0.0873 -0.1759 -1.4363
  117MOL    O1421126   5.913   3.733   1.675  0.6392  0.1418  0.3681
  117MOL    O1521127   6.019   3.703   1.474 -0.0490 -0.0907 -0.0920
  117MOL    H1621128   5.865   3.983   1.669  0.1356  0.1818  0.3171
  117MOL    H1721129   5.988   4.100   1.669 -2.6523 -1.2223  3.2809
  117MOL    H1821130   6.106   3.922   1.489 -0.2003 -0.2639 -0.1625
  117MOL    H1921131   5.997   3.611   1.468  2.9359 -0.8809  0.1645
  117MOL    C2021132   6.162   3.911   1.704 -0.0160  0.2762 -0.1036
  117MOL    C2121133   6.289   3.993   1.694 -0.4715 -0.6154 -0.3322
  117MOL    C2221134   6.253   4.144   1.711  0.1687  0.4047 -0.2739
  117MOL    O2321135   6.233   4.213   1.612 -0.0050  0.0090 -0.0216
  117MOL    O2421136   6.228   4.175   1.835  0.5464 -0.4933 -0.0400
  117MOL    H2521137   6.198   3.808   1.708  0.0015  0.1168 -3.0800
  117MOL    H2621138   6.107   3.936   1.795  1.1654 -2.1358  1.3388
  117MOL    H2721139   6.354   3.975   1.780 -0.1948  1.1667 -0.1552
  117MOL    H2821140   6.200   4.266   1.833 -2.2802 -1.3163 -0.0084
  117MOL    C2921141   6.383   3.968   1.571 -1.1617  0.5158 -0.1559
  117MOL    C3021142   6.454   3.831   1.564 -0.9297  0.2735  0.4847
  117MOL    C3121143   6.550   3.816   1.686 -0.7920 -0.4239  0.3676
  117MOL    O3221144   6.609   3.907   1.750  0.2688  0.1189  0.2780
  117MOL    O3321145   6.556   3.683   1.722 -0.1062 -0.2988 -0.0010
  117MOL    H3421146   6.445   4.058   1.566 -2.7286  1.5904 -0.8891
  117MOL    H3521147   6.326   3.976   1.478  0.2978 -2.6311 -1.3709
  117MOL    H3621148   6.388   3.746   1.579  0.3055 -0.6226  0.8725
  117MOL    H3721149   6.632   3.667   1.775 -0.1997  1.4514  0.7025
  117MOL    C3821150   6.534   3.818   1.428 -1.1543 -0.4042 -0.3125
  117MOL    C3921151   6.666   3.730   1.409 -0.1151 -1.0786 -0.3753
  117MOL    C4021152   6.790   3.812   1.439 -0.6606 -0.1295  0.1345
  117MOL    O4121153   6.857   3.793   1.543 -0.5898 -0.0344  0.2499
  117MOL    O4221154   6.819   3.900   1.343  0.2027 -0.0333  0.0767
  117MOL    H4321155   6.563   3.919   1.400  1.9179 -1.2324 -0.2985
  117MOL    H4421156   6.460   3.780   1.357 -0.6837 -2.0777  0.0687
  117MOL    H4521157   6.668   3.645   1.477  2.2513 -0.2706  0.6284
  117MOL    H4621158   6.905   3.931   1.367 -0.5679  1.8657  0.4670
  117MOL    C4721159   6.663   3.673   1.269 -0.3240 -0.0330  0.2025
  117MOL    C4821160   6.787   3.596   1.209 -0.4457  0.4061  0.5673
  117MOL    C4921161   6.736   3.537   1.076 -0.5110 -0.4447 -0.2123
  117MOL    O5021162   6.753   3.585   0.963  0.4319  0.2811  0.2358
  117MOL    O5121163   6.668   3.426   1.102  0.0943 -0.3830 -0.6175
  117MOL    H5221164   6.621   3.743   1.197  1.2985 -0.5165 -1.2373
  117MOL    H5321165   6.588   3.596   1.251  1.9918 -1.8361 -2.1942
  117MOL    H5421166   6.865   3.668   1.182  0.9976 -1.4337 -0.2443
  117MOL    H5521167   6.661   3.361   1.034  2.4388 -1.0842 -0.2379
  117MOL    C5621168   6.849   3.485   1.296  0.4749 -0.4831 -0.4869
  117MOL    C5721169   6.999   3.468   1.292  0.5558 -0.8294  0.6551
  117MOL    C5821170   7.048   3.445   1.150  0.0524 -0.4060  0.6548
  117MOL    O5921171   6.979   3.388   1.063 -0.4701 -0.3093  0.2405
  117MOL    O6021172   7.179   3.474   1.146  0.0299 -0.3603  0.1614
  117MOL    H6121173   6.804   3.386   1.299 -0.9411  0.1422 -1.0161
  117MOL    H6221174   6.832   3.512   1.401  1.4761  1.1753 -0.7235
  117MOL    H6321175   7.053   3.556   1.328 -0.3842  0.2585 -0.5758
  117MOL    H6421176   7.202   3.471   1.054  0.0378 -1.1899  0.1846
  117MOL    C6521177   7.052   3.361   1.393  1.1342 -0.2533  0.0869
  117MOL    C6621178   7.200   3.352   1.429  0.3081  0.5004 -0.5840
  117MOL    C6721179   7.236   3.229   1.508  0.1556  0.1756 -0.1213
  117MOL    O6821180   7.155   3.140   1.542  0.5700 -0.4991 -0.2471
  117MOL    O6921181   7.372   3.218   1.511  0.1418 -0.3471  0.1539
  117MOL    H7021182   7.029   3.265   1.346 -2.5074  0.2438  0.7394
  117MOL    H7121183   6.989   3.354   1.482 -0.5955  0.2569 -1.0719
  117MOL    H7221184   7.258   3.356   1.336  1.3788 -1.6773 -0.0514
  117MOL    H7321185   7.391   3.126   1.523 -2.8523 -1.2745 -1.5181
  117MOL    C7421186   7.251   3.478   1.497  1.0056  0.6913  0.0759
  117MOL    C7521187   7.192   3.503   1.639  0.3383  0.4427 -0.5417
  117MOL    C7621188   7.149   3.642   1.673 -0.1641 -0.3373 -0.5619
  117MOL    O7721189   7.212   3.738   1.629  0.2510  0.0926 -0.4465
  117MOL    O7821190   7.046   3.639   1.769  0.4166 -0.1277  0.1384
  117MOL    H7921191   7.233   3.568   1.437  0.5196  0.6861  0.2108
  117MOL    H8021192   7.360   3.469   1.489  0.9523 -0.9362  1.0986
  117MOL    H8121193   7.102   3.442   1.643  0.0958  0.7598 -1.2531
  117MOL    H8221194   7.029   3.728   1.794  0.8015  0.6361 -2.1597
  117MOL    C8321195   7.283   3.451   1.762 -0.5211 -0.5033 -0.3090
  117MOL    C8421196   7.416   3.522   1.797  0.3162 -0.6807  0.1117
  117MOL    C8521197   7.518   3.515   1.681 -0.6563 -0.2228  0.8564
  117MOL    O8621198   7.590   3.416   1.654 -0.6071 -0.2316 -0.2601
  117MOL    O8721199   7.506   3.621   1.596  0.2459 -0.1239 -0.2482
  117MOL    H8821200   7.294   3.342   1.759  1.9577 -0.3385  1.2882
  117MOL    H8921201   7.212   3.465   1.844 -2.2472 -1.5198 -1.5774
  117MOL    H9021202   7.399   3.628   1.817  1.1055 -0.7094  0.9709
  117MOL    H9121203   7.442   3.683   1.626  0.7061  1.8171 -3.0497
  117MOL    C9221204   7.475   3.444   1.920  0.1964  0.1247  0.5374
  117MOL    C9321205   7.606   3.484   1.979 -0.4092  0.1763 -0.2729
  117MOL    C9421206   7.660   3.374   2.071  0.7005 -0.1724 -0.2842
  117MOL    O9521207   7.575   3.305   2.140  0.2211  0.2026  0.1807
  117MOL    O9621208   7.798   3.373   2.074 -0.6460  0.1664  0.2630
  117MOL    H9721209   7.486   3.340   1.889  2.1929  0.6232 -0.5020
  117MOL    H9821210   7.399   3.433   1.998 -1.4253  0.0492 -1.0069
  117MOL    H9921211   7.679   3.496   1.899 -0.4172 -0.7964 -0.4352
  117MOL   H10021212   7.848   3.433   2.021  0.0563 -0.4091  0.2680
  117MOL   C10121213   7.604   3.623   2.050 -0.5503  0.3061 -0.5853
  117MOL   C10221214   7.730   3.713   2.041 -1.0743 -0.9369 -0.2771
  117MOL   C10321215   7.839   3.667   2.134  0.1733 -0.1165  0.5927
  117MOL   O10421216   0.096   3.629   2.095 -0.0721 -0.0257 -0.1976
  117MOL   O10521217   7.802   3.657   2.262  0.1990  0.5636 -0.7263
  117MOL   H10621218   7.575   3.613   2.155 -1.2562 -0.1847 -0.8298
  117MOL   H10721219   7.522   3.685   2.015 -0.8721  0.3098  0.1696
  117MOL   H10821220   7.756   3.727   1.936 -2.7567 -0.1410 -0.6029
  117MOL   H10921221   0.023   3.630   2.314 -0.2107 -1.0168 -0.9328
  117MOL   C11021222   7.680   3.857   2.089 -0.4797  0.5182  0.4561
  117MOL   C11121223   7.776   3.971   2.128  0.7019  0.1486  0.3319
  117MOL   C11221224   7.713   4.082   2.217 -0.2571 -0.5471  0.1617
  117MOL   O11321225   7.609   4.139   2.179  0.1449 -0.6156 -0.1496
  117MOL   O11421226   7.782   4.108   2.333 -0.5819 -0.1919  0.2094
  117MOL   H11521227   7.594   3.841   2.155 -1.0466  2.5984  0.2648
  117MOL   H11621228   7.620   3.894   2.005 -0.8725 -4.2787 -1.5518
  117MOL   H11721229   7.845   3.912   2.189 -1.1870 -1.4592  0.9703
  117MOL   H11821230   7.748   4.183   2.379  1.4064  0.2493  0.9656
  117MOL   C11921231   7.850   4.020   1.999 -0.2615  0.1824  0.9128
  117MOL   C12021232   0.133   4.078   2.020 -0.4487 -0.1461 -0.3276
  117MOL   C12121233   0.139   4.235   2.022  0.0807 -0.1631  0.2357
  117MOL   O12221234   0.168   4.307   2.120  0.6373  0.4757 -0.2972
  117MOL   O12321235   0.101   4.283   1.899  0.5248  0.7191  0.1272
  117MOL   H12421236   7.795   4.090   1.936 -0.6751 -2.0732 -1.3286
  117MOL   H12521237   7.831   3.947   1.920 -1.4239  0.5376  0.8447
  117MOL   H12621238   0.162   4.052   2.122 -2.1958  1.7331  0.6929
  117MOL   H12721239   0.095   4.377   1.895 -0.4708  0.6913  0.6912
  117MOL   C12821240   0.230   4.011   1.932 -0.5514 -0.2377  0.0450
  117MOL   C12921241   0.383   4.014   1.990  0.0025 -0.6469  0.3362
  117MOL   C13021242   0.495   4.039   1.886  0.5839 -0.7625 -0.2389
  117MOL   O13121243   0.506   3.962   1.788 -0.8022  0.1156  0.3850
  117MOL   O13221244   0.573   4.146   1.916  0.3704  1.0038 -0.4058
  117MOL   H13321245   0.220   4.057   1.834 -1.9938 -1.5010 -0.4045
  117MOL   H13421246   0.197   3.911   1.905 -2.7303  0.5261 -0.2142
  117MOL   H13521247   0.392   4.098   2.060 -0.1011  1.7051 -2.4016
  117MOL   H13621248   0.619   4.170   1.837 -2.8586  0.1660 -2.6260
  117MOL   C13721249   0.397   3.882   2.067  0.5642 -0.7604  0.0435
  117MOL   C13821250   0.491   3.885   2.188  0.7895 -0.1130 -0.7394
  117MOL   C13921251   0.457   3.994   2.290  0.4740 -0.3375  0.4964
  117MOL   O14021252   0.528   4.088   2.317  0.5866  0.5686  0.3050
  117MOL   O14121253   0.343   3.967   2.363  0.3968  0.0964 -0.0375
  117MOL   H14221254   0.423   3.809   1.990 -0.3754  0.1601 -1.1506
  117MOL   H14321255   0.300   3.854   2.108  0.1177 -0.1505 -0.6037
  117MOL   H14421256   0.465   3.795   2.243 -0.0627  0.2475 -0.5339
  117MOL   H14521257   0.349   4.031   2.433  1.6819  0.0861 -0.1240
  117MOL   C14621258   0.641   3.872   2.149  0.5951 -0.6492  0.1191
  117MOL   C14721259   0.691   3.738   2.090  0.0110  0.6700  0.6459
  117MOL   C14821260   0.651   3.618   2.181  0.3650 -0.8414  0.0996
  117MOL   O14921261   0.682   3.621   2.301  0.0164 -0.2121  0.7410
  117MOL   O15021262   0.567   3.529   2.123  0.5601  0.5387 -0.1351
  117MOL   H15121263   0.696   3.898   2.239 -1.8531  2.8023  0.7525
  117MOL   H15221264   0.662   3.933   2.061  1.3437  0.3608  0.9830
  117MOL   H15321265   0.646   3.729   1.990  0.5080  0.1857  0.4633
  117MOL   H15421266   0.561   3.453   2.179  1.2605  1.2628  0.9156
  117MOL   C15521267   0.850   3.736   2.072  0.1026 -0.1959 -0.1130
  117MOL   C15621268   0.915   3.835   1.971 -0.2694 -0.7382 -0.4275
  117MOL   C15721269   0.869   3.798   1.836 -0.6309  0.6514  0.6766
  117MOL   O15821270   0.835   3.889   1.757  0.1630 -0.1691 -0.2175
  117MOL   O15921271   0.852   3.665   1.810  0.2557 -0.5510  0.2627
  117MOL   H16021272   0.882   3.632   2.060 -0.4521 -0.6550  2.1983
  117MOL   H16121273   0.887   3.761   2.171 -0.2007 -0.3198  0.0314
  117MOL   H16221274   0.881   3.934   2.000 -1.3281 -0.4515 -2.4968
  117MOL   H16321275   0.822   3.655   1.721  1.0497 -1.2668  0.0718
  117MOL   C16421276   1.067   3.814   1.977  0.1351 -0.0881 -0.1047
  117MOL   C16521277   1.138   3.848   2.111 -0.4300 -0.2295 -0.1507
  117MOL   C16621278   1.160   4.000   2.118  0.6118  0.1786 -0.1869
  117MOL   O16721279   1.268   4.056   2.101 -0.0846 -0.2027 -0.1935
  117MOL   O16821280   1.042   4.070   2.126  0.0003 -0.3824  0.0097
  117MOL   H16921281   1.117   3.854   1.889  0.4044 -2.5205 -1.1110
  117MOL   H17021282   1.068   3.708   1.949 -1.0414 -0.5428  1.5040
  117MOL   H17121283   1.070   3.830   2.194 -2.2883 -0.7692 -1.7493
  117MOL   H17221284   0.981   4.024   2.182 -1.7749 -2.1304 -3.2218
  117MOL   C17321285   1.272   3.768   2.142  0.2649  0.1894 -0.1370
  117MOL   C17421286   1.270   3.614   2.129  0.4583 -0.1932  0.1934
  117MOL   C17521287   1.154   3.533   2.185 -0.1946  0.4228  0.1142
  117MOL   O17621288   1.053   3.570   2.242 -0.2994  0.4494  0.1130
  117MOL   O17721289   1.185   3.404   2.180 -0.7543 -0.1344  0.3477
  117MOL   H17821290   1.311   3.800   2.239 -1.4329  2.7134 -0.2491
  117MOL   H17921291   1.351   3.799   2.074  0.9319  0.2821  0.6636
  117MOL   H18021292   1.276   3.591   2.023 -0.5074  0.8065 -0.0938
  117MOL   H18121293   1.120   3.369   2.240 -0.4863  0.4776  0.9997
  117MOL   H18221294   1.358   3.563   2.168 -0.7689 -2.6111 -0.0724
  118MOL     C121295   3.525   5.272   4.718 -0.0244  0.9133  0.5648
  118MOL     C221296   3.589   5.411   4.699 -0.6453 -0.5378 -0.8359
  118MOL     C321297   3.589   5.486   4.832 -0.1335 -0.3147  0.0912
  118MOL     O421298   3.507   5.463   4.922  0.0774  0.1478  0.1684
  118MOL     O521299   3.685   5.580   4.831 -0.2122  0.2070 -0.3631
  118MOL     H621300   3.449   5.274   4.796  0.5023  0.8187  1.0805
  118MOL     H721301   3.495   5.230   4.622 -0.0171  1.3664  0.3620
  118MOL     H821302   3.693   5.393   4.670 -0.1947  2.0273 -0.9307
  118MOL     H921303   3.674   5.631   4.910  0.8641  1.1740 -0.8230
  118MOL    H1021304   3.602   5.212   4.766  2.5221  2.2679 -1.6943
  118MOL    C1121305   3.522   5.488   4.586 -0.3950 -0.4864  0.3892
  118MOL    C1221306   3.367   5.512   4.585 -0.3948 -0.1412  0.4169
  118MOL    C1321307   3.286   5.435   4.485  0.1681  0.3221  0.8007
  118MOL    O1421308   3.291   5.446   4.361  0.0658 -0.8109  0.3502
  118MOL    O1521309   3.205   5.348   4.550  0.5373 -0.5979  0.1210
  118MOL    H1621310   3.550   5.427   4.500 -1.9910 -0.2390 -0.3301
  118MOL    H1721311   3.580   5.578   4.565 -1.2881 -0.2946 -1.3704
  118MOL    H1821312   3.321   5.480   4.679 -0.4596  2.6653  1.3896
  118MOL    H1921313   3.152   5.292   4.496  1.2495 -0.4674 -0.7316
  118MOL    C2021314   3.346   5.662   4.572  0.1639  0.2901 -0.4272
  118MOL    C2121315   3.384   5.749   4.693 -0.1356 -0.1565  0.0532
  118MOL    C2221316   3.305   5.715   4.822  0.3314  0.7258 -0.0315
  118MOL    O2321317   3.198   5.652   4.821 -0.1641  0.1379 -0.4124
  118MOL    O2421318   3.368   5.760   4.929  0.0032 -0.8675  0.2704
  118MOL    H2521319   3.247   5.687   4.533  0.2293  2.1153  0.5717
  118MOL    H2621320   3.403   5.690   4.483 -1.2566 -1.1703 -1.8414
  118MOL    H2721321   3.485   5.719   4.724  0.3225  0.7555 -0.5410
  118MOL    H2821322   3.311   5.736   5.000 -1.1872  0.7949 -0.0869
  118MOL    C2921323   3.378   5.896   4.660  0.4805 -0.3565  0.1390
  118MOL    C3021324   3.494   5.947   4.585 -0.1803  0.3034  0.0426
  118MOL    C3121325   3.599   6.018   4.671 -0.0160  0.5478 -0.6623
  118MOL    O3221326   3.707   5.967   4.696 -0.4142  0.3565  0.1842
  118MOL    O3321327   3.549   6.133   4.727  0.7485 -0.9181 -0.8801
  118MOL    H3421328   3.366   5.948   4.755  0.5139 -3.0321  1.6575
  118MOL    H3521329   3.281   5.908   4.612  1.7166 -1.9970 -2.8853
  118MOL    H3621330   3.549   5.866   4.536  1.1412  1.3231 -0.2004
  118MOL    H3721331   3.463   6.154   4.693  0.5919  1.8153  1.0059
  118MOL    C3821332   3.446   6.039   4.468 -0.1687 -0.0298 -0.2864
  118MOL    C3921333   3.400   5.960   4.343 -0.1921  0.0663  0.4386
  118MOL    C4021334   3.511   5.922   4.248 -0.2762 -0.3626 -0.1310
  118MOL    O4121335   3.550   5.980   4.150 -0.0283 -0.6278 -0.3292
  118MOL    O4221336   3.570   5.805   4.297 -0.1829 -0.7393  0.1524
  118MOL    H4321337   3.525   6.100   4.423  0.6882 -3.1340 -3.1475
  118MOL    H4421338   3.389   6.122   4.510 -1.3118 -2.8286  4.0314
  118MOL    H4521339   3.359   5.870   4.388  1.3047 -0.1501  1.4085
  118MOL    H4621340   3.641   5.777   4.241  1.0026  3.3721 -0.6412
  118MOL    C4721341   3.290   6.038   4.273  0.5957 -0.3552  0.1868
  118MOL    C4821342   3.155   6.038   4.355  0.0052 -0.0137  0.0063
  118MOL    C4921343   3.092   5.898   4.363 -0.2079  0.0449  0.0745
  118MOL    O5021344   3.107   5.807   4.281  0.0264 -0.5115  0.1885
  118MOL    O5121345   3.022   5.886   4.481  0.0388  0.5626  0.5989
  118MOL    H5221346   3.274   5.999   4.172  0.5159  1.2372 -0.4329
  118MOL    H5321347   3.316   6.143   4.264  3.7074 -1.2174 -1.5191
  118MOL    H5421348   3.166   6.066   4.460 -0.5240 -0.5796  0.2147
  118MOL    H5521349   2.994   5.798   4.498  1.9188  0.1007  1.3760
  118MOL    C5621350   3.049   6.129   4.284 -0.0428 -0.4587  0.2227
  118MOL    C5721351   3.067   6.292   4.305 -0.5251 -0.3653  0.8220
  118MOL    C5821352   3.069   6.342   4.453 -0.0287  0.2215  0.6155
  118MOL    O5921353   2.973   6.322   4.529 -0.1901 -0.5504 -0.2709
  118MOL    O6021354   3.182   6.400   4.492  0.3926  0.0498 -0.0421
  118MOL    H6121355   2.951   6.104   4.323 -0.8006  0.3691 -1.0910
  118MOL    H6221356   3.038   6.103   4.179  2.0622 -0.0609 -0.1175
  118MOL    H6321357   3.163   6.322   4.261 -1.7125 -0.7823 -2.1610
  118MOL    H6421358   3.253   6.396   4.430  0.6920  0.0790  0.2976
  118MOL    C6521359   2.954   6.364   4.229  0.2198  0.1327  0.4629
  118MOL    C6621360   2.965   6.356   4.076  0.4038  0.4857  0.5769
  118MOL    C6721361   3.083   6.436   4.019  0.8427 -0.6120  0.9007
  118MOL    O6821362   3.138   6.527   4.072 -0.3047 -0.4136  0.2108
  118MOL    O6921363   3.107   6.392   3.893 -0.0104  0.1429 -0.8289
  118MOL    H7021364   2.958   6.471   4.253  1.1853  0.5582 -1.4577
  118MOL    H7121365   2.863   6.321   4.270  0.6074 -2.6521 -1.4321
  118MOL    H7221366   2.990   6.252   4.053  0.5435  0.8752 -1.1376
  118MOL    H7321367   3.051   6.321   3.868 -0.3171  0.1618 -0.2163
  118MOL    C7421368   2.830   6.377   4.005 -0.0548 -0.0134 -1.1027
  118MOL    C7521369   2.706   6.298   4.052  0.2767 -0.3519  0.1357
  118MOL    C7621370   2.715   6.156   4.015  0.4635  0.3758  0.7196
  118MOL    O7721371   2.780   6.113   3.921 -0.0609 -0.0475  0.0802
  118MOL    O7821372   2.643   6.071   4.092  0.4821 -0.5343 -0.2235
  118MOL    H7921373   2.844   6.357   3.899  0.8171  2.9972 -1.5988
  118MOL    H8021374   2.821   6.485   4.008  0.9303  0.0397  0.0305
  118MOL    H8121375   2.698   6.304   4.161 -0.7952  2.0415 -0.0468
  118MOL    H8221376   2.648   5.987   4.050  1.6024 -0.6233  0.0487
  118MOL    C8321377   2.577   6.365   3.989 -0.0028  0.6372 -0.8860
  118MOL    C8421378   2.494   6.453   4.082  0.1404 -0.4062  0.3370
  118MOL    C8521379   2.565   6.578   4.139  0.4950  0.6533 -0.0333
  118MOL    O8621380   2.675   6.568   4.189  0.1064  0.0402  0.6050
  118MOL    O8721381   2.495   6.697   4.116 -0.2599  0.1777 -0.0848
  118MOL    H8821382   2.515   6.287   3.945  1.8074 -1.0431 -0.5308
  118MOL    H8921383   2.593   6.419   3.896 -3.0433  1.6710 -0.8757
  118MOL    H9021384   2.408   6.500   4.033 -0.8127 -1.3508  1.0892
  118MOL    H9121385   2.549   6.760   4.161  0.1704 -1.3012  1.5677
  118MOL    C9221386   2.433   6.375   4.202 -0.1028  0.1982  0.2259
  118MOL    C9321387   2.277   6.352   4.179  0.5948 -0.8256 -0.5958
  118MOL    C9421388   2.207   6.339   4.313  0.1753 -0.1826  0.1859
  118MOL    O9521389   2.130   6.419   4.360 -0.0726 -0.5921 -0.5733
  118MOL    O9621390   2.241   6.226   4.375  0.3466  0.3704  0.0550
  118MOL    H9721391   2.453   6.426   4.297  1.6571 -2.4648  1.3581
  118MOL    H9821392   2.476   6.277   4.224  2.3155  1.8261  3.2154
  118MOL    H9921393   2.231   6.445   4.147  1.5683  0.6235  2.0468
  118MOL   H10021394   2.211   6.226   4.464 -3.2471 -1.0741 -1.0684
  118MOL   C10121395   2.241   6.235   4.084 -0.5808 -0.0303  0.4773
  118MOL   C10221396   2.186   6.291   3.943  0.5055 -0.2690 -0.0042
  118MOL   C10321397   2.039   6.351   3.947 -0.1312 -0.1606 -0.9523
  118MOL   O10421398   2.022   6.472   3.954 -0.5521 -0.0095 -0.3325
  118MOL   O10521399   1.942   6.252   3.952  0.3484 -0.0782 -0.9327
  118MOL   H10621400   2.157   6.187   4.134 -1.0604 -0.8453 -1.0982
  118MOL   H10721401   2.321   6.162   4.074 -0.1361 -0.0626  3.7583
  118MOL   H10821402   2.247   6.380   3.925 -1.3939  0.9385 -0.5817
  118MOL   H10921403   1.861   6.301   3.955 -0.5781 -1.5447 -1.5342
  118MOL   C11021404   2.206   6.182   3.834  0.0161 -0.2822  0.0494
  118MOL   C11121405   2.193   6.251   3.689 -0.2920  0.4006  0.1462
  118MOL   C11221406   2.061   6.214   3.622  0.9075 -0.2443 -0.6569
  118MOL   O11321407   1.986   6.301   3.583  0.1427 -0.4703  0.5954
  118MOL   O11421408   2.027   6.081   3.620 -0.2756  0.2566  0.0461
  118MOL   H11521409   2.148   6.091   3.848  0.6514 -0.2987  2.9513
  118MOL   H11621410   2.308   6.144   3.847  0.6214  1.1144 -0.4764
  118MOL   H11721411   2.175   6.354   3.720  0.6349  0.8313 -0.7214
  118MOL   H11821412   1.939   6.089   3.585  0.1458  2.4339 -0.6337
  118MOL   C11921413   2.325   6.220   3.617  0.3292  0.5969 -0.0048
  118MOL   C12021414   2.338   6.271   3.471 -0.3667  0.4048  0.3573
  118MOL   C12121415   2.328   6.422   3.456  0.4823  0.7961  0.0408
  118MOL   O12221416   2.265   6.469   3.365 -0.5166 -0.2598  0.3346
  118MOL   O12321417   2.377   6.490   3.563  0.5864 -0.0709  0.2737
  118MOL   H12421418   2.327   6.111   3.612  0.0645  0.6757 -2.3821
  118MOL   H12521419   2.417   6.246   3.668 -0.1513  1.9512  0.1762
  118MOL   H12621420   2.442   6.258   3.441 -0.6417  0.0405 -0.4556
  118MOL   H12721421   2.362   6.583   3.554  2.4363  0.2695  0.6111
  118MOL   C12821422   2.264   6.196   3.360 -0.1340 -1.0516 -0.1903
  118MOL   C12921423   2.249   6.036   3.371 -0.6339  0.0724  0.2240
  118MOL   C13021424   2.383   5.964   3.340  0.2746  0.1422  0.0628
  118MOL   O13121425   2.479   6.012   3.281 -0.2108 -0.0929 -0.1593
  118MOL   O13221426   2.384   5.832   3.380  1.0719  0.2444  0.6494
  118MOL   H13321427   2.285   6.223   3.256  2.0026 -0.3749  0.4064
  118MOL   H13421428   2.158   6.220   3.371 -0.2621 -0.0633 -3.0743
  118MOL   H13521429   2.223   6.009   3.473 -1.1070 -0.8091 -0.1243
  118MOL   H13621430   2.469   5.799   3.357  1.1306  1.5204 -1.1010
  118MOL   C13721431   2.133   5.979   3.288  0.0549  0.2960 -0.1232
  118MOL   C13821432   2.136   5.991   3.134  0.6893 -0.7240  0.3853
  118MOL   C13921433   2.104   6.136   3.078 -0.4742  0.2336  0.6315
  118MOL   O14021434   1.992   6.185   3.079 -0.4062  0.1107  0.5145
  118MOL   O14121435   2.220   6.198   3.037  1.0752  0.4119  0.0982
  118MOL   H14221436   2.036   6.021   3.315 -0.0898  0.5709 -1.0598
  118MOL   H14321437   2.115   5.874   3.310 -1.8005  0.1063 -2.3231
  118MOL   H14421438   2.240   5.965   3.115  0.9163 -1.2468  2.2373
  118MOL   H14521439   2.198   6.283   3.003  0.2176  0.4735  0.7887
  118MOL   C14621440   2.044   5.897   3.061 -0.0527  0.4942 -0.4926
  118MOL   C14721441   2.087   5.744   3.076  0.5369 -0.7807 -0.0117
  118MOL   C14821442   2.180   5.715   2.959 -0.0176 -0.0966  0.7078
  118MOL   O14921443   2.142   5.643   2.869 -0.1836  0.1787  0.0880
  118MOL   O15021444   2.291   5.791   2.950  0.1188 -0.1297  0.1758
  118MOL   H15121445   2.037   5.922   2.955 -1.1756 -0.5837 -0.6867
  118MOL   H15221446   1.943   5.909   3.100 -1.2045 -1.8749 -2.5725
  118MOL   H15321447   2.158   5.726   3.156 -0.9702  0.4643  1.6501
  118MOL   H15421448   2.328   5.770   2.865  1.9776 -0.5025  1.0568
  118MOL   C15521449   1.962   5.655   3.092 -0.3744  0.3190  0.0961
  118MOL   C15621450   1.910   5.646   3.236  0.5799 -0.3437 -0.5903
  118MOL   C15721451   1.981   5.529   3.311 -0.4317 -0.1858  0.5252
  118MOL   O15821452   2.036   5.435   3.250 -0.6748  0.3063 -0.0058
  118MOL   O15921453   1.994   5.565   3.441  0.0609  0.1121 -0.2927
  118MOL   H16021454   1.977   5.553   3.055 -0.6931 -0.3468  1.7782
  118MOL   H16121455   1.886   5.691   3.022  2.1282  1.2170 -2.2493
  118MOL   H16221456   1.941   5.733   3.294 -0.2420  2.5285 -4.2365
  118MOL   H16321457   2.034   5.503   3.500 -0.5150  2.0930  2.2610
  118MOL   C16421458   1.753   5.634   3.249  0.2382  0.8532  0.1822
  118MOL   C16521459   1.677   5.776   3.238 -0.2369 -0.0083  0.5334
  118MOL   C16621460   1.723   5.874   3.347  0.2189  0.4406 -0.3019
  118MOL   O16721461   1.754   5.843   3.462  0.1483 -0.8640 -1.4340
  118MOL   O16821462   1.735   6.002   3.297  0.1960  0.2286  0.1837
  118MOL   H16921463   1.728   5.599   3.350  0.2569  1.1530  0.2921
  118MOL   H17021464   1.712   5.570   3.171  1.7776  1.4948 -1.1632
  118MOL   H17121465   1.708   5.815   3.141 -1.3047 -0.0958  0.1434
  118MOL   H17221466   1.739   6.062   3.370 -0.4309  0.8552 -0.2914
  118MOL   C17321467   1.526   5.756   3.254 -0.5358 -0.6781 -0.0388
  118MOL   C17421468   1.475   5.706   3.392 -0.9953  0.0873  0.0480
  118MOL   C17521469   1.344   5.640   3.386 -0.0826  0.5288  0.3406
  118MOL   O17621470   1.332   5.519   3.391  0.3668 -0.0221 -0.0602
  118MOL   O17721471   1.242   5.723   3.358  0.7328  0.8509 -0.2130
  118MOL   H17821472   1.499   5.679   3.181  0.1903 -1.7969  0.8620
  118MOL   H17921473   1.475   5.850   3.234  0.4193 -0.1713 -0.1497
  118MOL   H18021474   1.540   5.625   3.425 -0.0027 -0.0354 -2.1350
  118MOL   H18121475   1.165   5.671   3.369  0.8014  0.7523 -0.2008
  118MOL   H18221476   1.485   5.781   3.471  0.9934  0.4008 -0.4748
  119MOL     C121477   1.111   7.669   4.362 -0.1302  0.2924 -0.0170
  119MOL     C221478   1.013   7.573   4.284  0.2469 -0.3403 -0.8315
  119MOL     C321479   0.897   7.531   4.378 -1.0511 -0.0829 -0.4088
  119MOL     O421480   0.883   7.414   4.418 -0.4130  0.0989 -0.0087
  119MOL     O521481   0.808   7.639   4.398 -0.3863 -0.5797  0.0439
  119MOL     H621482   1.182   7.720   4.297  1.9978 -1.2915  0.9714
  119MOL     H721483   1.063   7.754   4.411 -0.4769  0.8416 -1.2885
  119MOL     H821484   0.977   7.619   4.192 -1.7540 -2.4820 -1.1510
  119MOL     H921485   0.724   7.622   4.437 -0.2655  0.4023  0.7589
  119MOL    H1021486   1.171   7.617   4.437 -0.4412 -1.2612 -0.8335
  119MOL    C1121487   1.094   7.451   4.238  0.2884 -0.3386 -0.1331
  119MOL    C1221488   1.167   7.478   4.099  0.1112  0.0512  0.0117
  119MOL    C1321489   1.074   7.455   3.979  0.2179  0.0036 -0.3955
  119MOL    O1421490   1.056   7.353   3.928  0.4976  0.0816 -0.1324
  119MOL    O1521491   1.018   7.571   3.940  0.0796  0.0958  0.4102
  119MOL    H1621492   1.021   7.371   4.231  1.3300 -1.2412 -0.8428
  119MOL    H1721493   1.171   7.413   4.306 -0.0857  1.3745  1.3101
  119MOL    H1821494   1.212   7.577   4.091  0.6718 -0.3316 -1.7157
  119MOL    H1921495   0.960   7.559   3.866 -0.8588 -0.5508  1.2268
  119MOL    C2021496   1.280   7.364   4.076 -0.0696 -0.0600  0.0588
  119MOL    C2121497   1.417   7.375   4.160 -0.3322  0.1978 -0.0216
  119MOL    C2221498   1.456   7.530   4.162 -0.3547  0.4819 -0.2969
  119MOL    O2321499   1.456   7.594   4.266 -0.1614  0.2166 -0.0905
  119MOL    O2421500   1.500   7.576   4.043 -0.2713  0.5058 -0.6917
  119MOL    H2521501   1.312   7.366   3.972 -0.6246 -3.0697 -0.1926
  119MOL    H2621502   1.233   7.268   4.099  0.7700 -0.0053  2.1174
  119MOL    H2721503   1.390   7.340   4.260  0.3834 -1.7027 -0.4794
  119MOL    H2821504   1.521   7.668   4.052  1.6685  0.1695 -1.4977
  119MOL    C2921505   1.525   7.287   4.087 -0.1267 -0.5243 -0.0400
  119MOL    C3021506   1.632   7.217   4.180  0.6863 -0.2606  0.1036
  119MOL    C3121507   1.727   7.309   4.254 -0.2664 -0.3205  0.6805
  119MOL    O3221508   1.852   7.306   4.242  0.3882 -0.1765  0.5619
  119MOL    O3321509   1.672   7.394   4.345  0.2777 -0.1712  0.2171
  119MOL    H3421510   1.568   7.329   3.996  0.0425  0.0583  0.3087
  119MOL    H3521511   1.476   7.201   4.040 -1.8075  1.7708 -2.6044
  119MOL    H3621512   1.568   7.161   4.248  1.9702 -0.9235  0.7916
  119MOL    H3721513   1.742   7.434   4.394 -1.1721  1.5007  0.9711
  119MOL    C3821514   1.712   7.116   4.088  0.1133  0.4604  0.0738
  119MOL    C3921515   1.650   6.974   4.114  0.9706 -0.5030 -0.4027
  119MOL    C4021516   1.708   6.920   4.247 -0.7264 -0.5135 -0.5140
  119MOL    O4121517   1.641   6.882   4.340  0.0391  0.5673 -0.0697
  119MOL    O4221518   1.841   6.919   4.235 -0.7107 -0.1337 -0.0904
  119MOL    H4321519   1.821   7.115   4.100  0.2494 -0.4650 -1.0953
  119MOL    H4421520   1.690   7.140   3.984  1.3508  0.6666 -0.1583
  119MOL    H4521521   1.541   6.984   4.122  0.9435  0.9566 -2.1292
  119MOL    H4621522   1.883   6.885   4.313  1.2968 -1.4707 -1.7232
  119MOL    C4721523   1.658   6.875   4.000 -0.3657 -0.3588 -0.0243
  119MOL    C4821524   1.591   6.737   4.005 -0.3050  0.3824 -0.0584
  119MOL    C4921525   1.646   6.650   3.889  0.3270  0.1914  0.0071
  119MOL    O5021526   1.711   6.550   3.903 -0.1124 -0.3165  0.3929
  119MOL    O5121527   1.623   6.708   3.770  0.1015  0.0989  0.7231
  119MOL    H5221528   1.765   6.858   3.988 -0.0731  0.1685  1.7384
  119MOL    H5321529   1.619   6.929   3.914  0.7104  1.7055  0.7527
  119MOL    H5421530   1.623   6.695   4.100 -2.4967 -1.5823 -0.1312
  119MOL    H5521531   1.670   6.660   3.703  0.1488  1.3689 -0.1571
  119MOL    C5621532   1.437   6.745   4.012  0.8850  0.3853  0.6879
  119MOL    C5721533   1.374   6.618   4.079  0.0412  0.3799  0.0169
  119MOL    C5821534   1.235   6.577   4.031  0.7284 -0.1640 -0.5542
  119MOL    O5921535   1.164   6.657   3.975 -0.5707  0.0288 -0.3331
  119MOL    O6021536   1.203   6.444   4.039 -0.1661 -0.3775  0.6794
  119MOL    H6121537   1.393   6.762   3.913  0.8231  0.5779  0.7477
  119MOL    H6221538   1.406   6.837   4.062 -0.1149  0.5801 -0.2642
  119MOL    H6321539   1.438   6.535   4.050 -0.0673  0.7282 -1.2267
  119MOL    H6421540   1.118   6.439   3.998 -0.3083 -1.0332  1.0371
  119MOL    C6521541   1.383   6.619   4.232  0.1840 -0.1909  0.2755
  119MOL    C6621542   1.318   6.731   4.315 -0.1936  0.6503 -1.3103
  119MOL    C6721543   1.364   6.718   4.461 -0.3432 -0.3552 -0.0179
  119MOL    O6821544   1.382   6.609   4.515  0.2307 -0.0886  0.0835
  119MOL    O6921545   1.374   6.842   4.522  0.2414  0.8235 -0.1843
  119MOL    H7021546   1.488   6.638   4.256 -0.3189  1.8143  0.9478
  119MOL    H7121547   1.356   6.522   4.273 -1.0324  0.2042  0.4229
  119MOL    H7221548   1.357   6.828   4.283 -3.4347  1.9035 -1.5925
  119MOL    H7321549   1.402   6.833   4.611  0.7277 -3.1565 -0.6427
  119MOL    C7421550   1.165   6.749   4.312  0.4597 -0.1251  0.1693
  119MOL    C7521551   1.120   6.880   4.245  0.6602 -0.6718 -0.1947
  119MOL    C7621552   1.139   6.999   4.338  0.3856 -0.7442  0.3210
  119MOL    O7721553   1.206   7.095   4.309 -0.3234 -0.1305 -0.4519
  119MOL    O7821554   1.066   6.975   4.453  0.0292  0.5054 -0.0036
  119MOL    H7921555   1.132   6.747   4.416  0.9248  1.1452  0.3486
  119MOL    H8021556   1.120   6.663   4.262  1.7222  0.3796 -1.8864
  119MOL    H8121557   1.178   6.912   4.158 -0.5114 -0.3841 -0.8772
  119MOL    H8221558   1.087   7.044   4.514  1.8599 -0.5520  0.6216
  119MOL    C8321559   0.967   6.864   4.204 -0.4839 -0.0571 -0.8113
  119MOL    C8421560   0.887   6.976   4.116  0.3279  0.0440  0.6805
  119MOL    C8521561   0.825   7.091   4.195  0.7815  0.1865  0.3827
  119MOL    O8621562   0.709   7.132   4.180  0.0037  0.5742  0.0994
  119MOL    O8721563   0.908   7.156   4.275  0.1199  0.2666 -0.4724
  119MOL    H8821564   0.904   6.842   4.291 -0.1952  0.2468 -0.5208
  119MOL    H8921565   0.965   6.769   4.150 -0.3388 -1.3910  1.4563
  119MOL    H9021566   0.970   7.022   4.063  0.3139 -1.2781 -0.5220
  119MOL    H9121567   0.887   7.240   4.310 -0.5638  0.1996 -0.7167
  119MOL    C9221568   0.794   6.911   4.006 -0.2186 -0.0204  0.0178
  119MOL    C9321569   0.876   6.855   3.887 -0.5117 -0.1476 -0.1131
  119MOL    C9421570   0.963   6.955   3.815 -0.1172 -0.1584  0.1327
  119MOL    O9521571   1.086   6.941   3.791 -0.1893 -0.6041 -0.0026
  119MOL    O9621572   0.898   7.062   3.757  0.4398  0.4616  0.1114
  119MOL    H9721573   0.722   6.980   3.962  0.5570  0.2055 -0.9071
  119MOL    H9821574   0.738   6.826   4.047 -0.9096 -0.2851 -1.4316
  119MOL    H9921575   0.944   6.775   3.916  1.3357  1.1120 -0.9102
  119MOL   H10021576   0.957   7.117   3.708 -0.2304  0.4701 -0.7002
  119MOL   C10121577   0.782   6.802   3.778 -0.4345  0.6329 -0.0135
  119MOL   C10221578   0.768   6.644   3.774 -0.0467 -0.9550  0.1776
  119MOL   C10321579   0.697   6.594   3.655  0.3275 -0.7311 -0.7273
  119MOL   O10421580   0.574   6.602   3.645  0.0317 -0.2446  0.0397
  119MOL   O10521581   0.780   6.562   3.558  0.2412 -0.4383  0.0333
  119MOL   H10621582   0.814   6.822   3.676  0.0704  0.5780  0.1332
  119MOL   H10721583   0.687   6.856   3.782  0.0446  1.3222  2.5819
  119MOL   H10821584   0.868   6.599   3.771  0.8884  1.0700 -0.0344
  119MOL   H10921585   0.730   6.549   3.478  1.0918 -4.0907 -0.0221
  119MOL   C11021586   0.685   6.604   3.905  0.0794  0.6280  0.4583
  119MOL   C11121587   0.775   6.548   4.020  0.0632 -0.3384  0.7177
  119MOL   C11221588   0.848   6.420   3.977 -0.2947  0.1353  0.3911
  119MOL   O11321589   0.962   6.416   3.950  0.5212  0.2598  0.2435
  119MOL   O11421590   0.763   6.321   3.958  0.6406  0.3358 -0.1300
  119MOL   H11521591   0.619   6.522   3.877  1.4546  0.1558 -1.4931
  119MOL   H11621592   0.624   6.678   3.956  0.6350  1.0246  0.5488
  119MOL   H11721593   0.852   6.622   4.041  0.2596  0.0906 -1.4088
  119MOL   H11821594   0.816   6.245   3.938  0.6259  0.0532  0.8922
  119MOL   C11921595   0.688   6.535   4.154  0.0454  0.0236  0.4103
  119MOL   C12021596   0.746   6.446   4.270  0.5392 -0.1018 -0.9497
  119MOL   C12121597   0.629   6.394   4.359 -0.3048 -0.7046  0.2218
  119MOL   O12221598   0.530   6.327   4.318  0.6339 -0.7122 -0.3595
  119MOL   O12321599   0.639   6.434   4.489 -0.3137  0.1525 -0.0605
  119MOL   H12421600   0.593   6.496   4.115 -0.2665 -0.6557  1.8191
  119MOL   H12521601   0.659   6.629   4.200  1.7015  1.6138 -1.6933
  119MOL   H12621602   0.784   6.351   4.232  2.9868 -0.2654  1.7108
  119MOL   H12721603   0.559   6.420   4.537 -0.9022  1.9542 -0.4624
  119MOL   C12821604   0.868   6.514   4.344 -0.6491  0.1574  0.8024
  119MOL   C12921605   0.960   6.430   4.436  0.3000 -0.0739  0.2181
  119MOL   C13021606   1.017   6.495   4.567 -0.8503  0.2315  0.9536
  119MOL   O13121607   1.010   6.614   4.586 -0.0852 -0.0753 -0.0094
  119MOL   O13221608   1.068   6.407   4.657  0.1864  0.7656 -0.0245
  119MOL   H13321609   0.830   6.594   4.408  0.8067 -0.4920  2.5204
  119MOL   H13421610   0.927   6.559   4.264 -0.7866 -0.3116  0.4347
  119MOL   H13521611   0.890   6.358   4.479  0.9426 -0.6248  0.3607
  119MOL   H13621612   1.110   6.451   4.730 -1.5319 -0.7198  1.9315
  119MOL   C13721613   1.071   6.356   4.348 -0.0779 -0.0903 -0.2579
  119MOL   C13821614   1.125   6.228   4.423 -0.6694 -0.2012 -0.6369
  119MOL   C13921615   1.257   6.193   4.359 -0.3436  0.1267 -0.7689
  119MOL   O14021616   1.269   6.102   4.276  0.5740 -0.1936  0.0132
  119MOL   O14121617   1.358   6.279   4.394  0.3500 -0.2848 -0.3421
  119MOL   H14221618   1.152   6.425   4.327  0.2741  0.2534  2.1296
  119MOL   H14321619   1.035   6.321   4.251 -2.0509  2.5022 -0.5235
  119MOL   H14421620   1.144   6.264   4.524 -0.1582  1.4904 -1.3259
  119MOL   H14521621   1.323   6.346   4.450  1.0911 -1.4848  1.6014
  119MOL   C14621622   1.027   6.110   4.428 -0.1109 -0.1006  0.4141
  119MOL   C14721623   1.060   5.994   4.525 -0.3167 -0.6070 -0.1709
  119MOL   C14821624   0.972   5.874   4.491 -0.0053 -0.3362  0.8185
  119MOL   O14921625   0.875   5.830   4.559 -0.0767 -0.2742  0.1979
  119MOL   O15021626   1.016   5.825   4.374 -0.0706 -0.4522  0.9770
  119MOL   H15121627   1.037   6.064   4.330  0.3706 -2.3105  1.4639
  119MOL   H15221628   0.924   6.144   4.431  0.7275  2.4220  1.8886
  119MOL   H15321629   1.165   5.978   4.500 -0.3398  2.5400 -2.5134
  119MOL   H15421630   0.961   5.753   4.346  1.1487 -0.2931 -1.8931
  119MOL   C15521631   1.038   6.044   4.672  0.7564  0.2789  0.1294
  119MOL   C15621632   1.106   5.964   4.784  0.4635  0.3204  0.4146
  119MOL   C15721633   1.022   5.844   4.829  0.0154  0.0081  0.8193
  119MOL   O15821634   0.901   5.842   4.852  0.2610 -0.3336  0.2092
  119MOL   O15921635   1.098   5.727   4.850  0.0407  0.4007  0.4928
  119MOL   H16021636   0.929   6.043   4.679  0.6307 -0.7624 -1.5936
  119MOL   H16121637   1.070   6.149   4.677  1.8936 -0.0695  0.2378
  119MOL   H16221638   1.203   5.939   4.740  1.8133  2.1949  2.1690
  119MOL   H16321639   1.044   5.651   4.869 -0.1005  0.4416  0.2514
  119MOL   C16421640   1.141   6.057   4.898  0.0610  0.1732 -0.0154
  119MOL   C16521641   1.246   5.994   4.995  0.7258  0.3278  0.0693
  119MOL   C16621642   1.176   5.947   5.126  0.3089  0.7275 -0.0178
  119MOL   O16721643   1.088   6.011   5.191  0.2454  0.5132  0.8038
  119MOL   O16821644   1.229   5.833   5.185 -0.5192 -0.5245 -0.1183
  119MOL   H16921645   1.058   6.110   4.944  1.2307  1.1883  0.9894
  119MOL   H17021646   1.194   6.142   4.854  0.4645  0.3988  0.8714
  119MOL   H17121647   1.292   5.910   4.942 -0.9366  0.3215 -1.4108
  119MOL   H17221648   1.190   5.809   5.268  2.5905 -1.8046  1.0566
  119MOL   C17321649   1.365   6.098   5.017  0.1285  0.2051 -0.1814
  119MOL   C17421650   1.347   6.244   5.082  0.3716  0.2317  0.1445
  119MOL   C17521651   1.339   6.240   5.235 -0.0394 -0.1063 -0.5120
  119MOL   O17621652   1.391   6.161   5.306 -0.7890  0.6862  0.3149
  119MOL   O17721653   1.268   6.339   5.277  0.6474 -0.3822 -0.1060
  119MOL   H17821654   1.416   6.116   4.923 -3.2227 -1.0037 -2.2955
  119MOL   H17921655   1.443   6.046   5.072 -1.0658 -0.1844  1.1928
  119MOL   H18021656   1.432   6.306   5.053  0.2546  0.1942 -0.2899
  119MOL   H18121657   1.268   6.354   5.371 -0.3638  0.5587 -0.2446
  119MOL   H18221658   1.276   6.311   5.034 -0.8189 -0.5288  0.8331
  120MOL     C121659   4.347   2.929   3.129 -0.1034 -0.1971 -0.5378
  120MOL     C221660   4.494   2.946   3.089 -0.2574  0.0629  0.4492
  120MOL     C321661   4.554   2.806   3.068 -0.4570  0.4790  0.2568
  120MOL     O421662   4.495   2.701   3.093  0.1467  0.1824 -0.4757
  120MOL     O521663   4.685   2.811   3.031 -0.5599  0.0198 -0.0060
  120MOL     H621664   4.341   2.877   3.224 -2.2108 -0.8804 -1.0148
  120MOL     H721665   4.297   3.025   3.138 -1.6388 -0.9397 -1.0374
  120MOL     H821666   4.506   3.010   3.001  1.1231 -2.3654 -1.1798
  120MOL     H921667   4.719   2.723   3.025 -1.1881 -0.2997  0.9902
  120MOL    H1021668   4.295   2.871   3.053 -0.8921 -2.5076  1.7118
  120MOL    C1121669   4.576   3.029   3.197 -0.4524 -0.3236 -0.6849
  120MOL    C1221670   4.674   3.135   3.144  0.0254  0.3110  0.0545
  120MOL    C1321671   4.823   3.100   3.180 -0.7543  0.0729  0.1214
  120MOL    O1421672   4.899   3.170   3.252 -0.2434 -0.2111  0.2805
  120MOL    O1521673   4.870   2.991   3.111  0.2314  0.2348  0.4618
  120MOL    H1621674   4.640   2.961   3.254 -3.2812 -1.8357  0.8380
  120MOL    H1721675   4.495   3.068   3.259 -1.0830 -1.2665 -0.9047
  120MOL    H1821676   4.677   3.127   3.035  0.9283 -0.6899  0.1518
  120MOL    H1921677   4.796   2.945   3.074  0.2689 -1.3925  2.3379
  120MOL    C2021678   4.621   3.277   3.182 -0.6410 -0.2969 -0.6372
  120MOL    C2121679   4.704   3.389   3.105 -0.1375  0.0780  0.1203
  120MOL    C2221680   4.810   3.455   3.197 -0.2643  0.4552 -0.3178
  120MOL    O2321681   4.784   3.481   3.317 -0.2535 -0.0676  0.0141
  120MOL    O2421682   4.933   3.477   3.136  0.1285  0.3788  0.8243
  120MOL    H2521683   4.627   3.287   3.290  0.2200  3.3030 -0.9826
  120MOL    H2621684   4.515   3.284   3.156 -1.0562  0.3300  1.1818
  120MOL    H2721685   4.751   3.336   3.023 -2.2979 -0.5751 -0.7268
  120MOL    H2821686   4.982   3.522   3.203 -1.3675  2.2219  0.7233
  120MOL    C2921687   4.602   3.489   3.043 -0.1581  0.1828 -0.2119
  120MOL    C3021688   4.664   3.592   2.940 -0.7834 -0.0089 -0.1357
  120MOL    C3121689   4.690   3.738   2.994 -0.1334  0.3796 -0.1967
  120MOL    O3221690   4.626   3.837   2.955 -0.4003 -0.2061  0.0873
  120MOL    O3321691   4.787   3.740   3.089 -0.3744  0.0209 -0.2812
  120MOL    H3421692   4.564   3.550   3.125  0.7050  0.0163  0.3234
  120MOL    H3521693   4.524   3.427   3.000 -0.8595 -0.8036  2.4344
  120MOL    H3621694   4.764   3.554   2.920 -0.8625 -0.6189  0.6248
  120MOL    H3721695   4.792   3.827   3.125  1.7849 -0.4578  0.6171
  120MOL    C3821696   4.585   3.596   2.803 -0.7368 -0.3159 -0.8592
  120MOL    C3921697   4.607   3.467   2.719 -0.1661 -0.0136 -0.0058
  120MOL    C4021698   4.739   3.477   2.632 -0.7993  0.6015  1.0044
  120MOL    O4121699   4.809   3.578   2.614  0.8017  0.0884  0.2950
  120MOL    O4221700   4.777   3.356   2.583  0.4563  0.0261  0.8467
  120MOL    H4321701   4.613   3.687   2.749 -1.0981  0.5924  0.4606
  120MOL    H4421702   4.481   3.616   2.827 -0.8454  2.3084 -3.2628
  120MOL    H4521703   4.632   3.391   2.793 -2.1750  2.0745  2.9360
  120MOL    H4621704   4.847   3.363   2.520  0.0044 -2.3089  0.0139
  120MOL    C4721705   4.486   3.420   2.639 -0.0579  0.3252  0.3822
  120MOL    C4821706   4.380   3.344   2.710 -0.6402  0.0833 -0.2245
  120MOL    C4921707   4.450   3.225   2.781 -0.0251 -0.2585  0.3428
  120MOL    O5021708   4.432   3.206   2.899 -0.4147  0.1169 -0.3772
  120MOL    O5121709   4.538   3.151   2.701 -0.3438  0.0672  0.1078
  120MOL    H5221710   4.517   3.369   2.548  1.3443  0.6735  0.6521
  120MOL    H5321711   4.432   3.507   2.602  0.2645 -0.6117 -2.4065
  120MOL    H5421712   4.331   3.411   2.781 -0.7431 -1.5863  1.3381
  120MOL    H5521713   4.580   3.086   2.755 -2.2609 -0.7097  0.6991
  120MOL    C5621714   4.269   3.282   2.619  0.3794  0.0019 -0.0455
  120MOL    C5721715   4.148   3.222   2.697  0.2552  0.3834  0.4432
  120MOL    C5821716   4.057   3.145   2.600 -0.4210 -0.4603 -0.0760
  120MOL    O5921717   3.956   3.191   2.545  0.3157  0.3623 -0.3975
  120MOL    O6021718   4.109   3.024   2.581 -0.0627 -0.2188 -0.1217
  120MOL    H6121719   4.312   3.207   2.552  0.6119 -0.6902  0.8687
  120MOL    H6221720   4.238   3.365   2.555  0.4190 -0.2162 -0.3498
  120MOL    H6321721   4.199   3.152   2.764 -0.9646 -1.4184 -0.4913
  120MOL    H6421722   4.051   2.966   2.534  0.3921  0.0802 -1.0550
  120MOL    C6521723   4.067   3.328   2.776  0.0235 -0.3588 -0.7789
  120MOL    C6621724   3.967   3.260   2.873 -0.1141  0.4910  0.3103
  120MOL    C6721725   3.879   3.371   2.937  0.7043  0.0747 -0.2473
  120MOL    O6821726   3.919   3.449   3.024 -0.5821 -0.0808  0.3354
  120MOL    O6921727   3.747   3.351   2.907  0.4776 -1.2440  0.4488
  120MOL    H7021728   4.014   3.390   2.704 -2.3068 -0.4780  0.7619
  120MOL    H7121729   4.128   3.396   2.836 -1.7937 -1.6728  2.6837
  120MOL    H7221730   3.892   3.203   2.818 -0.1681 -0.1743  1.0635
  120MOL    H7321731   3.691   3.413   2.951 -1.6620 -1.4796 -1.8894
  120MOL    C7421732   4.033   3.163   2.982 -0.5746 -1.0960  0.4574
  120MOL    C7521733   3.941   3.054   3.036 -0.4528 -0.3291  0.1855
  120MOL    C7621734   3.899   2.962   2.923 -0.1352  0.3511  0.0353
  120MOL    O7721735   3.797   2.982   2.855 -0.5280  0.4737 -0.0557
  120MOL    O7821736   3.996   2.870   2.901 -0.0040  0.3559 -0.2382
  120MOL    H7921737   4.066   3.221   3.068 -0.4903  0.5351 -0.6543
  120MOL    H8021738   4.132   3.125   2.955  0.1328  0.4812  0.7330
  120MOL    H8121739   4.011   2.994   3.095  0.1098  0.4314  0.2941
  120MOL    H8221740   3.958   2.821   2.830 -0.0024 -2.0760  1.3908
  120MOL    C8321741   3.827   3.101   3.128 -0.3728 -0.0733 -0.7619
  120MOL    C8421742   3.854   3.170   3.264 -0.0396  0.3724 -0.4163
  120MOL    C8521743   3.894   3.062   3.371 -0.5531  0.0865  0.2043
  120MOL    O8621744   3.911   2.944   3.346 -0.4433  0.3644  0.2054
  120MOL    O8721745   3.914   3.117   3.495 -0.0246 -1.0536 -0.2958
  120MOL    H8821746   3.760   3.018   3.153  1.4584 -1.9527 -1.9436
  120MOL    H8921747   3.759   3.162   3.069  0.4627  0.8623 -0.7588
  120MOL    H9021748   3.941   3.235   3.256 -0.8585  1.4433 -0.8185
  120MOL    H9121749   3.947   3.054   3.557  0.2628 -1.7687 -1.1593
  120MOL    C9221750   3.720   3.248   3.302 -0.0987 -0.3411 -0.0199
  120MOL    C9321751   3.713   3.340   3.423 -0.0047 -0.2682  0.0282
  120MOL    C9421752   3.569   3.366   3.462  0.0168 -0.3237  0.5002
  120MOL    O9521753   3.505   3.470   3.451  0.6799  0.5341  0.0469
  120MOL    O9621754   3.520   3.248   3.504  0.0555 -0.3424 -0.0227
  120MOL    H9721755   3.644   3.170   3.311 -0.6932  0.1860 -0.4510
  120MOL    H9821756   3.692   3.308   3.216 -0.4518 -0.8653 -0.2791
  120MOL    H9921757   3.745   3.277   3.507 -1.9660  0.8443  1.6584
  120MOL   H10021758   3.440   3.272   3.549 -0.1063  2.2696 -1.6252
  120MOL   C10121759   3.807   3.466   3.413 -0.0792 -0.4256 -0.0063
  120MOL   C10221760   3.840   3.545   3.542  0.2355 -1.1164  0.0187
  120MOL   C10321761   3.722   3.622   3.602 -1.2763 -0.3021 -0.2561
  120MOL   O10421762   3.677   3.611   3.714 -0.5015  0.0608 -0.1292
  120MOL   O10521763   3.675   3.702   3.509 -0.0691  0.0462 -0.8567
  120MOL   H10621764   3.765   3.534   3.340  1.2200 -0.7645 -1.0995
  120MOL   H10721765   3.899   3.433   3.364  0.1539  0.9594 -0.5226
  120MOL   H10821766   3.871   3.473   3.617 -1.3440 -1.5034  0.3144
  120MOL   H10921767   3.598   3.747   3.542  1.0210  0.2611  1.4764
  120MOL   C11021768   3.962   3.641   3.515 -0.1588 -0.3063 -0.5105
  120MOL   C11121769   4.095   3.573   3.545 -0.8147  0.8794  0.6881
  120MOL   C11221770   4.129   3.578   3.692 -0.3676  0.2082 -0.0789
  120MOL   O11321771   4.233   3.526   3.730  0.5477 -0.1810  0.2151
  120MOL   O11421772   4.032   3.634   3.768  0.0832 -0.9347 -0.0619
  120MOL   H11521773   3.954   3.737   3.567 -1.4117  0.1065 -1.4420
  120MOL   H11621774   3.965   3.686   3.416 -2.4921  1.9465  0.3856
  120MOL   H11721775   4.083   3.468   3.520  2.4629 -0.1624  3.2140
  120MOL   H11821776   4.052   3.632   3.860  2.9440  0.5256 -0.6122
  120MOL   C11921777   4.208   3.642   3.461 -0.5055 -0.1702 -0.5683
  120MOL   C12021778   4.217   3.581   3.314  0.4827  0.4108 -0.1455
  120MOL   C12121779   4.280   3.437   3.319 -0.0285 -0.5529 -0.0617
  120MOL   O12221780   4.387   3.411   3.357 -0.1479  0.7376 -0.1994
  120MOL   O12321781   4.174   3.351   3.297 -0.1192 -0.1207 -0.2186
  120MOL   H12421782   4.305   3.614   3.503 -0.2412 -0.3135 -1.2616
  120MOL   H12521783   4.175   3.746   3.465  1.2996  0.3546  1.7676
  120MOL   H12621784   4.112   3.569   3.286 -0.0577 -0.8262  2.2448
  120MOL   H12721785   4.193   3.263   3.326  1.4552  0.2934  0.0595
  120MOL   C12821786   4.300   3.661   3.216 -0.0321  0.2951 -0.1077
  120MOL   C12921787   4.231   3.779   3.149  0.3316  0.0580 -0.2477
  120MOL   C13021788   4.097   3.732   3.090 -0.3293  0.3632  0.2846
  120MOL   O13121789   3.988   3.775   3.136  0.0678 -0.0332  0.2552
  120MOL   O13221790   4.108   3.636   2.992  0.3835  0.2058  0.1947
  120MOL   H13321791   4.324   3.603   3.127 -1.3915 -2.5150  1.2842
  120MOL   H13421792   4.402   3.677   3.250  0.6691  3.2167 -3.2015
  120MOL   H13521793   4.207   3.850   3.229 -1.2340 -2.1621  1.3294
  120MOL   H13621794   4.028   3.586   2.992  1.4545 -1.5505 -0.9996
  120MOL   C13721795   4.311   3.861   3.047  0.0735  0.3994 -0.5515
  120MOL   C13821796   4.268   4.009   3.027 -0.5895 -0.4122 -0.2516
  120MOL   C13921797   4.159   4.039   2.920  0.3442  0.5606 -0.7192
  120MOL   O14021798   4.174   4.058   2.802 -0.5004  0.2578 -0.4859
  120MOL   O14121799   4.035   4.034   2.980  0.1366  0.0432 -0.4674
  120MOL   H14221800   4.316   3.811   2.951 -0.8960 -0.8900  0.0656
  120MOL   H14321801   4.408   3.851   3.096 -0.8388  0.5510  1.3411
  120MOL   H14421802   4.211   4.041   3.114 -0.5877  0.9492 -0.7329
  120MOL   H14521803   3.963   4.065   2.928 -1.9234 -2.5760  0.7383
  120MOL   C14621804   4.395   4.101   3.017 -0.6805 -0.2163 -0.4671
  120MOL   C14721805   4.477   4.137   3.150 -0.1285 -0.0355  0.1204
  120MOL   C14821806   4.387   4.202   3.246 -0.0266 -0.2103  0.5477
  120MOL   O14921807   4.348   4.315   3.233  0.2916  0.6380  0.0212
  120MOL   O15021808   4.336   4.113   3.333 -0.0965 -0.2853  0.1644
  120MOL   H15121809   4.360   4.192   2.968 -2.4891  0.9402  2.8001
  120MOL   H15221810   4.460   4.052   2.945 -0.9990 -1.6638  0.2084
  120MOL   H15321811   4.510   4.045   3.199  2.6788 -0.2495 -2.0651
  120MOL   H15421812   4.286   4.157   3.400  0.8161  0.8033  0.1522
  120MOL   C15521813   4.603   4.223   3.110 -0.4553 -0.4392  0.6974
  120MOL   C15621814   4.736   4.204   3.200  0.1781  0.5416  0.1854
  120MOL   C15721815   4.820   4.080   3.150 -0.2426  0.3830 -0.6519
  120MOL   O15821816   4.819   3.969   3.197 -0.2931  0.1481  0.0261
  120MOL   O15921817   4.900   4.120   3.043  0.5824 -0.3264  0.0217
  120MOL   H16021818   4.576   4.327   3.097 -1.4749 -0.9043 -1.0199
  120MOL   H16121819   4.628   4.214   3.005 -3.0953  0.3621 -0.0264
  120MOL   H16221820   4.784   4.298   3.170  1.4835 -0.6531 -1.5939
  120MOL   H16321821   4.938   4.045   2.998 -1.7283 -1.1019 -0.6885
  120MOL   C16421822   4.715   4.199   3.354  0.0901 -0.1158 -0.5231
  120MOL   C16521823   4.738   4.330   3.432  0.0991  0.5992  0.3676
  120MOL   C16621824   4.765   4.305   3.582 -0.2584  0.6428  0.3350
  120MOL   O16721825   4.686   4.254   3.657 -0.5250  0.0872  0.4220
  120MOL   O16821826   4.879   4.369   3.624  0.2238 -0.2661  0.2610
  120MOL   H16921827   4.788   4.131   3.399 -1.2219  0.1004  1.9907
  120MOL   H17021828   4.619   4.153   3.376 -0.8844  2.3746  0.4969
  120MOL   H17121829   4.828   4.369   3.384  2.7592 -3.2780  1.9423
  120MOL   H17221830   4.869   4.363   3.718  0.3326 -0.1886  0.2770
  120MOL   C17321831   4.631   4.438   3.415 -0.0056  0.1787 -0.8053
  120MOL   C17421832   4.672   4.579   3.482  0.2404  0.1019 -0.0743
  120MOL   C17521833   4.569   4.693   3.453 -0.2023 -0.8054 -0.1878
  120MOL   O17621834   4.463   4.679   3.394  0.3194 -0.1251 -0.7378
  120MOL   O17721835   4.601   4.812   3.519  0.0009 -0.5378  0.4874
  120MOL   H17821836   4.533   4.401   3.444  0.3300 -0.5916 -0.6157
  120MOL   H17921837   4.627   4.446   3.306  1.1178 -1.0154 -0.9522
  120MOL   H18021838   4.682   4.565   3.589 -1.5516 -1.3594 -0.0797
  120MOL   H18121839   4.534   4.871   3.489  0.8749 -0.1347 -0.7248
  120MOL   H18221840   4.765   4.611   3.435  0.4949 -0.8546 -0.2307
  121MOL     C121841   6.458   0.646   2.974 -0.2709  0.0067  0.3025
  121MOL     C221842   6.343   0.626   2.880 -0.5350 -0.3219 -0.4785
  121MOL     C321843   6.292   0.483   2.870  0.7381 -0.1146 -0.1060
  121MOL     O421844   6.347   0.385   2.909  0.1521  0.0668 -0.3083
  121MOL     O521845   6.169   0.479   2.815  0.2597 -0.4975 -0.1762
  121MOL     H621846   6.548   0.625   2.917 -0.7252  0.3745 -0.5728
  121MOL     H721847   6.457   0.751   3.001 -0.1699  0.2103 -0.4787
  121MOL     H821848   6.270   0.688   2.932  0.9580  0.0879  1.2296
  121MOL     H921849   6.130   0.396   2.794  0.2482  0.0566 -2.5411
  121MOL    H1021850   6.451   0.583   3.062 -2.2083  1.5820  1.3027
  121MOL    C1121851   6.386   0.680   2.744 -0.4655 -0.2733  0.3164
  121MOL    C1221852   6.423   0.829   2.730 -0.0558 -0.1865 -0.8654
  121MOL    C1321853   6.314   0.926   2.773 -0.4055 -0.8050 -0.8851
  121MOL    O1421854   6.195   0.923   2.741  0.1946 -0.2311 -0.0656
  121MOL    O1521855   6.358   1.019   2.858 -0.0785 -0.1575 -0.1034
  121MOL    H1621856   6.305   0.661   2.673  0.4876  0.8785 -1.1320
  121MOL    H1721857   6.473   0.624   2.709  1.0640  0.7771  2.3542
  121MOL    H1821858   6.509   0.851   2.793  0.4819 -2.1881 -0.8866
  121MOL    H1921859   6.450   1.018   2.880 -0.1436 -3.2702  0.2819
  121MOL    C2021860   6.467   0.853   2.584  0.4130 -0.1059  0.4728
  121MOL    C2121861   6.597   0.933   2.551  0.1226 -0.9553 -0.1466
  121MOL    C2221862   6.602   0.997   2.410  0.7735  0.3174 -0.5442
  121MOL    O2321863   6.556   0.943   2.307  0.2020  0.9923  0.0808
  121MOL    O2421864   6.659   1.124   2.415 -0.0469  0.5155 -0.5374
  121MOL    H2521865   6.378   0.896   2.537  1.0023  1.0353  0.3804
  121MOL    H2621866   6.469   0.760   2.528 -1.2170 -1.2523  2.2399
  121MOL    H2721867   6.595   1.019   2.619  0.7842  0.4352 -1.8631
  121MOL    H2821868   6.662   1.139   2.322  0.1510  1.8217 -0.3367
  121MOL    C2921869   6.729   0.854   2.576 -0.1494 -0.4765 -0.4973
  121MOL    C3021870   6.804   0.898   2.704  0.7482  0.7301  0.0960
  121MOL    C3121871   6.876   1.029   2.677 -0.3934  0.6649 -0.3186
  121MOL    O3221872   6.965   1.030   2.597  0.3454 -0.8256 -0.5464
  121MOL    O3321873   6.823   1.132   2.748 -0.2083 -0.5286 -0.0490
  121MOL    H3421874   6.798   0.865   2.492 -0.7961  0.3116 -0.9379
  121MOL    H3521875   6.708   0.748   2.568 -1.4358 -0.3753  1.1941
  121MOL    H3621876   6.722   0.917   2.773  0.4186 -1.0725  0.2487
  121MOL    H3721877   6.869   1.215   2.741  0.5437 -0.8613  0.7582
  121MOL    C3821878   6.899   0.790   2.757  0.3013  0.1860 -0.4908
  121MOL    C3921879   6.827   0.663   2.823  0.0815 -0.0043  0.5471
  121MOL    C4021880   6.808   0.670   2.973 -0.1837  0.2523  0.2754
  121MOL    O4121881   6.802   0.781   3.033 -0.2126 -0.4915  0.1754
  121MOL    O4221882   6.773   0.557   3.034 -0.6023  0.2067  0.3899
  121MOL    H4321883   6.962   0.835   2.833  0.4102 -0.5421 -0.1491
  121MOL    H4421884   6.966   0.754   2.678 -0.0167 -0.7069 -0.3491
  121MOL    H4521885   6.728   0.657   2.779 -0.3461  0.4449  1.4531
  121MOL    H4621886   6.767   0.568   3.128 -0.9645  1.6231  0.2125
  121MOL    C4721887   6.918   0.536   2.787  0.2845 -0.0864  0.1470
  121MOL    C4821888   6.861   0.439   2.685  0.2496 -0.6076 -0.8446
  121MOL    C4921889   6.833   0.500   2.549  0.3186  0.4578  0.0658
  121MOL    O5021890   6.718   0.502   2.505 -0.1312 -0.2405 -0.3923
  121MOL    O5121891   6.940   0.551   2.482  0.2106 -0.2996 -0.2986
  121MOL    H5221892   6.945   0.475   2.874 -1.8097 -1.6412 -0.2400
  121MOL    H5321893   7.017   0.569   2.756  0.2637  1.0309  1.2379
  121MOL    H5421894   6.946   0.373   2.667  1.4553  0.9977 -1.1501
  121MOL    H5521895   6.909   0.587   2.400  1.2959 -0.8472 -0.9506
  121MOL    C5621896   6.736   0.358   2.733 -0.4731 -0.0563  0.3801
  121MOL    C5721897   6.757   0.262   2.851 -0.4101  0.3915  0.3371
  121MOL    C5821898   6.880   0.170   2.821 -0.3610 -0.0496 -0.2108
  121MOL    O5921899   6.985   0.172   2.888  0.0103 -0.0418 -0.3505
  121MOL    O6021900   6.860   0.084   2.719  0.2128 -0.0910  0.2411
  121MOL    H6121901   6.709   0.288   2.654  1.9999 -1.4911  0.7384
  121MOL    H6221902   6.655   0.427   2.754  0.0935  1.5615 -2.4905
  121MOL    H6321903   6.773   0.326   2.937  0.9570 -1.1341  1.2513
  121MOL    H6421904   6.772   0.078   2.685 -0.4076  0.0278  1.7740
  121MOL    C6521905   6.626   0.187   2.875  0.1281 -0.3095  0.0202
  121MOL    C6621906   6.610   0.131   3.022  0.2132 -0.9255 -0.0177
  121MOL    C6721907   6.616   0.238   3.131  0.1942  0.0077 -0.8191
  121MOL    O6821908   6.705   0.244   3.214  0.1190 -0.4601  0.3304
  121MOL    O6921909   6.515   0.329   3.120  0.1436 -0.1661  0.2131
  121MOL    H7021910   6.609   0.107   2.803  2.7042 -0.4641 -0.4758
  121MOL    H7121911   6.541   0.253   2.859  1.1930  1.5147  1.6104
  121MOL    H7221912   6.509   0.092   3.030 -2.2015  4.6851 -1.0223
  121MOL    H7321913   6.454   0.304   3.052  0.9434  3.7858 -2.1203
  121MOL    C7421914   6.710   0.023   3.044 -0.1079 -0.2439 -0.1687
  121MOL    C7521915   6.694   7.785   3.169  0.3137 -0.4499 -0.7909
  121MOL    C7621916   6.828   7.728   3.206 -0.2224  0.3846 -0.0261
  121MOL    O7721917   6.885   7.630   3.149  0.0991 -0.1221 -0.4164
  121MOL    O7821918   6.887   7.802   3.306  0.6114  0.3952 -0.1134
  121MOL    H7921919   6.812   0.061   3.046  0.1383 -0.8876 -0.3206
  121MOL    H8021920   6.708   7.803   2.963 -0.5300 -0.5504  0.1133
  121MOL    H8121921   6.677   0.004   3.250  0.8562 -0.9198 -0.2609
  121MOL    H8221922   6.978   7.784   3.325  0.0551 -0.3941  1.9136
  121MOL    C8321923   6.581   7.679   3.162 -0.1359 -1.1587  0.0540
  121MOL    C8421924   6.580   7.574   3.281 -0.2815  0.6095 -0.0952
  121MOL    C8521925   6.458   7.480   3.268 -0.1138 -0.6331 -0.0883
  121MOL    O8621926   6.363   7.458   3.346 -0.8376 -0.4638  0.2191
  121MOL    O8721927   6.473   7.415   3.142  0.6996 -0.0548  0.3475
  121MOL    H8821928   6.570   7.623   3.069 -0.5613 -0.5112 -0.2874
  121MOL    H8921929   6.485   7.729   3.165 -0.3328 -1.3102 -2.7342
  121MOL    H9021930   6.663   7.506   3.262 -2.4438 -2.0305 -0.3895
  121MOL    H9121931   6.418   7.338   3.144  0.3991  0.0876 -1.7505
  121MOL    C9221932   6.567   7.649   3.417  0.1333  0.2982 -0.0941
  121MOL    C9321933   6.620   7.565   3.537 -0.1364 -0.0192  0.4133
  121MOL    C9421934   6.526   7.574   3.649 -0.2801 -0.0960  0.2243
  121MOL    O9521935   6.477   7.475   3.705  0.1137 -0.4109  0.5190
  121MOL    O9621936   6.492   7.700   3.679 -0.0564  0.0108  0.2594
  121MOL    H9721937   6.467   7.693   3.415 -0.5301 -1.1323  0.6594
  121MOL    H9821938   6.635   7.734   3.421 -0.0334  0.4177  0.1785
  121MOL    H9921939   6.614   7.461   3.504  0.9232 -0.1499  0.6365
  121MOL   H10021940   6.411   7.717   3.723 -0.2546  0.0087 -0.0989
  121MOL   C10121941   6.764   7.609   3.586 -0.2913 -0.4726 -0.1083
  121MOL   C10221942   6.834   7.513   3.683 -0.4197 -0.0396  0.0998
  121MOL   C10321943   6.924   7.594   3.778 -0.1744 -0.2350 -0.8531
  121MOL   O10421944   6.954   7.714   3.768 -0.3058 -0.2070 -0.5721
  121MOL   O10521945   6.969   7.517   3.882 -0.2769  0.4155  0.3640
  121MOL   H10621946   6.766   7.714   3.613 -1.4239  0.2650 -2.7026
  121MOL   H10721947   6.821   7.616   3.493 -1.7692 -1.3977 -1.1099
  121MOL   H10821948   6.745   7.477   3.736 -2.1836  1.6987 -1.6230
  121MOL   H10921949   7.018   7.579   3.934  2.0774 -0.5305 -0.6208
  121MOL   C11021950   6.891   7.379   3.621 -0.3655  0.3737 -0.7971
  121MOL   C11121951   7.033   7.377   3.539  0.9873 -0.1712 -0.8862
  121MOL   C11221952   7.043   7.480   3.424 -0.5415 -0.0666 -0.3896
  121MOL   O11321953   7.143   7.552   3.412  0.4438  0.0836  0.4909
  121MOL   O11421954   6.938   7.473   3.335 -0.1079  0.0532 -0.4197
  121MOL   H11521955   6.821   7.332   3.552 -0.9809 -0.5069  0.4042
  121MOL   H11621956   6.903   7.307   3.701 -0.2493  0.0066 -1.1448
  121MOL   H11721957   7.108   7.413   3.609  2.2957  0.0316 -2.3631
  121MOL   H11821958   6.949   7.526   3.258 -1.1373  2.9538  1.3353
  121MOL   C11921959   7.060   7.230   3.489 -1.0040  0.5599  0.7467
  121MOL   C12021960   7.209   7.172   3.492  0.3460  0.1132 -0.3223
  121MOL   C12121961   7.248   7.153   3.632  0.4716  0.8265 -0.0959
  121MOL   O12221962   7.336   7.222   3.688 -0.1157 -0.0231 -0.1967
  121MOL   O12321963   7.194   7.045   3.695 -0.0013 -0.5110 -0.4584
  121MOL   H12421964   7.023   7.217   3.387  0.4429 -1.9361  0.5135
  121MOL   H12521965   6.996   7.161   3.543 -0.7325  1.4960  2.2843
  121MOL   H12621966   7.207   7.076   3.440  1.3249  0.1164 -0.3760
  121MOL   H12721967   7.235   7.062   3.779 -2.3689 -0.8264  0.7850
  121MOL   C12821968   7.306   7.264   3.412  0.5561 -0.2958  0.2622
  121MOL   C12921969   7.411   7.198   3.324  0.2197  0.1169  0.1640
  121MOL   C13021970   7.549   7.275   3.308 -0.3986 -0.3476 -0.3945
  121MOL   O13121971   7.564   7.385   3.356  0.1468  0.0041  0.0447
  121MOL   O13221972   7.651   7.203   3.247 -0.0384 -0.2365  0.5279
  121MOL   H13321973   7.357   7.345   3.465 -0.2771  0.0492  0.5401
  121MOL   H13421974   7.242   7.329   3.353 -2.3118 -1.7973  1.6190
  121MOL   H13521975   7.442   7.110   3.380  0.5179  0.8321  1.1422
  121MOL   H13621976   7.729   7.253   3.233 -0.4290  0.4345  0.7325
  121MOL   C13721977   7.355   7.174   3.182 -0.3661  0.2635 -0.5144
  121MOL   C13821978   7.424   7.050   3.109 -0.6313  0.9561  0.0361
  121MOL   C13921979   7.452   7.078   2.959 -0.3426 -0.8146  0.1811
  121MOL   O14021980   7.399   7.177   2.901  0.3488  0.3735 -0.4446
  121MOL   O14121981   7.516   6.983   2.886  0.0142  0.1166  0.0933
  121MOL   H14221982   7.378   7.263   3.123  1.4031 -2.5217 -4.2274
  121MOL   H14321983   7.246   7.168   3.186 -0.6193  1.2814 -4.0151
  121MOL   H14421984   7.515   7.019   3.161 -1.2856 -0.6927  0.2322
  121MOL   H14521985   7.526   7.008   2.795 -0.0735 -1.3516 -0.3362
  121MOL   C14621986   7.328   6.926   3.109 -0.5573  0.5157  0.7866
  121MOL   C14721987   7.282   6.855   3.242  0.6296  0.5665 -0.5540
  121MOL   C14821988   7.400   6.792   3.321  0.8248  0.2792  0.6097
  121MOL   O14921989   7.505   6.754   3.272 -0.4549 -0.1902  0.7559
  121MOL   O15021990   7.368   6.772   3.452 -0.0344  0.4359 -0.5360
  121MOL   H15121991   7.386   6.863   3.042 -2.0431 -0.3736  0.3123
  121MOL   H15221992   7.244   6.941   3.041  1.1511  0.2881 -1.4352
  121MOL   H15321993   7.237   6.929   3.308 -3.0517 -1.5067 -0.6140
  121MOL   H15421994   7.435   6.726   3.501 -0.0650 -0.9913 -1.8011
  121MOL   C15521995   7.181   6.738   3.192 -0.1501  0.2411 -0.2168
  121MOL   C15621996   7.089   6.669   3.299 -0.6052 -1.1075  0.3446
  121MOL   C15721997   7.116   6.519   3.303  0.1046  0.3052  0.3358
  121MOL   O15821998   7.027   6.435   3.279  0.1499 -0.7751  0.8054
  121MOL   O15921999   7.243   6.486   3.328  0.2479  0.5996 -0.4661
  121MOL   H16022000   7.235   6.670   3.127  0.5833  2.2179 -1.7226
  121MOL   H16122001   7.111   6.792   3.127  0.7254  0.6319 -0.8378
  121MOL   H16222002   7.120   6.706   3.397  1.8720 -0.1821 -0.7417
  121MOL   H16322003   7.262   6.394   3.342 -1.2288  0.4444  0.6084
  121MOL   C16422004   6.939   6.699   3.269  0.7052  0.5603  0.0931
  121MOL   C16522005   6.896   6.842   3.302  0.3020  0.2431 -0.4446
  121MOL   C16622006   6.874   6.864   3.450 -0.2787 -0.7166  0.0600
  121MOL   O16722007   6.769   6.846   3.508 -0.3556  0.2235 -0.2088
  121MOL   O16822008   6.986   6.914   3.511  0.4315  0.1687  0.1124
  121MOL   H16922009   6.870   6.633   3.322 -0.0730  0.7637 -0.6565
  121MOL   H17022010   6.933   6.674   3.163  0.4562 -0.6216  0.3749
  121MOL   H17122011   6.977   6.907   3.267  1.1132 -0.6387 -0.2333
  121MOL   H17222012   6.970   6.912   3.604 -1.7081  0.5448 -0.2162
  121MOL   C17322013   6.771   6.883   3.215 -0.6170  0.0314 -0.1217
  121MOL   C17422014   6.747   7.039   3.199  0.0824 -0.1438  0.0146
  121MOL   C17522015   6.860   7.103   3.117  0.3879 -0.7778  0.1559
  121MOL   O17622016   6.924   7.036   3.036 -0.4182 -0.2647 -0.3278
  121MOL   O17722017   6.892   7.233   3.164 -0.0161  0.1313 -0.3291
  121MOL   H17822018   6.679   6.832   3.244 -1.6333  0.3036 -2.6756
  121MOL   H17922019   6.790   6.841   3.116 -1.1301 -0.3611 -0.0574
  121MOL   H18022020   6.653   7.071   3.155  1.4921  2.5122 -1.1557
  121MOL   H18122021   6.967   7.265   3.115  0.4263 -0.7774 -0.2630
  121MOL   H18222022   6.750   7.079   3.300  2.5005  0.8144 -0.4128
  122MOL     C122023   0.476   0.551   2.271  0.4362  0.3644  0.3804
  122MOL     C222024   0.510   0.485   2.413 -0.4989  0.0971 -0.9656
  122MOL     C322025   0.480   0.574   2.531  0.1970  0.5289  0.1085
  122MOL     O422026   0.442   0.691   2.520  0.2630  0.0568  0.0781
  122MOL     O522027   0.491   0.512   2.649  0.1532 -0.6758 -0.6151
  122MOL     H622028   0.477   0.473   2.196  0.7034 -1.9433  2.6937
  122MOL     H722029   0.374   0.588   2.268  0.4918  0.6697  1.6319
  122MOL     H822030   0.441   0.403   2.438 -0.8576  0.2063 -1.5824
  122MOL     H922031   0.476   0.566   2.725  1.7140 -0.5326 -0.3917
  122MOL    H1022032   0.536   0.642   2.258 -2.3426  2.2381  0.2647
  122MOL    C1122033   0.657   0.437   2.424 -0.0909 -0.9595  0.3309
  122MOL    C1222034   0.685   0.289   2.449 -0.0999  0.0343 -0.3085
  122MOL    C1322035   0.683   0.207   2.318  0.3280  0.5429  0.2367
  122MOL    O1422036   0.787   0.154   2.275  0.2059 -0.1365  0.0151
  122MOL    O1522037   0.564   0.192   2.260  0.3910  0.8811 -0.1882
  122MOL    H1622038   0.715   0.488   2.500  2.1140 -2.2486 -0.4462
  122MOL    H1722039   0.715   0.466   2.336 -0.6671  1.6115  0.7674
  122MOL    H1822040   0.789   0.295   2.481  0.3628 -0.1599 -1.7097
  122MOL    H1922041   0.567   0.124   2.195  1.4676  0.7099  0.0280
  122MOL    C2022042   0.599   0.221   2.565  0.4695  0.0582  0.2017
  122MOL    C2122043   0.648   0.088   2.632  0.1583 -0.2435 -1.3597
  122MOL    C2222044   0.533   0.020   2.712  0.2475 -0.3668  0.3030
  122MOL    O2322045   0.415   0.052   2.700 -0.3498 -0.3522  0.0710
  122MOL    O2422046   0.575   7.761   2.779  0.4555  0.3524  0.3886
  122MOL    H2522047   0.505   0.191   2.519  0.2524 -1.1074  1.3742
  122MOL    H2622048   0.590   0.298   2.642 -0.4247 -0.1906  0.3445
  122MOL    H2722049   0.668   0.007   2.562 -1.0798 -2.9790  1.3885
  122MOL    H2822050   0.516   7.730   2.845  1.1278  2.8025  2.2427
  122MOL    C2922051   0.776   0.114   2.708 -0.2215  0.4876 -0.2892
  122MOL    C3022052   0.908   0.079   2.637 -0.1232  0.0360  0.1147
  122MOL    C3122053   0.925   7.780   2.625 -0.0375  0.3354 -0.5671
  122MOL    O3222054   0.928   7.712   2.729  0.0199  0.3515 -0.3673
  122MOL    O3322055   0.922   7.738   2.502  0.0887 -0.4476  0.7355
  122MOL    H3422056   0.765   0.054   2.798 -0.9226  0.9784 -0.0478
  122MOL    H3522057   0.768   0.214   2.750  0.2629  1.5329 -2.6292
  122MOL    H3622058   0.905   0.126   2.539 -1.7064  0.3359  0.3068
  122MOL    H3722059   0.904   7.646   2.511 -1.1186 -0.3878 -0.9361
  122MOL    C3822060   1.031   0.135   2.714  0.2359  0.2956 -0.0031
  122MOL    C3922061   1.174   0.160   2.648  0.5866 -0.5753  0.1208
  122MOL    C4022062   1.164   0.249   2.520 -0.4183  0.0192  0.1198
  122MOL    O4122063   1.219   0.220   2.415  0.6367  0.3488 -0.1161
  122MOL    O4222064   1.087   0.360   2.536 -0.3294  0.2942 -0.1854
  122MOL    H4322065   1.029   0.084   2.811 -0.1144  1.1579  0.4498
  122MOL    H4422066   1.005   0.234   2.752  1.1874 -0.3194  2.3658
  122MOL    H4522067   1.229   0.227   2.715 -1.6007  0.1148  1.2598
  122MOL    H4622068   1.074   0.406   2.455  0.1749 -0.7090 -0.8386
  122MOL    C4722069   1.265   0.034   2.624 -0.2941  0.5878  0.5906
  122MOL    C4822070   1.304   7.801   2.751  0.1704  0.4957 -0.0851
  122MOL    C4922071   1.370   0.035   2.865 -0.6597 -0.0707 -0.6589
  122MOL    O5022072   1.337   0.045   2.979 -0.7705 -0.0887 -0.0356
  122MOL    O5122073   1.478   0.099   2.819  0.0504 -0.2073 -0.1848
  122MOL    H5222074   1.358   0.059   2.573  0.2564 -1.3891  0.5821
  122MOL    H5322075   1.215   7.814   2.558  1.5130 -0.0669 -0.0828
  122MOL    H5422076   1.208   7.764   2.786 -0.6765  2.2647 -0.4995
  122MOL    H5522077   1.528   0.144   2.886 -1.4896 -0.7437  1.3565
  122MOL    C5622078   1.394   7.675   2.718  0.6259 -0.4079  0.6121
  122MOL    C5722079   1.351   7.536   2.787  0.3867 -0.0002 -0.5199
  122MOL    C5822080   1.352   7.530   2.938  0.7386 -0.1989 -0.1500
  122MOL    O5922081   1.280   7.455   2.996 -0.1159  0.7322  0.6305
  122MOL    O6022082   1.443   7.606   2.997 -0.1897 -0.1888 -0.3643
  122MOL    H6122083   1.499   7.692   2.744  0.8097  0.0148 -0.4154
  122MOL    H6222084   1.397   7.664   2.610  0.3507  3.1989  0.1927
  122MOL    H6322085   1.250   7.517   2.753  0.8104 -2.4550 -0.4734
  122MOL    H6422086   1.435   7.605   3.091  1.4011  2.3833 -0.1591
  122MOL    C6522087   1.435   7.422   2.725  0.0381  0.1248  0.0551
  122MOL    C6622088   1.592   7.425   2.743  0.1537 -1.0929 -0.1117
  122MOL    C6722089   1.664   7.490   2.626  0.7577 -0.3920  0.6187
  122MOL    O6822090   1.615   7.498   2.521  0.1144 -0.4289  0.3654
  122MOL    O6922091   1.793   7.520   2.656  0.3543 -0.1737 -0.0622
  122MOL    H7022092   1.415   7.412   2.619 -0.5081 -3.5985  0.4312
  122MOL    H7122093   1.407   7.322   2.760  0.4503 -0.1925 -0.5126
  122MOL    H7222094   1.617   7.493   2.824  0.0985 -0.9120 -0.2458
  122MOL    H7322095   1.833   7.566   2.584 -0.1453  0.4530  0.0516
  122MOL    C7422096   1.652   7.291   2.785  0.3534  0.4724  0.5244
  122MOL    C7522097   1.787   7.292   2.854 -0.5090 -0.7507 -0.1551
  122MOL    C7622098   1.908   7.244   2.767  0.7884  0.2169  0.3942
  122MOL    O7722099   1.900   7.176   2.665  0.1551  0.2887 -0.5554
  122MOL    O7822100   2.020   7.274   2.823  0.1204 -0.0536  0.2128
  122MOL    H7922101   1.650   7.230   2.695  1.6216  0.3575  0.5632
  122MOL    H8022102   1.584   7.237   2.851  0.6192  0.3589  0.7032
  122MOL    H8122103   1.818   7.392   2.884  2.0584 -0.3542 -3.8190
  122MOL    H8222104   2.082   7.238   2.762 -1.3264 -1.3348 -0.5269
  122MOL    C8322105   1.779   7.197   2.978 -0.3260 -0.9191  0.0044
  122MOL    C8422106   1.699   7.244   3.098 -0.3242 -0.9512 -0.3844
  122MOL    C8522107   1.773   7.348   3.184  0.3743 -0.7417  0.0373
  122MOL    O8622108   1.736   7.466   3.188 -0.0724 -0.4219 -0.6614
  122MOL    O8722109   1.891   7.303   3.243 -0.0125  0.4775 -0.0427
  122MOL    H8822110   1.880   7.177   3.013 -0.6885 -2.5319  0.1619
  122MOL    H8922111   1.733   7.102   2.952 -1.4213 -0.6391  0.8753
  122MOL    H9022112   1.612   7.300   3.062 -0.3002 -0.3361  0.4924
  122MOL    H9122113   1.950   7.373   3.266  1.1493 -0.0209 -1.5005
  122MOL    C9222114   1.646   7.124   3.183 -0.8158 -1.0437 -0.2722
  122MOL    C9322115   1.517   7.050   3.121 -0.0544  0.1929 -0.4170
  122MOL    C9422116   1.408   7.138   3.056  0.6621 -0.0810 -0.2774
  122MOL    O9522117   1.377   7.132   2.940 -0.5217  0.3573 -0.1439
  122MOL    O9622118   1.359   7.222   3.148  0.2247 -0.2566 -0.4212
  122MOL    H9722119   1.627   7.162   3.283 -1.7589 -1.1839 -0.3920
  122MOL    H9822120   1.728   7.054   3.197 -0.9201 -1.8220 -3.1610
  122MOL    H9922121   1.566   6.984   3.049 -0.1953  0.0959 -0.4233
  122MOL   H10022122   1.292   7.277   3.111  0.1881  0.4276  0.6454
  122MOL   C10122123   1.452   6.965   3.238 -0.1261  0.0675  0.2892
  122MOL   C10222124   1.435   6.810   3.211  0.2463 -0.2845  0.3327
  122MOL   C10322125   1.354   6.779   3.081  0.0805 -0.6751  0.4028
  122MOL   O10422126   1.384   6.676   3.015 -0.4025 -0.1880 -0.0843
  122MOL   O10522127   1.243   6.855   3.065 -0.3557 -0.3585  0.0993
  122MOL   H10622128   1.354   7.002   3.266 -0.8426 -3.1411  2.2974
  122MOL   H10722129   1.517   6.964   3.326 -0.2916 -0.7015  0.4040
  122MOL   H10822130   1.535   6.770   3.196 -0.2964 -1.5107 -0.1057
  122MOL   H10922131   1.187   6.811   3.004  0.5778 -0.4356 -0.7166
  122MOL   C11022132   1.374   6.736   3.333  0.1713  0.5933 -0.2529
  122MOL   C11122133   1.394   6.580   3.346  0.1290  0.1009  0.6953
  122MOL   C11222134   1.296   6.496   3.268 -0.1769 -0.8050 -0.4093
  122MOL   O11322135   1.198   6.533   3.206 -0.2344 -0.4922 -0.2769
  122MOL   O11422136   1.342   6.373   3.263 -0.1868 -0.2616 -0.4796
  122MOL   H11522137   1.268   6.756   3.349 -0.2240 -0.4162 -1.5054
  122MOL   H11622138   1.426   6.786   3.415  1.6086  0.5026 -1.0990
  122MOL   H11722139   1.491   6.553   3.305  0.8643 -0.5169  2.7599
  122MOL   H11822140   1.292   6.315   3.208 -0.5505 -1.1753  0.7734
  122MOL   C11922141   1.402   6.546   3.502 -0.4365  0.2884 -0.4723
  122MOL   C12022142   1.272   6.558   3.586 -0.5436 -0.6653 -0.4317
  122MOL   C12122143   1.261   6.695   3.650  0.2981 -0.2519 -0.0800
  122MOL   O12222144   1.345   6.781   3.640  0.3737 -0.5494  0.3476
  122MOL   O12322145   1.141   6.707   3.706 -0.5479 -0.0699  0.0745
  122MOL   H12422146   1.484   6.596   3.554  0.7464 -1.0835 -0.9718
  122MOL   H12522147   1.431   6.441   3.503  0.0792  0.4262  1.9988
  122MOL   H12622148   1.186   6.561   3.520  0.5050 -0.0632 -1.7936
  122MOL   H12722149   1.127   6.790   3.749  0.5412  1.1012 -1.7882
  122MOL   C12822150   1.260   6.437   3.685  0.8113 -0.9677  0.6558
  122MOL   C12922151   1.192   6.316   3.611 -0.0369  0.2837 -0.3439
  122MOL   C13022152   1.040   6.326   3.590 -0.0379 -0.3113 -0.3817
  122MOL   O13122153   0.965   6.248   3.643 -0.1265 -0.4636  0.3815
  122MOL   O13222154   1.007   6.411   3.494  0.1884  0.2884 -0.0974
  122MOL   H13322155   1.201   6.462   3.773  1.8940 -0.0347  1.1368
  122MOL   H13422156   1.350   6.388   3.723  0.8362 -1.4833 -0.0609
  122MOL   H13522157   1.223   6.320   3.506  0.7598  1.4097 -0.0722
  122MOL   H13622158   0.914   6.395   3.495  0.1268 -0.1280  5.7315
  122MOL   C13722159   1.231   6.173   3.665  0.1209  0.5063 -0.3435
  122MOL   C13822160   1.359   6.123   3.589  0.4581  0.3881 -0.1045
  122MOL   C13922161   1.327   6.062   3.454 -0.5835 -0.7684 -0.4554
  122MOL   O14022162   1.223   6.009   3.424 -0.1089  0.0932 -0.9229
  122MOL   O14122163   1.434   6.077   3.362  0.2556 -0.2744 -0.1995
  122MOL   H14222164   1.153   6.097   3.674 -1.1756  1.7883 -0.5474
  122MOL   H14322165   1.256   6.191   3.769 -0.4693 -0.4997 -0.0153
  122MOL   H14422166   1.401   6.222   3.578 -1.4470  1.3510  0.9982
  122MOL   H14522167   1.406   6.060   3.273 -3.0643 -0.9748  0.9028
  122MOL   C14622168   1.463   6.050   3.680  0.0458 -0.2138 -0.2703
  122MOL   C14722169   1.569   6.146   3.742  0.1931 -0.1658 -0.0714
  122MOL   C14822170   1.658   6.206   3.629 -0.8357 -0.1636 -0.4251
  122MOL   O14922171   1.720   6.133   3.547 -0.0318 -0.2481  0.0771
  122MOL   O15022172   1.650   6.344   3.619  0.2021 -0.0211  0.3408
  122MOL   H15122173   1.505   5.968   3.622  0.6542  0.8492 -1.3375
  122MOL   H15222174   1.415   6.014   3.771 -0.8112  0.7751 -0.3160
  122MOL   H15322175   1.504   6.217   3.793 -0.7164 -0.8374 -0.2843
  122MOL   H15422176   1.706   6.375   3.549  3.5344  0.9676  3.2397
  122MOL   C15522177   1.655   6.060   3.840  0.7541  0.0357  0.6908
  122MOL   C15622178   1.623   6.085   3.989  0.1105 -0.0624 -0.4081
  122MOL   C15722179   1.594   6.232   4.029  0.9467 -0.2886 -0.1789
  122MOL   O15822180   1.481   6.269   4.058 -0.1198  0.2756 -0.6023
  122MOL   O15922181   1.701   6.312   4.033 -1.0136 -0.3422 -0.6068
  122MOL   H16022182   1.759   6.091   3.828  0.9916 -0.8642  0.4031
  122MOL   H16122183   1.650   5.953   3.820 -2.2585  0.0151  1.3640
  122MOL   H16222184   1.533   6.027   4.010  1.0067 -1.0430  0.7943
  122MOL   H16322185   1.690   6.400   4.066  0.3445 -0.1471 -0.6361
  122MOL   C16422186   1.738   6.019   4.075  0.2254  0.6102  0.9416
  122MOL   C16522187   1.723   6.010   4.231  0.5692 -0.1943 -0.1683
  122MOL   C16622188   1.852   5.984   4.306  0.5899  0.0057  0.4078
  122MOL   O16722189   1.907   6.073   4.370 -0.1476 -0.5683 -0.0390
  122MOL   O16822190   1.899   5.864   4.276 -0.2018 -0.6091 -0.2149
  122MOL   H16922191   1.826   6.081   4.060 -0.3526  0.8799 -1.6108
  122MOL   H17022192   1.768   5.924   4.031  1.2169  0.6358  1.5488
  122MOL   H17122193   1.708   6.110   4.271  0.8860 -0.6470  1.1024
  122MOL   H17222194   1.979   5.847   4.323  0.1721  0.8600 -0.3037
  122MOL   C17322195   1.599   5.929   4.285 -0.2227  0.7170 -0.7059
  122MOL   C17422196   1.534   5.975   4.414  0.3450 -0.1877 -1.0837
  122MOL   C17522197   1.582   5.903   4.537  0.5550  0.0181  0.1854
  122MOL   O17622198   1.674   5.818   4.535  0.2268  0.4487 -0.7468
  122MOL   O17722199   1.515   5.935   4.652 -0.1416  0.3136 -0.3115
  122MOL   H17822200   1.621   5.823   4.298  0.2371  0.7143 -1.4643
  122MOL   H17922201   1.519   5.928   4.212 -0.9733  1.5362  0.0926
  122MOL   H18022202   1.535   6.083   4.433 -0.6969 -0.2675 -0.5228
  122MOL   H18122203   1.539   5.893   4.733  1.2418 -0.2066 -0.9722
  122MOL   H18222204   1.435   5.937   4.392  0.0650  0.1552 -0.4334
  123MOL     C122205   7.461   1.421   6.934 -0.2031  0.5293 -0.2419
  123MOL     C222206   7.449   1.561   6.986 -0.5225  0.0592 -0.4764
  123MOL     C322207   7.326   1.578   7.070  0.0240  0.8770 -0.1488
  123MOL     O422208   7.224   1.510   7.069  0.4149 -0.6572 -0.0738
  123MOL     O522209   7.349   1.675   7.161 -0.5271  0.0449 -0.1012
  123MOL     H622210   7.545   1.422   6.865 -0.1687 -0.7627 -0.2336
  123MOL     H722211   7.483   1.339   7.003 -0.0206 -0.9015 -1.9634
  123MOL     H822212   7.528   1.575   7.060  0.5199  0.5755 -1.6661
  123MOL     H922213   7.275   1.678   7.220 -0.7088  3.6785 -0.4262
  123MOL    H1022214   7.370   1.399   6.878 -0.8074  1.1720  0.4729
  123MOL    C1122215   7.462   1.667   6.878 -0.0698 -0.1182  0.8692
  123MOL    C1222216   7.606   1.701   6.829 -0.0993 -0.0422  0.1152
  123MOL    C1322217   7.659   1.813   6.923  0.1357 -0.3077 -0.5849
  123MOL    O1422218   7.604   1.849   7.026  0.0206 -0.1951  0.0071
  123MOL    O1522219   7.775   1.868   6.886 -0.1260  0.5527  0.0919
  123MOL    H1622220   7.410   1.756   6.914 -0.0889  0.7521 -1.2138
  123MOL    H1722221   7.408   1.623   6.794  0.0500  0.0024  0.7296
  123MOL    H1822222   7.667   1.613   6.849  0.9495  0.8506  0.8467
  123MOL    H1922223   7.800   1.936   6.945 -1.4231 -0.4188  1.8017
  123MOL    C2022224   7.606   1.737   6.675 -0.0903  0.1791 -0.1036
  123MOL    C2122225   7.667   1.627   6.590 -0.0156 -0.2074  0.1571
  123MOL    C2222226   7.820   1.653   6.590  0.0216  0.0207  0.3961
  123MOL    O2322227   0.018   1.713   6.492 -0.3184  0.6381 -0.4928
  123MOL    O2422228   0.027   1.624   6.704  0.0159 -0.7886  0.5337
  123MOL    H2522229   7.664   1.829   6.664 -0.8690  0.8651  1.2958
  123MOL    H2622230   7.507   1.766   6.639  0.1415  1.2092  0.0755
  123MOL    H2722231   7.648   1.532   6.638 -1.9596 -0.8638 -1.8645
  123MOL    H2822232   0.111   1.660   6.729 -0.0966  0.1768 -0.4295
  123MOL    C2922233   7.605   1.627   6.449  0.0680 -0.0791 -0.2478
  123MOL    C3022234   7.616   1.499   6.373 -0.4131 -0.0289 -0.3735
  123MOL    C3122235   7.751   1.444   6.336 -0.2374  0.8783 -0.1043
  123MOL    O3222236   7.786   1.332   6.378 -0.1390  0.3944 -0.1036
  123MOL    O3322237   7.820   1.533   6.252 -0.0927 -0.3596 -0.5461
  123MOL    H3422238   7.633   1.706   6.380  2.2268  0.3631  1.0857
  123MOL    H3522239   7.498   1.633   6.467  0.0292 -3.4913  1.0576
  123MOL    H3622240   7.579   1.417   6.435  0.1130 -0.5698 -0.7667
  123MOL    H3722241   0.058   1.509   6.249  0.4185  1.6996 -2.0737
  123MOL    C3822242   7.523   1.502   6.248  0.0384  0.6524  0.6007
  123MOL    C3922243   7.371   1.485   6.268  0.7166 -0.5091 -0.1466
  123MOL    C4022244   7.323   1.335   6.274  0.3270 -0.5784 -0.0514
  123MOL    O4122245   7.400   1.240   6.265  0.0384  0.3775  0.3994
  123MOL    O4222246   7.188   1.343   6.285  0.5132 -0.2925  0.1108
  123MOL    H4322247   7.560   1.425   6.181  1.0508  1.1988  0.5076
  123MOL    H4422248   7.536   1.598   6.197  1.1521 -0.5472 -1.4553
  123MOL    H4522249   7.338   1.538   6.357 -1.3075 -0.2075 -1.0433
  123MOL    H4622250   7.145   1.259   6.274 -0.1297 -0.1547  1.3753
  123MOL    C4722251   7.305   1.573   6.158  0.1546  0.1415  0.2882
  123MOL    C4822252   7.230   1.703   6.205  0.3351 -0.2919  0.1957
  123MOL    C4922253   7.338   1.793   6.275 -0.3687  0.6434  0.0046
  123MOL    O5022254   7.331   1.817   6.398 -0.5856  0.1630  0.3367
  123MOL    O5122255   7.437   1.847   6.202  0.1610 -0.1945  0.1994
  123MOL    H5222256   7.228   1.516   6.105  1.0569 -0.6708 -0.1682
  123MOL    H5322257   7.376   1.595   6.079 -1.0579  0.7497 -0.6487
  123MOL    H5422258   7.188   1.753   6.118 -1.0018 -0.7492  0.5592
  123MOL    H5522259   7.437   1.821   6.111  1.3625 -0.6126  0.3128
  123MOL    C5622260   7.115   1.676   6.299  0.2862  0.3630  0.6277
  123MOL    C5722261   6.999   1.776   6.298  0.0814 -0.4621  0.4855
  123MOL    C5822262   7.039   1.913   6.336  0.6491 -0.0980 -0.8448
  123MOL    O5922263   7.063   1.940   6.456  0.0444  0.4630  0.1543
  123MOL    O6022264   7.048   2.003   6.235 -0.0992  0.0786  0.2611
  123MOL    H6122265   7.153   1.643   6.396  0.2567  1.1218  0.9017
  123MOL    H6222266   7.061   1.589   6.263 -0.8630  0.1496  2.8089
  123MOL    H6322267   6.966   1.786   6.195 -1.3143 -0.6604  0.8939
  123MOL    H6422268   7.080   2.078   6.282 -3.5093  0.9857  1.1987
  123MOL    C6522269   6.881   1.726   6.388 -0.2581 -0.0069 -0.6687
  123MOL    C6622270   6.902   1.654   6.525 -0.5265 -0.2658 -0.4247
  123MOL    C6722271   6.966   1.513   6.531  0.5731 -0.3519 -0.6435
  123MOL    O6822272   7.025   1.478   6.634 -0.0703 -0.1146 -0.4526
  123MOL    O6922273   6.967   1.443   6.413 -0.0830  0.1242 -0.7027
  123MOL    H7022274   6.823   1.655   6.330  1.1101 -1.3626 -0.4063
  123MOL    H7122275   6.817   1.813   6.403  0.1113  0.6698 -2.9120
  123MOL    H7222276   6.988   1.700   6.573  0.3308 -0.5792 -1.6375
  123MOL    H7322277   7.049   1.397   6.402 -0.5298 -0.5685 -1.2582
  123MOL    C7422278   6.769   1.655   6.614  0.4240  0.1775 -0.3168
  123MOL    C7522279   6.711   1.790   6.664  0.2305 -0.4237 -0.2795
  123MOL    C7622280   6.801   1.855   6.769 -0.0078 -0.0726 -0.8039
  123MOL    O7722281   6.862   1.788   6.851 -0.7497 -0.2759 -0.0352
  123MOL    O7822282   6.789   1.995   6.766  0.3701 -0.0787  0.4350
  123MOL    H7922283   6.777   1.596   6.705 -0.0823  3.1119  1.6988
  123MOL    H8022284   6.691   1.602   6.560 -0.2857  1.7896 -0.8953
  123MOL    H8122285   6.707   1.861   6.582  2.0731  1.1686  0.9738
  123MOL    H8222286   6.850   2.025   6.831  1.8709 -3.6653  0.8159
  123MOL    C8322287   6.560   1.779   6.711 -0.7157 -0.2247  0.1614
  123MOL    C8422288   6.519   1.716   6.852 -0.3822  0.2638  0.4148
  123MOL    C8522289   6.543   1.570   6.865 -0.5353  0.7821 -0.1825
  123MOL    O8622290   6.563   1.495   6.772 -0.0791 -0.2063  0.8038
  123MOL    O8722291   6.519   1.531   6.991 -0.2452  0.0447 -0.4231
  123MOL    H8822292   6.503   1.725   6.636 -0.3421 -2.6364  1.5856
  123MOL    H8922293   6.523   1.881   6.694  0.8255  0.4191  0.5624
  123MOL    H9022294   6.581   1.770   6.924  1.7318  0.7352 -1.6569
  123MOL    H9122295   6.541   1.442   7.012 -5.0028 -1.5625 -1.4299
  123MOL    C9222296   6.374   1.758   6.885  0.3672 -0.3737  0.2014
  123MOL    C9322297   6.351   1.908   6.924  0.6651 -0.0685 -0.1412
  123MOL    C9422298   6.431   1.955   7.045  0.2631  0.6683 -0.0693
  123MOL    O9522299   6.502   2.063   7.045 -0.5543  0.1178 -0.1417
  123MOL    O9622300   6.422   1.872   7.156  0.2407 -0.1596 -0.2105
  123MOL    H9722301   6.333   1.688   6.958 -0.6384  0.2763  0.2721
  123MOL    H9822302   6.311   1.742   6.797 -0.1360  0.1039  0.4681
  123MOL    H9922303   6.392   1.968   6.842  1.3199 -1.5733 -0.9272
  123MOL   H10022304   6.472   1.910   7.227  0.8092  2.0254 -1.7170
  123MOL   C10122305   6.205   1.950   6.935 -0.4044 -0.1590  0.0921
  123MOL   C10222306   6.107   1.855   7.007 -0.1382  0.5106  0.5166
  123MOL   C10322307   6.068   1.737   6.925 -0.1680 -0.4373 -0.1616
  123MOL   O10422308   6.079   1.624   6.965  0.4403  0.4558 -0.6370
  123MOL   O10522309   6.007   1.771   6.808 -0.1859  0.4926 -0.2734
  123MOL   H10622310   6.159   1.957   6.837  1.2624 -0.3227 -0.7213
  123MOL   H10722311   6.196   2.055   6.963 -2.4391 -0.2758 -0.0348
  123MOL   H10822312   6.167   1.809   7.086 -1.2320 -0.4312  0.8176
  123MOL   H10922313   6.006   1.688   6.762  1.7956 -0.8326  1.9722
  123MOL   C11022314   5.983   1.923   7.064 -0.0483 -0.8939  0.1167
  123MOL   C11122315   6.010   2.002   7.197 -0.1747  0.2186 -0.0317
  123MOL   C11222316   5.975   1.913   7.316  0.7547 -0.2543 -0.3404
  123MOL   O11322317   5.868   1.917   7.377 -0.7196 -0.3360 -0.0734
  123MOL   O11422318   6.066   1.816   7.346  0.1222 -0.1632  0.0172
  123MOL   H11522319   5.898   1.857   7.081 -1.6540  0.7728 -1.2270
  123MOL   H11622320   5.946   1.999   6.995 -0.5557  0.0326  1.3747
  123MOL   H11722321   6.116   2.023   7.202 -0.0112 -0.1361 -1.8706
  123MOL   H11822322   6.045   1.755   7.415  0.1798  0.0171  0.1963
  123MOL   C11922323   5.946   2.145   7.201  0.4576  0.5768  0.0287
  123MOL   C12022324   6.031   2.260   7.141  0.1211 -0.2387  0.4482
  123MOL   C12122325   6.156   2.280   7.227 -0.0587  0.5771  0.5692
  123MOL   O12222326   6.151   2.299   7.352  0.5432 -0.3291  0.5168
  123MOL   O12322327   6.269   2.296   7.155  0.2310 -0.4063 -1.3257
  123MOL   H12422328   5.926   2.181   7.302 -1.2069  0.9522 -0.4174
  123MOL   H12522329   5.846   2.148   7.158  0.1408 -1.6936  0.5341
  123MOL   H12622330   6.062   2.249   7.037 -0.3232 -0.5994  0.3536
  123MOL   H12722331   6.346   2.311   7.207 -0.3680 -0.8319 -0.3028
  123MOL   C12822332   5.954   2.389   7.143  0.5456 -0.5003  0.5395
  123MOL   C12922333   5.998   2.516   7.053  0.6828  0.1768 -0.1580
  123MOL   C13022334   6.103   2.594   7.125  0.2814  0.0012 -0.1244
  123MOL   O13122335   6.075   2.658   7.222  0.0175  0.1514 -1.1082
  123MOL   O13222336   6.227   2.570   7.074  0.3020 -0.1035 -0.5833
  123MOL   H13322337   5.922   2.428   7.239  1.5870 -0.9617  1.0864
  123MOL   H13422338   5.855   2.355   7.113  0.2525  2.2785 -1.8773
  123MOL   H13522339   6.032   2.461   6.965 -4.2685 -3.1641 -0.1617
  123MOL   H13622340   6.289   2.614   7.131 -0.5483  1.8865 -1.1463
  123MOL   C13722341   5.885   2.606   7.001 -0.1178 -0.6094  0.4167
  123MOL   C13822342   5.910   2.713   6.893  0.0401 -0.3374  0.8247
  123MOL   C13922343   5.934   2.853   6.945  0.3432 -0.0487  0.1913
  123MOL   O14022344   6.037   2.920   6.918 -0.2087  0.1134 -0.3474
  123MOL   O14122345   5.829   2.903   7.017 -0.8229 -0.4068  0.4445
  123MOL   H14222346   5.844   2.654   7.091  0.8128  4.3694 -1.6540
  123MOL   H14322347   5.805   2.534   6.982  1.0847 -1.8393  0.0058
  123MOL   H14422348   6.005   2.690   6.844  0.1397  0.8493  0.4391
  123MOL   H14522349   5.841   2.995   7.033  0.9504 -0.8068  1.5161
  123MOL   C14622350   5.802   2.718   6.777 -0.6743 -0.4731 -0.1576
  123MOL   C14722351   5.838   2.794   6.648 -0.3021  0.4144 -0.2217
  123MOL   C14822352   5.719   2.812   6.552  0.2354 -0.1347 -0.1829
  123MOL   O14922353   5.678   2.924   6.518 -0.0400 -0.2185  0.0995
  123MOL   O15022354   5.670   2.694   6.517 -0.0129  0.2696 -0.0985
  123MOL   H15122355   5.703   2.742   6.817  0.1519  1.8504  0.5863
  123MOL   H15222356   5.787   2.615   6.745 -0.4605 -0.2335 -1.0383
  123MOL   H15322357   5.854   2.898   6.680 -1.4906  0.4333  0.3493
  123MOL   H15422358   5.585   2.685   6.476  0.7474 -0.0731 -1.6349
  123MOL   C15522359   5.965   2.730   6.578 -0.1006 -0.2558 -0.1813
  123MOL   C15622360   6.048   2.817   6.482  1.2139 -0.0517  0.3883
  123MOL   C15722361   6.092   2.953   6.555  0.2921  0.3543 -0.3716
  123MOL   O15822362   6.059   3.067   6.525 -0.3973 -0.2984 -0.0752
  123MOL   O15922363   6.186   2.929   6.648 -0.6749  0.7556 -0.0065
  123MOL   H16022364   5.938   2.637   6.527  0.2918 -0.3588 -0.2002
  123MOL   H16122365   6.046   2.704   6.647 -1.1780 -3.1246  0.0802
  123MOL   H16222366   6.147   2.777   6.459  0.9133 -0.1548 -0.7354
  123MOL   H16322367   6.219   3.012   6.679 -1.0881  1.0483 -0.3400
  123MOL   C16422368   5.975   2.834   6.345  0.2282 -0.2218 -0.2369
  123MOL   C16522369   6.043   2.868   6.213  0.2875  0.0937  0.0309
  123MOL   C16622370   6.114   2.743   6.165  0.2421 -0.0168 -0.4093
  123MOL   O16722371   6.230   2.721   6.186  0.6048 -0.6823 -0.8168
  123MOL   O16822372   6.034   2.667   6.084  0.0128 -0.3330 -0.4638
  123MOL   H16922373   5.907   2.919   6.354 -1.7846 -1.4672 -3.1305
  123MOL   H17022374   5.905   2.752   6.332 -1.5116  1.5533 -2.3548
  123MOL   H17122375   5.955   2.887   6.152  0.2078 -0.7762 -0.1293
  123MOL   H17222376   6.091   2.598   6.054  0.9816 -0.2983  1.2605
  123MOL   C17322377   6.121   2.997   6.203 -0.0236 -0.0410  0.1699
  123MOL   C17422378   6.178   3.034   6.073 -0.1169  0.1421  0.4991
  123MOL   C17522379   6.227   3.179   6.073 -0.0680 -0.1858 -0.7099
  123MOL   O17622380   6.211   3.260   6.163 -0.0420  0.3985 -0.0263
  123MOL   O17722381   6.304   3.198   5.955  0.8522 -0.0154  0.1320
  123MOL   H17822382   6.198   3.003   6.280  0.1143  0.4262 -0.0038
  123MOL   H17922383   6.057   3.074   6.245 -0.4764 -0.6746  0.6592
  123MOL   H18022384   6.259   2.963   6.054  2.0485  2.5888  0.2122
  123MOL   H18122385   6.350   3.280   5.963  0.6584 -0.0551  1.9585
  123MOL   H18222386   6.114   3.015   5.987 -1.3882 -1.0804  1.6982
  124MOL     C122387   0.920   4.037   2.729 -0.1669 -1.0549  0.1125
  124MOL     C222388   0.964   4.091   2.587  0.7265  0.6437 -1.0569
  124MOL     C322389   0.868   4.056   2.471  0.4667  0.1933 -0.2104
  124MOL     O422390   0.902   4.024   2.354  0.4182 -0.3766  0.1597
  124MOL     O522391   0.741   4.085   2.508 -0.5851  0.2709 -0.1817
  124MOL     H622392   0.914   4.116   2.803 -2.4057 -0.3590 -0.7898
  124MOL     H722393   0.815   4.007   2.731  0.3214 -2.7871  1.3180
  124MOL     H822394   0.953   4.198   2.600 -1.3609  0.4115 -0.7639
  124MOL     H922395   0.680   4.083   2.436 -1.6260  1.5363  0.6474
  124MOL    H1022396   0.972   3.946   2.760 -1.4649 -1.4689  1.1183
  124MOL    C1122397   1.116   4.058   2.547  0.1688 -0.4775  0.2456
  124MOL    C1222398   1.224   4.083   2.662 -0.3330  0.3560 -0.0477
  124MOL    C1322399   1.233   4.217   2.728 -0.1789 -0.2969 -0.1075
  124MOL    O1422400   1.252   4.222   2.851 -0.1315  0.3556  0.0553
  124MOL    O1522401   1.220   4.318   2.643  0.0208  0.2380  0.2943
  124MOL    H1622402   1.146   4.112   2.457 -1.4401 -0.1224 -0.0863
  124MOL    H1722403   1.118   3.957   2.506 -2.5498 -0.4738  0.0074
  124MOL    H1822404   1.191   4.020   2.745  1.7511 -1.7616 -0.7775
  124MOL    H1922405   1.235   4.397   2.693 -2.7038 -0.2768  2.0154
  124MOL    C2022406   1.366   4.024   2.632  0.8297 -0.0065  0.7045
  124MOL    C2122407   1.461   4.107   2.546 -0.5655  0.1583  0.9157
  124MOL    C2222408   1.407   4.138   2.403 -0.0423  0.4128  0.2134
  124MOL    O2322409   1.388   4.248   2.358 -0.2805  0.0025  0.2083
  124MOL    O2422410   1.375   4.030   2.336  0.3554 -0.5939  0.5414
  124MOL    H2522411   1.346   3.931   2.579  0.2602  0.0724  0.7813
  124MOL    H2622412   1.401   3.998   2.732 -0.7429  0.4671  1.3878
  124MOL    H2722413   1.482   4.205   2.588 -0.1861  0.7713 -0.6651
  124MOL    H2822414   1.362   4.051   2.245  2.0805  1.8895  0.8081
  124MOL    C2922415   1.604   4.038   2.535 -0.6656 -0.1055  0.4143
  124MOL    C3022416   1.727   4.100   2.473  0.1857  0.1914  0.2544
  124MOL    C3122417   1.761   4.234   2.540  0.7388  0.4620  0.0974
  124MOL    O3222418   1.764   4.344   2.493 -0.0726 -0.5305  0.4820
  124MOL    O3322419   1.767   4.210   2.674  0.2457 -0.3761  0.3190
  124MOL    H3422420   1.591   3.949   2.474  0.0971 -0.2992  0.5309
  124MOL    H3522421   1.628   3.994   2.632 -0.7115 -2.6852 -0.7050
  124MOL    H3622422   1.802   4.025   2.496 -0.5208 -1.0489 -1.4158
  124MOL    H3722423   1.800   4.281   2.728  0.8669 -1.1338  0.9480
  124MOL    C3822424   1.732   4.105   2.322 -0.6344 -0.8656 -0.1488
  124MOL    C3922425   1.869   4.118   2.268  0.5190 -0.8357  0.4003
  124MOL    C4022426   1.884   4.228   2.159  0.9788  0.1456  0.2995
  124MOL    O4122427   1.913   4.197   2.041 -0.2122 -0.4045 -0.3490
  124MOL    O4222428   1.858   4.354   2.203 -0.4751 -0.2903  0.0395
  124MOL    H4322429   1.664   4.185   2.291 -0.0840 -0.6129 -0.7180
  124MOL    H4422430   1.690   4.015   2.277  1.2262 -2.6992  1.6950
  124MOL    H4522431   1.944   4.144   2.344  1.2450 -1.6458 -0.0306
  124MOL    H4622432   1.865   4.420   2.135 -0.1844  0.1736  0.5209
  124MOL    C4722433   1.923   3.977   2.230 -0.1690 -0.8719  0.3297
  124MOL    C4822434   2.077   3.956   2.227 -0.3777  0.2304  0.8090
  124MOL    C4922435   2.127   3.886   2.098  0.4212 -0.3006  0.2313
  124MOL    O5022436   2.174   3.771   2.097 -0.1344 -0.4077 -0.0805
  124MOL    O5122437   2.099   3.965   1.993 -0.1332  0.1977  0.7288
  124MOL    H5222438   1.884   3.938   2.136 -0.0248  2.0706 -1.0192
  124MOL    H5322439   1.877   3.909   2.301 -1.4502 -1.6175 -1.1676
  124MOL    H5422440   2.123   4.055   2.224  1.5333 -0.6544 -0.5358
  124MOL    H5522441   2.066   4.046   2.029  0.1332  0.6550 -0.0604
  124MOL    C5622442   2.120   3.883   2.357  0.4863 -0.4359  0.1339
  124MOL    C5722443   2.268   3.840   2.378  0.6256 -0.8444 -0.3354
  124MOL    C5822444   2.277   3.756   2.506  0.6124 -0.4829  0.3866
  124MOL    O5922445   2.345   3.787   2.603 -0.6631  0.4007 -0.1321
  124MOL    O6022446   2.204   3.638   2.502  0.2877  0.3586  0.1751
  124MOL    H6122447   2.061   3.794   2.378 -0.8137  0.4933  0.4864
  124MOL    H6222448   2.104   3.959   2.434 -2.1916  1.8928 -2.5593
  124MOL    H6322449   2.292   3.769   2.298  2.4011  0.2745 -0.8179
  124MOL    H6422450   2.230   3.586   2.576  0.8464 -2.3556 -1.8565
  124MOL    C6522451   2.362   3.961   2.369 -0.6251 -0.3882  0.1522
  124MOL    C6622452   2.518   3.929   2.400 -0.1551 -0.1629 -0.5889
  124MOL    C6722453   2.600   4.059   2.373  0.2156  0.4026 -0.4790
  124MOL    O6822454   2.666   4.077   2.273 -0.0160  0.0797  0.0102
  124MOL    O6922455   2.587   4.156   2.469 -0.1585  0.4302 -0.1283
  124MOL    H7022456   2.322   4.050   2.417  0.6443 -0.7466  1.9281
  124MOL    H7122457   2.359   3.992   2.265 -0.2487  0.2096  0.3234
  124MOL    H7222458   2.528   3.903   2.505 -0.4573 -2.3777 -1.0846
  124MOL    H7322459   2.623   4.239   2.443 -2.1986  1.0568 -1.0746
  124MOL    C7422460   2.578   3.800   2.322  0.2972  0.3298  0.6304
  124MOL    C7522461   2.734   3.766   2.340  0.0647 -0.5666  0.2522
  124MOL    C7622462   2.759   3.635   2.261 -0.6731 -0.1131  0.2570
  124MOL    O7722463   2.811   3.538   2.314  0.1417  0.1181  0.1096
  124MOL    O7822464   2.729   3.642   2.129  0.1888  0.6078 -0.2091
  124MOL    H7922465   2.551   3.815   2.218  3.9104  0.6695 -0.3234
  124MOL    H8022466   2.528   3.715   2.368  2.0895 -1.2359 -0.2257
  124MOL    H8122467   2.786   3.846   2.287 -1.5521  0.8796  0.8071
  124MOL    H8222468   2.761   3.567   2.081 -1.6001  1.5301 -2.9495
  124MOL    C8322469   2.785   3.768   2.486 -0.3692 -0.1183  0.3769
  124MOL    C8422470   2.939   3.761   2.508 -0.9558 -0.0265  0.1467
  124MOL    C8522471   2.969   3.670   2.626 -0.6037 -0.1872  0.3696
  124MOL    O8622472   3.027   3.563   2.616 -0.5853 -0.3836  0.8176
  124MOL    O8722473   2.908   3.709   2.740 -0.2249  0.5324  0.4951
  124MOL    H8822474   2.741   3.678   2.530  0.3111  0.2049  1.7181
  124MOL    H8922475   2.738   3.847   2.545  1.0861  1.2644 -0.2753
  124MOL    H9022476   2.990   3.710   2.427 -1.0361 -0.3260  0.2811
  124MOL    H9122477   2.924   3.637   2.799 -0.5106 -0.2764 -0.3947
  124MOL    C9222478   3.003   3.900   2.528 -0.6325 -0.0534 -0.5111
  124MOL    C9322479   3.163   3.912   2.515  0.6325 -0.9166  0.4025
  124MOL    C9422480   3.210   4.029   2.598 -0.3547  0.2044 -0.2268
  124MOL    O9522481   3.134   4.096   2.669 -0.5260  0.3032  0.1199
  124MOL    O9622482   3.345   4.029   2.604  0.1432  0.2226  0.2039
  124MOL    H9722483   2.962   3.931   2.624 -0.8553 -0.5364 -0.4449
  124MOL    H9822484   2.972   3.960   2.443  4.3971  0.9137 -1.8129
  124MOL    H9922485   3.209   3.826   2.563  0.7339 -1.0572  0.0490
  124MOL   H10022486   3.376   3.960   2.547  0.4031 -0.3955  1.0800
  124MOL   C10122487   3.222   3.917   2.379  0.4857  0.3390  0.3292
  124MOL   C10222488   3.263   3.779   2.324 -0.5401  0.3650 -0.3847
  124MOL   C10322489   3.405   3.725   2.366  0.6969  0.4389  0.3573
  124MOL   O10422490   3.464   3.632   2.304 -0.2381  0.5070 -0.0229
  124MOL   O10522491   3.452   3.786   2.474 -0.4685  0.1256 -0.7028
  124MOL   H10622492   3.296   3.995   2.363 -0.2958  1.6042  2.6579
  124MOL   H10722493   3.146   3.959   2.313  0.1485 -0.7606 -0.0106
  124MOL   H10822494   3.195   3.702   2.361  1.2012 -0.7357  0.5863
  124MOL   H10922495   3.545   3.773   2.483  0.2029  3.3508 -2.3359
  124MOL   C11022496   3.259   3.797   2.170  0.0391  0.5238  0.1714
  124MOL   C11122497   3.127   3.744   2.111  0.1853  0.5159  0.9461
  124MOL   C11222498   3.126   3.596   2.088 -0.4010  0.0982  0.3151
  124MOL   O11322499   3.181   3.538   1.992  1.3378  0.4832 -0.6243
  124MOL   O11422500   3.075   3.525   2.191  0.0713  0.1055  0.1628
  124MOL   H11522501   3.347   3.759   2.119 -0.2547 -1.3680  1.0431
  124MOL   H11622502   3.281   3.899   2.140  0.1328  1.0407  1.9098
  124MOL   H11722503   3.039   3.766   2.172 -0.4700  1.1231 -0.1982
  124MOL   H11822504   3.079   3.433   2.169 -0.2302 -0.2557  1.5379
  124MOL   C11922505   3.095   3.806   1.969 -0.1171 -0.2412  0.0281
  124MOL   C12022506   3.045   3.948   1.962  0.3889 -0.3985  0.6043
  124MOL   C12122507   2.900   3.969   2.028 -0.1574 -0.8616  0.2966
  124MOL   O12222508   2.809   3.897   1.993  0.1999 -0.0466 -0.2310
  124MOL   O12322509   2.907   4.049   2.137 -0.4847 -0.1243 -0.4160
  124MOL   H12422510   3.019   3.738   1.931 -0.0518  0.2499 -1.0011
  124MOL   H12522511   3.185   3.786   1.910  0.4632  1.3153  0.3556
  124MOL   H12622512   3.125   4.005   2.010  1.2162 -1.8462  0.9907
  124MOL   H12722513   2.816   4.056   2.162 -1.1946  1.2722 -3.1075
  124MOL   C12822514   3.039   3.993   1.812 -0.2094  0.3022  0.1471
  124MOL   C12922515   3.083   4.140   1.777  0.0368  0.2881  1.1958
  124MOL   C13022516   3.232   4.154   1.814  0.2084  0.2222  0.6565
  124MOL   O13122517   3.271   4.190   1.923  0.7514  0.0165 -0.6299
  124MOL   O13222518   3.312   4.120   1.710 -0.0256  0.2680  0.1148
  124MOL   H13322519   2.940   3.969   1.772 -0.2972 -0.9177  1.0642
  124MOL   H13422520   3.093   3.921   1.750  1.7324  1.2621  0.6842
  124MOL   H13522521   3.069   4.146   1.669  0.7598  1.8746  1.1730
  124MOL   H13622522   3.399   4.129   1.747  0.1395  0.2132 -0.2578
  124MOL   C13722523   2.996   4.249   1.826  0.5117  0.7309 -0.6047
  124MOL   C13822524   2.849   4.250   1.793  0.5545  0.9993 -1.1093
  124MOL   C13922525   2.818   4.326   1.661 -0.9504 -0.0411 -0.5043
  124MOL   O14022526   2.771   4.436   1.658 -0.1836 -0.5612  0.5236
  124MOL   O14122527   2.845   4.255   1.546 -0.3036 -0.0203  0.5293
  124MOL   H14222528   3.034   4.345   1.793  0.9941  1.5630  2.2305
  124MOL   H14322529   3.014   4.251   1.934 -2.0029  1.0128 -0.1687
  124MOL   H14422530   2.810   4.149   1.786 -0.4428  1.3169 -0.1843
  124MOL   H14522531   2.830   4.320   1.479 -0.3855  1.7953  2.2625
  124MOL   C14622532   2.775   4.311   1.922 -0.2438 -0.1435 -0.4111
  124MOL   C14722533   2.618   4.324   1.918  0.0802 -0.0514  0.1354
  124MOL   C14822534   2.573   4.444   2.001  0.5697 -0.2586  0.3706
  124MOL   O14922535   2.619   4.463   2.113  0.0871  0.4962  0.0449
  124MOL   O15022536   2.463   4.508   1.946 -1.3075 -0.5597 -0.2372
  124MOL   H15122537   2.816   4.412   1.934 -0.1066 -0.2909  0.3270
  124MOL   H15222538   2.796   4.245   2.006 -0.3647 -0.8622 -0.9391
  124MOL   H15322539   2.603   4.343   1.812  2.1013 -0.9244 -0.3394
  124MOL   H15422540   2.447   4.581   2.005 -0.0571 -1.6073  1.4454
  124MOL   C15522541   2.548   4.194   1.948 -0.2115  0.3781 -0.4078
  124MOL   C15622542   2.403   4.192   1.894 -0.1184  0.3381  0.4229
  124MOL   C15722543   2.291   4.236   1.989  0.7039 -0.7515 -0.0539
  124MOL   O15822544   2.318   4.259   2.104  0.1987 -0.7850 -0.5152
  124MOL   O15922545   2.174   4.286   1.930 -0.2307 -0.1616  0.3842
  124MOL   H16022546   2.534   4.165   2.053  1.9346 -0.4943 -0.3497
  124MOL   H16122547   2.601   4.105   1.914 -1.9404 -0.4817 -0.9213
  124MOL   H16222548   2.396   4.262   1.810 -1.7580 -0.5664 -0.2256
  124MOL   H16322549   2.102   4.294   1.991  0.0697  1.2119  0.5671
  124MOL   C16422550   2.357   4.055   1.830 -0.3682 -0.7670 -0.1078
  124MOL   C16522551   2.441   3.990   1.726 -0.4515 -0.0747  0.1306
  124MOL   C16622552   2.542   3.888   1.781  0.2642 -0.2323 -0.0908
  124MOL   O16722553   2.521   3.796   1.853  0.2471 -0.5629  0.1420
  124MOL   O16822554   2.671   3.917   1.747  0.0661  0.5741 -0.4474
  124MOL   H16922555   2.266   4.071   1.773 -1.5325 -0.7106  1.7477
  124MOL   H17022556   2.341   3.994   1.918  1.3262  1.2740  1.6640
  124MOL   H17122557   2.371   3.924   1.675 -1.4736  1.0643  0.0335
  124MOL   H17222558   2.728   3.854   1.788 -0.1888  1.2596  1.0088
  124MOL   C17322559   2.489   4.106   1.625 -0.3825  0.0006  0.5778
  124MOL   C17422560   2.509   4.055   1.486  0.2366  0.4453 -0.1434
  124MOL   C17522561   2.379   4.018   1.421 -0.4243 -1.1689 -0.1013
  124MOL   O17622562   2.264   4.051   1.458  0.0030 -0.2045 -0.3473
  124MOL   O17722563   2.412   3.938   1.313  0.6108 -0.1181 -0.3245
  124MOL   H17822564   2.584   4.151   1.654 -0.0077  0.6927 -1.5889
  124MOL   H17922565   2.413   4.183   1.614 -0.4372 -0.4050 -2.1625
  124MOL   H18022566   2.548   4.135   1.422 -0.5815  1.5235  0.6771
  124MOL   H18122567   2.333   3.912   1.267  0.6467 -1.5510  0.3979
  124MOL   H18222568   2.579   3.972   1.491  0.3879  0.6127  0.5711
  125MOL     C122569   2.022   6.754   0.667  0.0274  0.2521  0.2912
  125MOL     C222570   2.159   6.805   0.693  0.4989 -0.7033 -0.0441
  125MOL     C322571   2.247   6.684   0.737 -0.5123 -0.0883  0.2297
  125MOL     O422572   2.304   6.680   0.846  0.2435 -0.4589  0.5000
  125MOL     O522573   2.251   6.588   0.639 -0.4296  0.0057  0.1983
  125MOL     H622574   2.019   6.666   0.603 -0.4836  0.1352  0.4741
  125MOL     H722575   1.987   6.711   0.762 -1.5270 -1.6633 -1.0914
  125MOL     H822576   2.198   6.841   0.599  0.4186 -2.1565 -0.6515
  125MOL     H922577   2.212   6.621   0.559  1.4546  2.1335  0.1041
  125MOL    H1022578   1.944   6.828   0.646 -1.8545 -0.7308  3.3974
  125MOL    C1122579   2.163   6.922   0.795 -0.2815  0.0980  0.1298
  125MOL    C1222580   2.104   7.055   0.739 -0.1108 -0.5023 -0.4115
  125MOL    C1322581   2.201   7.118   0.635  0.5746 -0.0427 -0.0089
  125MOL    O1422582   2.318   7.101   0.637  0.3983  0.1367  0.5262
  125MOL    O1522583   2.142   7.206   0.550 -0.4305 -0.2086  0.1845
  125MOL    H1622584   2.268   6.937   0.821 -0.0105  2.6585 -2.1684
  125MOL    H1722585   2.116   6.883   0.885  0.1980 -0.6741  0.0457
  125MOL    H1822586   2.018   7.027   0.679  1.2410  1.1549 -3.1796
  125MOL    H1922587   2.197   7.253   0.488 -2.5381  0.1539 -1.4542
  125MOL    C2022588   2.071   7.154   0.847  0.4462 -0.7788  0.0237
  125MOL    C2122589   1.976   7.112   0.960  0.9487  0.4335 -0.3895
  125MOL    C2222590   1.837   7.073   0.907 -0.4224  0.0769  0.3850
  125MOL    O2322591   1.787   6.962   0.931 -0.0809  0.1470  0.2463
  125MOL    O2422592   1.776   7.170   0.843  0.5301  0.2902 -0.1492
  125MOL    H2522593   2.028   7.239   0.794  0.5818  0.0264  1.1947
  125MOL    H2622594   2.167   7.185   0.888 -0.3221  1.5577  0.1354
  125MOL    H2722595   2.014   7.028   1.018 -1.7538  0.3863  1.3717
  125MOL    H2822596   1.692   7.140   0.811  0.3776 -0.4481  0.9478
  125MOL    C2922597   1.971   7.231   1.058  0.0334  0.2128  0.5498
  125MOL    C3022598   1.917   7.214   1.202  0.1177 -0.1311 -0.7091
  125MOL    C3122599   1.767   7.221   1.215  0.4173 -0.0422  0.3138
  125MOL    O3222600   1.705   7.326   1.204 -0.2212 -0.2184  0.3360
  125MOL    O3322601   1.707   7.100   1.250 -0.0989 -0.1405  0.2620
  125MOL    H3422602   1.930   7.319   1.009  0.8712 -0.6903 -1.8507
  125MOL    H3522603   2.074   7.261   1.079  0.1756  1.6696 -2.0290
  125MOL    H3622604   1.946   7.113   1.232  0.3680 -0.1530 -1.0216
  125MOL    H3722605   1.614   7.110   1.256 -0.3428 -1.7308 -0.7316
  125MOL    C3822606   1.986   7.301   1.310  0.1613 -0.2579 -0.4124
  125MOL    C3922607   1.971   7.457   1.320 -0.1093  0.2540 -0.1572
  125MOL    C4022608   2.015   7.535   1.193 -0.4940  0.4687 -0.1825
  125MOL    O4122609   2.133   7.566   1.163  0.1039  0.6508  0.0034
  125MOL    O4222610   1.906   7.587   1.124 -0.4814 -0.4379  0.0094
  125MOL    H4322611   2.091   7.279   1.331  0.3186 -0.3730 -1.3103
  125MOL    H4422612   1.942   7.257   1.400  0.7918  0.3525  0.2042
  125MOL    H4522613   1.866   7.478   1.341  0.2134 -0.0478  1.9098
  125MOL    H4622614   1.950   7.634   1.055 -0.2619  0.1538  0.5547
  125MOL    C4722615   2.045   7.497   1.451  0.2995  0.1020  0.2839
  125MOL    C4822616   2.010   7.645   1.503  0.3431 -0.4980  0.4231
  125MOL    C4922617   2.102   7.747   1.445 -0.5230  0.0152  0.2700
  125MOL    O5022618   2.219   7.754   1.475 -0.2564  0.0289 -0.8087
  125MOL    O5122619   2.047   7.818   1.344  0.0359 -0.3719 -0.0949
  125MOL    H5222620   2.152   7.492   1.433  0.4046  0.2037  0.8754
  125MOL    H5322621   2.024   7.424   1.529  1.2186  0.0610  0.4969
  125MOL    H5422622   1.913   7.667   1.457 -0.0656 -0.1771  1.4125
  125MOL    H5522623   2.107   0.029   1.309  0.9324 -2.0351 -1.6365
  125MOL    C5622624   2.017   7.642   1.661 -0.0325  0.1585  1.0411
  125MOL    C5722625   1.913   7.731   1.732 -0.1843  0.0237  0.4530
  125MOL    C5822626   1.951   0.029   1.722 -0.4770  0.4667  0.1994
  125MOL    O5922627   2.063   0.065   1.730 -0.3087  0.1175 -0.3069
  125MOL    O6022628   1.839   0.109   1.715 -1.0026 -0.1495  0.0452
  125MOL    H6122629   2.119   7.666   1.692 -0.9155  1.2131  3.2702
  125MOL    H6222630   1.981   7.543   1.689  0.6805 -0.9596 -1.8054
  125MOL    H6322631   1.823   7.714   1.673  1.5927 -0.4410 -2.2216
  125MOL    H6422632   1.876   0.196   1.710  2.1482 -1.3074  1.7780
  125MOL    C6522633   1.898   7.680   1.878 -0.0852 -0.5923  0.1306
  125MOL    C6622634   2.022   7.689   1.966 -0.2340 -0.1916  0.1481
  125MOL    C6722635   2.111   7.559   1.952  0.6529 -0.1881 -1.1766
  125MOL    O6822636   2.233   7.560   1.927  0.3522 -0.5402  0.7212
  125MOL    O6922637   2.040   7.446   1.982  0.1932 -0.0855 -0.2497
  125MOL    H7022638   1.857   7.579   1.878  2.2618 -1.5908  0.4299
  125MOL    H7122639   1.814   7.727   1.928 -0.0623 -2.1725  1.6933
  125MOL    H7222640   2.091   7.766   1.932  0.9831 -0.5147  1.8284
  125MOL    H7322641   2.087   7.370   1.951  1.0608  0.3876 -0.1128
  125MOL    C7422642   2.004   7.736   2.108  0.7163 -0.5050 -0.1815
  125MOL    C7522643   2.061   0.022   2.159 -0.3756  0.4275 -0.2882
  125MOL    C7622644   1.981   0.133   2.104 -0.3895 -0.1494 -0.1099
  125MOL    O7722645   1.876   0.168   2.156  0.2675 -0.4907  0.3451
  125MOL    O7822646   2.043   0.201   2.001 -0.0846  0.1708 -0.3645
  125MOL    H7922647   2.046   7.656   2.167  1.4778 -0.2791 -0.4147
  125MOL    H8022648   1.898   7.747   2.132  1.6714  1.3162  3.5908
  125MOL    H8122649   2.050   0.018   2.267  0.2688  0.7695 -0.2078
  125MOL    H8222650   1.993   0.279   1.981  1.5608  0.8354 -2.0626
  125MOL    C8322651   2.213   0.027   2.138  0.3749 -0.5468 -0.0343
  125MOL    C8422652   2.311   7.768   2.200 -0.2957 -0.2241 -0.1108
  125MOL    C8522653   2.322   7.783   2.349  0.2130 -0.0032  0.0984
  125MOL    O8622654   2.398   0.013   2.404 -0.0538  0.3160  0.0889
  125MOL    O8722655   2.228   7.717   2.424  0.4464  0.3681 -0.3801
  125MOL    H8822656   2.240   0.127   2.170 -1.5050  0.1269 -0.4801
  125MOL    H8922657   2.231   0.032   2.030  0.6780 -1.3696 -0.0300
  125MOL    H9022658   2.276   7.669   2.172 -0.0301  0.7775 -4.3431
  125MOL    H9122659   2.240   7.742   2.514  1.1758  1.0805 -0.6684
  125MOL    C9222660   2.439   7.778   2.128  0.1594 -0.3020  0.1231
  125MOL    C9322661   2.562   7.688   2.176 -0.0844  0.5296  0.3785
  125MOL    C9422662   2.685   7.753   2.108  0.0198  0.3371 -0.4420
  125MOL    O9522663   2.696   7.761   1.987 -0.0671 -0.4119 -0.0079
  125MOL    O9622664   2.780   7.791   2.197  0.1981 -0.3178 -0.1496
  125MOL    H9722665   2.467   0.031   2.134  2.9148 -0.9141 -1.1404
  125MOL    H9822666   2.434   7.766   2.020 -0.3366 -0.0368  0.1137
  125MOL    H9922667   2.563   7.710   2.282 -3.4165  0.2639  0.4974
  125MOL   H10022668   2.852   7.833   2.153 -0.3222  1.5096  0.6999
  125MOL   C10122669   2.554   7.536   2.157  0.2849 -0.5727 -0.7577
  125MOL   C10222670   2.691   7.465   2.176 -0.6811  0.2098 -0.5685
  125MOL   C10322671   2.698   7.328   2.109  0.4309  0.0451  0.1274
  125MOL   O10422672   2.801   7.281   2.056  0.7154  0.6839 -0.2571
  125MOL   O10522673   2.577   7.268   2.116  0.1508 -0.3970 -0.1689
  125MOL   H10622674   2.501   7.513   2.065 -1.2395 -1.5323  0.3390
  125MOL   H10722675   2.482   7.502   2.231  2.6141 -1.5263  1.1304
  125MOL   H10822676   2.776   7.512   2.126  0.5354 -0.6124  0.6873
  125MOL   H10922677   2.584   7.187   2.069  1.2272  0.4491 -1.5060
  125MOL   C11022678   2.728   7.456   2.327 -0.5928 -0.3404  0.3194
  125MOL   C11122679   2.874   7.404   2.353  0.0009  0.6686  0.4538
  125MOL   C11222680   2.868   7.335   2.489 -0.1211 -0.0323  0.4214
  125MOL   O11322681   2.860   7.394   2.600  0.2380  0.3468  0.0610
  125MOL   O11422682   2.868   7.201   2.473  0.1964 -0.4479 -0.0313
  125MOL   H11522683   2.655   7.390   2.375  0.9741 -2.3955 -0.0412
  125MOL   H11622684   2.718   7.548   2.384  1.5223 -0.6859  1.2912
  125MOL   H11722685   2.899   7.319   2.290  2.1877 -0.1520  2.3619
  125MOL   H11822686   2.855   7.151   2.552 -0.7119 -0.0228  0.0957
  125MOL   C11922687   2.978   7.518   2.342  0.7396 -0.1800  0.5833
  125MOL   C12022688   3.120   7.480   2.306  0.1202  0.2136  0.1814
  125MOL   C12122689   3.173   7.373   2.405 -0.1725 -0.0806 -0.2213
  125MOL   O12222690   3.240   7.280   2.363  0.0567 -0.0808 -0.3610
  125MOL   O12322691   3.162   7.401   2.536 -0.2124 -0.6211  0.0054
  125MOL   H12422692   2.970   7.590   2.423 -1.4207 -0.8111  0.9573
  125MOL   H12522693   2.936   7.573   2.258  1.7668 -1.0513 -0.5162
  125MOL   H12622694   3.113   7.444   2.204 -0.2416  2.4760 -0.6173
  125MOL   H12722695   3.215   7.348   2.593  0.2795  1.3998  1.4875
  125MOL   C12822696   3.215   7.608   2.305  0.8940 -0.1046  0.2143
  125MOL   C12922697   3.368   7.585   2.283  0.4479  0.6237  0.3431
  125MOL   C13022698   3.460   7.571   2.410  0.5549  0.1283 -0.4222
  125MOL   O13122699   3.447   7.641   2.514 -0.4252 -0.3598  0.0040
  125MOL   O13222700   3.555   7.471   2.395  0.4783  0.0076 -0.3484
  125MOL   H13322701   3.198   7.662   2.398  0.3392  0.1044 -0.0041
  125MOL   H13422702   3.174   7.676   2.229 -2.5206 -1.6555  0.5555
  125MOL   H13522703   3.375   7.490   2.231 -0.5548  1.0021 -0.4815
  125MOL   H13622704   3.588   7.458   2.483 -1.4476 -0.2858  0.3554
  125MOL   C13722705   3.422   7.687   2.187  0.3727 -0.5133 -0.0538
  125MOL   C13822706   3.551   7.648   2.118 -0.2612 -0.0565  0.3213
  125MOL   C13922707   3.670   7.714   2.183 -0.0455 -0.0381 -0.2604
  125MOL   O14022708   3.683   7.834   2.207 -0.2180  0.5793  0.2546
  125MOL   O14122709   3.760   7.623   2.219 -0.2362  0.5784 -0.7984
  125MOL   H14222710   3.440   7.781   2.240 -1.1011  0.2505 -0.8714
  125MOL   H14322711   3.339   7.710   2.120  1.1711 -0.6973 -1.1062
  125MOL   H14422712   3.570   7.541   2.108  0.1761  0.0688 -0.2573
  125MOL   H14522713   3.845   7.642   2.258 -0.6598  2.0425 -0.5567
  125MOL   C14622714   3.551   7.690   1.964  0.3172 -0.5549 -0.7806
  125MOL   C14722715   3.448   7.620   1.874  0.4617 -0.0417 -0.3937
  125MOL   C14822716   3.496   7.472   1.859 -0.4879 -0.5498  0.3194
  125MOL   O14922717   3.612   7.441   1.847  0.2378 -0.2280 -0.1740
  125MOL   O15022718   3.397   7.385   1.840 -0.1571 -0.1659  0.7624
  125MOL   H15122719   3.649   7.675   1.918  1.3126  0.4712  0.9298
  125MOL   H15222720   3.550   7.798   1.949 -0.4222 -0.6032 -1.0906
  125MOL   H15322721   3.352   7.618   1.926  0.9150  0.6888  0.4782
  125MOL   H15422722   3.440   7.306   1.811  1.6172  1.1005 -0.1653
  125MOL   C15522723   3.413   7.692   1.738  0.2199 -0.2222  0.1827
  125MOL   C15622724   3.283   7.648   1.662 -0.3511 -0.0053  0.5958
  125MOL   C15722725   3.280   7.710   1.519  0.2818  0.1318  0.4964
  125MOL   O15822726   3.189   7.772   1.467  0.6070  0.5809  0.2239
  125MOL   O15922727   3.400   7.684   1.459  0.3690  0.3849 -0.0240
  125MOL   H16022728   3.498   7.667   1.675  0.7613  2.3083 -0.1422
  125MOL   H16122729   3.418   7.801   1.750 -0.0726 -0.1317 -0.5413
  125MOL   H16222730   3.285   7.540   1.660  0.3022  0.0112 -1.8211
  125MOL   H16322731   3.400   7.711   1.368  0.3047 -3.0578 -1.1194
  125MOL   C16422732   3.149   7.666   1.742  0.2969  0.0597  0.3346
  125MOL   C16522733   3.139   7.793   1.830  0.0493 -0.6680  0.8635
  125MOL   C16622734   3.011   7.781   1.910 -0.0070  0.3431 -0.1267
  125MOL   O16722735   3.009   7.774   2.033 -0.0735  0.2907 -0.2673
  125MOL   O16822736   2.902   7.786   1.823  0.3439  0.0713 -0.4282
  125MOL   H16922737   3.135   7.576   1.800 -1.0437 -1.4938 -2.2894
  125MOL   H17022738   3.069   7.664   1.668  0.0951  0.4627  0.5395
  125MOL   H17122739   3.220   7.781   1.901  0.6674 -3.0685 -0.2128
  125MOL   H17222740   2.828   7.753   1.872  0.0070  0.3440 -0.7517
  125MOL   C17322741   3.151   0.085   1.769  0.1307  0.2754 -0.2753
  125MOL   C17422742   3.202   0.199   1.861  0.2067 -1.0570 -0.0317
  125MOL   C17522743   3.328   0.158   1.937  0.1154 -0.1398  0.4949
  125MOL   O17622744   3.327   0.138   2.058 -0.6420  0.8382 -0.0877
  125MOL   O17722745   3.438   0.172   1.856  0.2837  0.3595  0.2806
  125MOL   H17822746   3.062   0.130   1.726  0.2983  0.9300  0.0657
  125MOL   H17922747   3.218   0.072   1.685 -0.0645  0.9700 -0.5399
  125MOL   H18022748   3.215   0.294   1.809 -1.8463 -0.2614  0.8469
  125MOL   H18122749   3.516   0.188   1.908 -0.3824 -1.3504  1.8716
  125MOL   H18222750   3.128   0.202   1.941  1.1594 -1.1241  0.8554
  126MOL     C122751   4.406   3.331   5.111  0.0309 -0.4305  0.1689
  126MOL     C222752   4.357   3.240   5.222 -0.1961 -0.6119 -0.2510
  126MOL     C322753   4.481   3.176   5.279  0.2730  0.0108  0.1192
  126MOL     O422754   4.530   3.072   5.244 -0.5630  0.3121 -0.5212
  126MOL     O522755   4.531   3.256   5.378  0.3986  0.1940 -0.1232
  126MOL     H622756   4.337   3.409   5.079 -0.0348 -0.4961  0.1532
  126MOL     H722757   4.486   3.398   5.143 -1.5820  1.9492 -0.6306
  126MOL     H822758   4.307   3.304   5.294  1.5985 -1.0384  1.4123
  126MOL     H922759   4.608   3.223   5.422  1.0706  0.8658 -0.7792
  126MOL    H1022760   4.441   3.283   5.019 -1.5083 -0.5080 -0.3831
  126MOL    C1122761   4.259   3.132   5.167  0.1539  0.1488 -0.2951
  126MOL    C1222762   4.164   3.068   5.277  0.2491 -0.2775  0.1891
  126MOL    C1322763   4.245   2.957   5.354 -0.4589  0.3094  0.8506
  126MOL    O1422764   4.254   2.841   5.307 -0.1424 -0.4578  0.2006
  126MOL    O1522765   4.311   3.009   5.464 -0.4623  0.3494 -0.0447
  126MOL    H1622766   4.305   3.055   5.105  0.4167 -0.2524  0.4021
  126MOL    H1722767   4.190   3.187   5.102 -0.7615 -0.5945  0.0591
  126MOL    H1822768   4.138   3.149   5.344  0.6939 -0.0708  0.1192
  126MOL    H1922769   4.363   2.940   5.502  1.4394  3.0015  2.3254
  126MOL    C2022770   4.034   3.007   5.209  0.4008 -0.1980 -0.0165
  126MOL    C2122771   3.903   3.015   5.288 -0.0845  0.0021  0.3076
  126MOL    C2222772   3.854   3.164   5.296  0.0678  0.4453  0.3681
  126MOL    O2322773   3.860   3.227   5.399  0.2138 -0.3035 -0.6448
  126MOL    O2422774   3.816   3.220   5.179 -0.3336  0.7597 -0.5171
  126MOL    H2522775   4.046   2.902   5.184 -0.8115 -0.1178 -1.0051
  126MOL    H2622776   4.017   3.059   5.115 -3.6292  0.7650  1.1255
  126MOL    H2722777   3.826   2.964   5.229  0.6009 -0.4992 -0.1552
  126MOL    H2822778   3.775   3.303   5.194  0.6818  1.3597 -1.0295
  126MOL    C2922779   3.903   2.935   5.427 -0.2175 -0.1650 -0.4569
  126MOL    C3022780   3.762   2.876   5.468 -0.0893  0.3252  0.3191
  126MOL    C3122781   3.649   2.986   5.473 -0.6552 -0.4421  0.6181
  126MOL    O3222782   3.567   3.007   5.386 -0.0214  0.3753  0.0809
  126MOL    O3322783   3.665   3.067   5.582 -0.5474  0.5417 -0.4466
  126MOL    H3422784   3.949   2.995   5.506  0.7064 -1.4349 -0.0090
  126MOL    H3522785   3.971   2.850   5.421 -1.9554 -1.6990  0.9899
  126MOL    H3622786   3.744   2.816   5.379 -0.7046  1.2989 -0.2318
  126MOL    H3722787   3.597   3.125   5.615 -1.9212 -1.1682 -0.1870
  126MOL    C3822788   3.749   2.774   5.586  0.5074 -0.9094  0.5938
  126MOL    C3922789   3.809   2.827   5.717  0.3727 -0.2061  0.2355
  126MOL    C4022790   3.961   2.799   5.742 -0.4820 -0.7529  0.4857
  126MOL    O4122791   4.023   2.714   5.679  0.0748 -0.4560  0.0947
  126MOL    O4222792   4.004   2.885   5.838 -0.0826 -0.3656 -0.2313
  126MOL    H4322793   3.802   2.681   5.566  0.3808 -0.8881  0.1407
  126MOL    H4422794   3.645   2.744   5.596  0.1323  1.2787  4.0291
  126MOL    H4522795   3.806   2.936   5.707  0.2656 -0.1868  0.4663
  126MOL    H4622796   4.097   2.897   5.840 -0.1971  0.4158  1.0557
  126MOL    C4722797   3.711   2.808   5.838 -0.3140 -0.6395 -0.2617
  126MOL    C4822798   3.737   2.710   5.952 -0.4918  0.8537  0.1816
  126MOL    C4922799   3.705   2.565   5.912 -0.2586  0.0503 -0.6520
  126MOL    O5022800   3.684   2.479   5.996 -0.0140  0.0855  0.2248
  126MOL    O5122801   3.706   2.536   5.778 -0.4249 -0.0168 -0.2417
  126MOL    H5222802   3.607   2.805   5.806 -0.1702  0.8178 -0.8887
  126MOL    H5322803   3.705   2.898   5.899  1.7483 -0.5553 -0.1538
  126MOL    H5422804   3.843   2.699   5.976 -0.3359  0.3254 -0.7358
  126MOL    H5522805   3.698   2.444   5.760  0.9125 -0.1161 -0.3427
  126MOL    C5622806   3.663   2.756   6.080  0.2603 -0.0633  0.1058
  126MOL    C5722807   3.712   2.883   6.163  0.3292 -0.3929 -0.0967
  126MOL    C5822808   3.858   2.873   6.207 -0.7752  0.1022  0.4286
  126MOL    O5922809   3.951   2.930   6.155 -0.0103 -0.3718  0.6319
  126MOL    O6022810   3.876   2.789   6.306  0.3234  0.0826 -0.2059
  126MOL    H6122811   3.642   2.683   6.158 -0.0560 -0.0909 -0.0083
  126MOL    H6222812   3.562   2.781   6.049  0.3460  0.3559  0.1690
  126MOL    H6322813   3.705   2.966   6.093  1.3372  0.6415  1.0087
  126MOL    H6422814   3.967   2.768   6.320  0.4503  1.3423  0.9606
  126MOL    C6522815   3.620   2.915   6.287  0.2674 -0.4822 -0.6017
  126MOL    C6622816   3.582   3.064   6.320  1.1728  0.4274  0.7316
  126MOL    C6722817   3.520   3.151   6.206 -0.2520  0.3812  0.2877
  126MOL    O6822818   3.520   3.275   6.209 -0.2897  0.1769 -0.2798
  126MOL    O6922819   3.475   3.081   6.097 -0.2278 -0.1602  0.1870
  126MOL    H7022820   3.650   2.865   6.379 -2.2797  1.4783  1.3797
  126MOL    H7122821   3.526   2.865   6.263  0.1783 -0.4903 -0.2417
  126MOL    H7222822   3.499   3.047   6.389  0.8052 -2.0078 -0.2325
  126MOL    H7322823   3.448   3.149   6.036  1.1844  1.9673  1.8744
  126MOL    C7422824   3.689   3.145   6.394 -0.0612  0.1279 -0.2744
  126MOL    C7522825   3.636   3.245   6.498 -0.1832 -0.0576 -0.1370
  126MOL    C7622826   3.723   3.371   6.518  0.2428 -0.1465  0.7344
  126MOL    O7722827   3.787   3.429   6.426  0.2130 -0.0900  0.3314
  126MOL    O7822828   3.725   3.417   6.643  0.0315 -0.6460 -0.0093
  126MOL    H7922829   3.750   3.205   6.327  2.2196 -0.5628  1.1292
  126MOL    H8022830   3.765   3.081   6.438 -0.2830  1.4244  2.0626
  126MOL    H8122831   3.548   3.293   6.454  0.2153 -0.0365 -0.9295
  126MOL    H8222832   3.782   3.492   6.647 -1.1496  0.3636 -1.6288
  126MOL    C8322833   3.580   3.176   6.629  0.1118 -0.0838 -0.1584
  126MOL    C8422834   3.668   3.075   6.709 -0.4857  0.0575  0.2606
  126MOL    C8522835   3.634   2.931   6.670 -0.6617 -0.3040  0.4035
  126MOL    O8622836   3.521   2.886   6.664 -0.4689 -0.1158  0.4145
  126MOL    O8722837   3.752   2.857   6.643 -0.2409 -0.9914 -0.8196
  126MOL    H8822838   3.482   3.132   6.608 -1.3838  0.9824  3.9377
  126MOL    H8922839   3.552   3.256   6.698  0.3781  1.0702 -1.3757
  126MOL    H9022840   3.769   3.081   6.669  0.2219 -0.1839  1.9342
  126MOL    H9122841   3.750   2.763   6.641  2.3332 -1.0376 -3.3938
  126MOL    C9222842   3.690   3.094   6.859 -0.3400  0.1863  0.0573
  126MOL    C9322843   3.580   3.059   6.952 -0.0988  0.1124  0.0898
  126MOL    C9422844   3.564   3.159   7.064  0.0776  0.0657  0.0920
  126MOL    O9522845   3.552   3.130   7.185  0.4237 -0.1333  0.6303
  126MOL    O9622846   3.546   3.285   7.019 -0.5146  0.5687  0.8780
  126MOL    H9722847   3.708   3.201   6.856  1.8645 -0.1858 -0.6073
  126MOL    H9822848   3.785   3.052   6.893  0.4873  2.9199  1.2784
  126MOL    H9922849   3.484   3.068   6.901  0.2906 -2.9308 -1.2606
  126MOL   H10022850   3.533   3.344   7.091 -2.8495  1.5485 -0.2942
  126MOL   C10122851   3.597   2.909   7.007  0.4663  0.3911  0.9625
  126MOL   C10222852   3.469   2.862   7.071 -0.1104  0.1414 -0.9427
  126MOL   C10322853   3.489   2.750   7.168  0.6594 -0.2239  0.1528
  126MOL   O10422854   3.536   2.639   7.137 -0.7256  0.4824  0.0296
  126MOL   O10522855   3.449   2.780   7.289 -0.5565  0.1106 -0.2452
  126MOL   H10622856   3.675   2.906   7.084 -0.1001 -2.8116  1.4920
  126MOL   H10722857   3.627   2.834   6.934 -1.3776  0.4848  0.0835
  126MOL   H10822858   3.423   2.936   7.135 -1.1165 -1.6383  0.4085
  126MOL   H10922859   3.494   2.715   7.341  0.2366 -0.3208 -1.4587
  126MOL   C11022860   3.368   2.823   6.958 -0.3022 -0.1821 -0.3142
  126MOL   C11122861   3.221   2.793   6.990  0.5813 -0.9188 -0.5374
  126MOL   C11222862   3.167   2.750   6.857 -0.2741 -0.7588  0.0028
  126MOL   O11322863   3.111   2.824   6.777  0.1840 -0.4898 -0.0586
  126MOL   O11422864   3.195   2.619   6.826  0.0277 -0.5342 -0.2104
  126MOL   H11522865   3.412   2.746   6.895  1.4940  1.1419 -0.7257
  126MOL   H11622866   3.364   2.897   6.878 -0.1689  2.6876  2.2324
  126MOL   H11722867   3.208   2.705   7.053 -2.2414 -0.7272 -0.7764
  126MOL   H11822868   3.143   2.600   6.749 -0.3108  0.0616 -0.1306
  126MOL   C11922869   3.145   2.917   7.042  0.0534  1.0219 -0.1136
  126MOL   C12022870   3.042   2.888   7.149  0.3598 -0.4971  0.8840
  126MOL   C12122871   3.108   2.864   7.278 -0.3565 -0.6719  0.0268
  126MOL   O12222872   3.094   2.765   7.345 -0.5200 -0.1565  0.5340
  126MOL   O12322873   3.180   2.975   7.321  0.2625  0.4749 -0.0719
  126MOL   H12422874   3.090   2.969   6.964 -0.3671  0.0491 -0.4716
  126MOL   H12522875   3.213   2.998   7.069  3.2943 -1.0494 -1.6754
  126MOL   H12622876   3.001   2.989   7.158 -0.1924 -0.7674  1.4469
  126MOL   H12722877   3.217   2.959   7.406 -1.8295  1.1341  0.9903
  126MOL   C12822878   2.923   2.797   7.119 -0.3291  0.4754 -0.0810
  126MOL   C12922879   2.840   2.855   7.006  0.1668  0.2926  0.3750
  126MOL   C13022880   2.758   2.970   7.064 -0.2243 -0.7426  0.2030
  126MOL   O13122881   2.733   2.983   7.182 -0.2763 -0.5562  0.7581
  126MOL   O13222882   2.690   3.041   6.964 -0.0199  0.1920  0.1273
  126MOL   H13322883   2.864   2.771   7.207  1.0339  0.0991  0.7272
  126MOL   H13422884   2.959   2.702   7.080 -5.0625 -1.6368  0.3918
  126MOL   H13522885   2.902   2.887   6.923  0.7021 -1.0158  0.2526
  126MOL   H13622886   2.635   3.113   6.992  2.7465  2.3929  0.0876
  126MOL   C13722887   2.744   2.744   6.955  0.5292 -0.6614  0.1654
  126MOL   C13822888   2.809   2.634   6.868  0.7225  0.0715 -0.2195
  126MOL   C13922889   2.866   2.679   6.731  0.3946 -0.3187 -0.4224
  126MOL   O14022890   2.960   2.621   6.680 -0.3752 -0.1175 -0.3209
  126MOL   O14122891   2.803   2.786   6.686 -0.5834 -0.2261  0.3222
  126MOL   H14222892   2.665   2.799   6.905  1.9573  0.0114 -1.4244
  126MOL   H14322893   2.698   2.714   7.049 -0.8096  0.2269 -0.2035
  126MOL   H14422894   2.902   2.608   6.918 -0.6467  1.0577  2.9784
  126MOL   H14522895   2.825   2.824   6.602  0.0358  0.0652  0.6179
  126MOL   C14622896   2.719   2.504   6.852 -0.2314 -0.4792  0.5421
  126MOL   C14722897   2.792   2.372   6.809 -0.1080 -0.0795 -0.2691
  126MOL   C14822898   2.692   2.262   6.765  0.2684 -0.0676 -0.6849
  126MOL   O14922899   2.677   2.154   6.817 -0.1667  0.4834  0.3009
  126MOL   O15022900   2.606   2.302   6.666 -0.8418  0.0092 -0.5291
  126MOL   H15122901   2.638   2.527   6.783 -0.2690  1.6119  1.2365
  126MOL   H15222902   2.668   2.477   6.945 -0.1853 -0.3133  0.6174
  126MOL   H15322903   2.841   2.392   6.713  1.2479  1.2077  0.6799
  126MOL   H15422904   2.535   2.239   6.666 -1.6411  0.9006  0.6729
  126MOL   C15522905   2.890   2.321   6.913  0.4127 -0.1328  0.6717
  126MOL   C15622906   3.031   2.261   6.862  0.3163 -0.0624 -0.3753
  126MOL   C15722907   3.019   2.151   6.749  0.6547 -0.1782  0.1297
  126MOL   O15822908   2.970   2.040   6.769  0.1408 -0.0753 -0.8617
  126MOL   O15922909   3.048   2.205   6.625  0.6680 -0.1797 -0.1697
  126MOL   H16022910   2.828   2.258   6.978 -0.2413 -0.4936 -0.2876
  126MOL   H16122911   2.933   2.391   6.984 -0.3305 -2.2253  3.2761
  126MOL   H16222912   3.083   2.344   6.813  2.3883  0.5697  2.7558
  126MOL   H16322913   3.040   2.137   6.560  1.0792 -1.6799  1.3166
  126MOL   C16422914   3.132   2.221   6.978  0.3714  0.8505  0.0885
  126MOL   C16522915   3.256   2.316   7.003  0.3840 -0.1627  0.7181
  126MOL   C16622916   3.386   2.254   6.939 -0.0917  0.7431  0.1203
  126MOL   O16722917   3.411   2.135   6.942  0.3465  0.6130  0.4008
  126MOL   O16822918   3.487   2.349   6.912  0.0788  0.1403  0.1694
  126MOL   H16922919   3.168   2.123   6.944 -1.9758  0.1912 -0.5636
  126MOL   H17022920   3.091   2.201   7.076 -0.5342  0.6754 -0.3248
  126MOL   H17122921   3.249   2.401   6.937  0.5913  0.4234  1.4409
  126MOL   H17222922   3.563   2.294   6.901  0.2354  0.5198 -0.6968
  126MOL   C17322923   3.283   2.356   7.152 -0.2764  0.0894  0.3495
  126MOL   C17422924   3.361   2.263   7.249  0.0616 -0.7461  0.2409
  126MOL   C17522925   3.390   2.319   7.390 -0.5591 -0.2987 -0.2777
  126MOL   O17622926   3.501   2.350   7.432  0.5270 -0.0435  0.2583
  126MOL   O17722927   3.274   2.328   7.460 -0.7718  0.9473 -0.5195
  126MOL   H17822928   3.187   2.391   7.188  0.0746 -0.7507  2.1276
  126MOL   H17922929   3.335   2.451   7.154  1.8099 -0.9533 -1.7366
  126MOL   H18022930   3.305   2.170   7.263  0.2163 -0.9201 -0.2945
  126MOL   H18122931   3.279   2.369   7.544  3.4859 -2.6680  1.1880
  126MOL   H18222932   3.451   2.229   7.197 -0.1837  0.2017 -0.8246
  127MOL     C122933   2.473   7.836   1.282  0.0312 -0.2340  1.0739
  127MOL     C222934   2.625   7.847   1.301 -0.0006 -0.5447 -0.6954
  127MOL     C322935   2.700   7.743   1.215 -0.5954  0.0034  0.3115
  127MOL     O422936   2.792   7.670   1.254  0.0345  0.2848  0.1176
  127MOL     O522937   2.652   7.749   1.085  0.5920  0.0056 -0.0839
  127MOL     H622938   2.460   0.004   1.176 -3.6224 -2.5296  0.9824
  127MOL     H722939   2.441   7.733   1.294  0.2724 -0.5126 -0.4773
  127MOL     H822940   2.669   0.090   1.273 -0.1790 -0.1412  0.3725
  127MOL     H922941   2.692   7.694   1.020 -0.8064  1.2553 -2.0564
  127MOL    H1022942   2.404   0.053   1.328 -0.5693  0.1375 -0.3740
  127MOL    C1122943   2.668   7.846   1.450 -0.4060 -0.1601 -0.8027
  127MOL    C1222944   2.662   0.130   1.529  0.8767 -0.0646  0.2067
  127MOL    C1322945   2.768   0.238   1.494 -0.4685 -0.0768 -0.0084
  127MOL    O1422946   2.755   0.360   1.480  0.3783 -0.6008 -0.0121
  127MOL    O1522947   2.888   0.174   1.484  0.1262 -0.1476  0.4572
  127MOL    H1622948   2.767   7.802   1.460  0.4739  1.8212 -0.4225
  127MOL    H1722949   2.612   7.772   1.507 -1.5970  0.0644 -1.6583
  127MOL    H1822950   2.566   0.176   1.505  0.4040 -0.3638  1.4647
  127MOL    H1922951   2.868   0.083   1.498  3.1917 -0.9935 -0.2099
  127MOL    C2022952   2.648   0.109   1.688  0.9642  0.7449 -0.6696
  127MOL    C2122953   2.524   0.160   1.768 -0.0526 -0.4132 -0.0647
  127MOL    C2222954   2.391   0.118   1.705  0.6348  0.9018 -0.3880
  127MOL    O2322955   2.338   0.171   1.608  0.2322 -0.5808 -1.1747
  127MOL    O2422956   2.335   0.017   1.776  0.3078  0.3219  0.4379
  127MOL    H2522957   2.739   0.133   1.743  0.7977 -1.4562  0.6008
  127MOL    H2622958   2.633   0.003   1.703  1.9488  0.7314  0.2774
  127MOL    H2722959   2.531   0.118   1.869  1.2662  1.8370  0.8036
  127MOL    H2822960   2.257   0.002   1.725  0.8237 -0.9167 -0.0299
  127MOL    C2922961   2.537   0.312   1.791 -0.4067  0.4332 -0.1405
  127MOL    C3022962   2.462   0.383   1.902 -0.4062  0.3272 -0.0727
  127MOL    C3122963   2.496   0.330   2.045 -0.3418 -0.2400  0.1604
  127MOL    O3222964   2.415   0.298   2.128 -0.5170  0.0587 -0.3498
  127MOL    O3322965   2.634   0.316   2.059  0.2987  0.0195 -0.0463
  127MOL    H3422966   2.529   0.364   1.696 -0.3788 -1.2649 -1.0892
  127MOL    H3522967   2.641   0.339   1.807  0.0225 -1.0561 -0.3449
  127MOL    H3622968   2.493   0.487   1.901  0.2608  0.1322 -0.0428
  127MOL    H3722969   2.654   0.279   2.143 -3.2274 -0.7386  0.4968
  127MOL    C3822970   2.304   0.378   1.883 -0.6208 -0.1610 -0.7674
  127MOL    C3922971   2.243   0.465   1.766 -0.4944 -0.2585  0.1440
  127MOL    C4022972   2.216   0.607   1.813  0.1103 -0.6059 -0.3614
  127MOL    O4122973   2.107   0.668   1.813 -0.1887 -0.2969  0.3881
  127MOL    O4222974   2.332   0.657   1.867 -0.0468  0.2378 -0.5328
  127MOL    H4322975   2.247   0.405   1.972 -0.6699  0.9775 -1.1395
  127MOL    H4422976   2.274   0.273   1.879 -1.1446 -0.0085 -0.9336
  127MOL    H4522977   2.320   0.472   1.690 -0.2799 -0.8945  0.2945
  127MOL    H4622978   2.324   0.741   1.909  0.9378  1.1908 -2.1958
  127MOL    C4722979   2.115   0.395   1.711  0.2745 -0.7468  0.1572
  127MOL    C4822980   2.041   0.448   1.592  0.0914  0.3634 -0.0162
  127MOL    C4922981   1.897   0.479   1.628 -0.0210  0.3163  0.1745
  127MOL    O5022982   1.855   0.593   1.622  0.2035  0.4572  0.2934
  127MOL    O5122983   1.829   0.367   1.670 -0.1301 -0.5294  0.0389
  127MOL    H5222984   2.052   0.378   1.798  1.3231  0.4995  1.1804
  127MOL    H5322985   2.139   0.291   1.686  1.7588  0.2185 -2.6286
  127MOL    H5422986   2.086   0.545   1.573  3.0416 -0.7185  1.2188
  127MOL    H5522987   1.744   0.393   1.703 -0.4141 -1.1581 -0.1850
  127MOL    C5622988   2.057   0.356   1.467 -0.6361 -0.1528 -0.0376
  127MOL    C5722989   2.004   0.402   1.329  0.1351 -0.0206  0.0003
  127MOL    C5822990   2.070   0.521   1.273  0.5970  0.3470  0.0548
  127MOL    O5922991   2.173   0.521   1.204 -0.4560  0.3746 -0.2419
  127MOL    O6022992   2.017   0.636   1.322 -0.1795  0.1637  0.1550
  127MOL    H6122993   2.000   0.265   1.485  0.1243 -0.6996 -0.3754
  127MOL    H6222994   2.160   0.328   1.443 -0.4728  0.0801  0.3848
  127MOL    H6322995   2.036   0.324   1.261  0.2587 -0.3476  0.4313
  127MOL    H6422996   2.056   0.722   1.320 -0.9624  0.5230  0.1909
  127MOL    C6522997   1.851   0.408   1.326  0.7184 -0.0494  0.0500
  127MOL    C6622998   1.782   0.367   1.200 -0.8719 -0.2058 -0.3524
  127MOL    C6722999   1.792   0.465   1.077 -0.3338 -0.2370  0.1379
  127MOL    O6823000   1.820   0.430   0.969 -0.5190  0.3104  0.2746
  127MOL    O6923001   1.782   0.592   1.117  0.6819  0.0109  0.7339
  127MOL    H7023002   1.802   0.492   1.376  0.8132 -0.1029  0.2320
  127MOL    H7123003   1.810   0.325   1.383  0.3979 -0.5257 -0.8729
  127MOL    H7223004   1.833   0.280   1.159  0.4283  1.9742 -3.5516
  127MOL    H7323005   1.749   0.605   1.205 -0.9802 -0.0615  0.1353
  127MOL    C7423006   1.639   0.327   1.225  0.7023  0.0269 -0.5777
  127MOL    C7523007   1.556   0.274   1.100 -0.4365 -0.7325  0.0176
  127MOL    C7623008   1.406   0.249   1.149  0.5643 -0.6008 -0.8190
  127MOL    O7723009   1.369   0.241   1.264 -0.3610  0.3103  0.3070
  127MOL    O7823010   1.326   0.237   1.043 -0.2225 -0.3279 -0.1488
  127MOL    H7923011   1.584   0.410   1.268  2.2879  0.0314  1.5138
  127MOL    H8023012   1.640   0.249   1.301  0.7679 -0.0367 -0.6438
  127MOL    H8123013   1.541   0.359   1.034  0.7827  0.0665  0.7550
  127MOL    H8223014   1.240   0.212   1.072  0.3203 -0.8736  1.0088
  127MOL    C8323015   1.614   0.149   1.026  0.0148 -0.0646  1.3238
  127MOL    C8423016   1.643   0.022   1.103  0.7222 -0.3973 -0.1859
  127MOL    C8523017   1.785   0.023   1.154 -0.1187  0.5811  0.5539
  127MOL    O8623018   1.881   0.043   1.084 -0.2075  0.1303 -0.3736
  127MOL    O8723019   1.792   7.845   1.289  0.7386 -0.2654 -0.3640
  127MOL    H8823020   1.706   0.186   0.983 -0.3400 -1.1626 -0.4363
  127MOL    H8923021   1.559   0.141   0.932  0.4320  4.0349  0.6563
  127MOL    H9023022   1.572   0.014   1.186  1.7699  2.0456  1.0059
  127MOL    H9123023   1.883   7.843   1.316 -0.1138 -1.5156  2.5145
  127MOL    C9223024   1.630   7.761   1.006 -0.4860  0.1147  0.3200
  127MOL    C9323025   1.492   7.724   0.956 -0.0025 -1.3903  0.6796
  127MOL    C9423026   1.399   7.685   1.080  0.4847  0.4676  0.7391
  127MOL    O9523027   1.319   7.760   1.138 -0.4053 -0.1414  0.2460
  127MOL    O9623028   1.431   7.562   1.130  0.2589  0.0681 -0.1253
  127MOL    H9723029   1.679   7.668   1.036 -1.4036 -0.9865 -1.5167
  127MOL    H9823030   1.668   7.797   0.911 -3.4034  0.8830 -0.6183
  127MOL    H9923031   1.445   7.815   0.919 -0.4012 -2.0155 -0.3689
  127MOL   H10023032   1.376   7.540   1.204 -1.2730 -0.7324 -1.4617
  127MOL   C10123033   1.486   7.617   0.844  0.3134 -0.5166  0.0289
  127MOL   C10223034   1.552   7.642   0.711 -0.0459 -0.0109  0.1912
  127MOL   C10323035   1.490   7.762   0.631 -0.2370  0.1722 -0.7213
  127MOL   O10423036   1.407   7.842   0.681 -0.7064 -0.1929  0.2763
  127MOL   O10523037   1.559   7.789   0.515  0.0136  0.1151 -0.0050
  127MOL   H10623038   1.380   7.613   0.816 -0.3379  2.0323  1.9583
  127MOL   H10723039   1.506   7.517   0.883  0.6573  0.0297  1.2646
  127MOL   H10823040   1.656   7.673   0.720 -0.0909  0.1504  0.1520
  127MOL   H10923041   1.537   0.027   0.500 -0.1140  0.0793 -0.0322
  127MOL   C11023042   1.549   7.518   0.625  0.3562 -0.5406 -0.5216
  127MOL   C11123043   1.647   7.404   0.671 -0.2075  0.1874 -0.2820
  127MOL   C11223044   1.787   7.452   0.698 -0.2052  0.0234 -0.6081
  127MOL   O11323045   1.871   7.454   0.610 -0.8748  0.7233 -0.0974
  127MOL   O11423046   1.798   7.493   0.829  0.2768  0.0654 -0.6769
  127MOL   H11523047   1.563   7.543   0.520  0.8822  2.5729  0.2427
  127MOL   H11623048   1.448   7.479   0.639  0.2174 -0.2615 -0.7423
  127MOL   H11723049   1.617   7.352   0.762  2.0516  1.3727  1.1596
  127MOL   H11823050   1.886   7.520   0.848  0.1732 -1.4069  2.1349
  127MOL   C11923051   1.657   7.292   0.564  0.5173 -0.2595 -0.4224
  127MOL   C12023052   1.526   7.216   0.531  0.1116  0.1571  0.4274
  127MOL   C12123053   1.490   7.105   0.638 -0.5080 -0.4306 -0.0898
  127MOL   O12223054   1.558   7.057   0.726  0.3509 -0.2128 -0.6930
  127MOL   O12323055   1.361   7.069   0.622 -0.1961 -0.1546 -0.1127
  127MOL   H12423056   1.732   7.220   0.598  0.5855  0.0919  0.1718
  127MOL   H12523057   1.705   7.331   0.475 -0.5142 -1.0370 -1.3282
  127MOL   H12623058   1.452   7.295   0.529  2.1125  2.0891  0.4515
  127MOL   H12723059   1.324   6.988   0.654  4.2850 -2.5815 -0.7718
  127MOL   C12823060   1.551   7.160   0.389 -0.6650  0.4567 -0.1068
  127MOL   C12923061   1.654   7.039   0.354  0.6960 -0.2115 -0.4753
  127MOL   C13023062   1.794   7.102   0.346 -0.0971  0.6162  0.0909
  127MOL   O13123063   1.833   7.170   0.253  0.0493  0.3536  0.3572
  127MOL   O13223064   1.873   7.061   0.448  0.4534  0.0149  0.2187
  127MOL   H13323065   1.565   7.241   0.317  1.6868 -0.7568 -1.0934
  127MOL   H13423066   1.458   7.117   0.354 -0.4523  0.1275 -0.2709
  127MOL   H13523067   1.636   6.964   0.431 -0.3412 -0.0547 -0.5520
  127MOL   H13623068   1.962   7.091   0.433  0.6271 -1.2164 -1.3442
  127MOL   C13723069   1.619   6.964   0.219  0.0394  0.5594 -0.0455
  127MOL   C13823070   1.645   6.813   0.199 -0.1595  0.7730 -0.3967
  127MOL   C13923071   1.802   6.784   0.212 -0.6239 -0.2964  0.4045
  127MOL   O14023072   1.850   6.731   0.307  0.2390  0.6177 -0.0904
  127MOL   O14123073   1.861   6.840   0.101 -0.0774 -0.5294  0.2451
  127MOL   H14223074   1.659   7.012   0.130 -0.4534  1.2309  0.0841
  127MOL   H14323075   1.511   6.976   0.210  0.0441  0.5926 -0.0577
  127MOL   H14423076   1.603   6.751   0.279 -0.2593  0.4782 -0.6761
  127MOL   H14523077   1.951   6.809   0.101 -0.4079 -1.5954 -1.2542
  127MOL   C14623078   1.595   6.754   0.063  0.5654 -0.3445  0.4779
  127MOL   C14723079   1.532   6.614   0.064  0.0305  0.1469 -0.1333
  127MOL   C14823080   1.638   6.498   0.083 -0.5901  0.0543  0.0157
  127MOL   O14923081   1.701   6.448   7.843  0.7566 -0.2430 -1.1005
  127MOL   O15023082   1.666   6.473   0.216  0.5110  0.6062  0.4778
  127MOL   H15123083   1.662   6.763   7.830 -0.2349  2.0257  0.0540
  127MOL   H15223084   1.516   6.819   0.025  0.7652 -1.3552 -1.7741
  127MOL   H15323085   1.473   6.611   0.156 -1.3814  1.3254 -0.9781
  127MOL   H15423086   1.740   6.415   0.226  1.5704  2.0361  1.0288
  127MOL   C15523087   1.422   6.584   7.812 -0.3435  0.0281 -0.1089
  127MOL   C15623088   1.451   6.615   7.659  0.4301 -0.7028 -0.0553
  127MOL   C15723089   1.383   6.745   7.627 -0.6469  0.1679  0.1006
  127MOL   O15823090   1.271   6.778   7.670 -0.6970 -0.0398 -0.4631
  127MOL   O15923091   1.453   6.822   7.533 -0.6276 -0.3307  0.4934
  127MOL   H16023092   1.334   6.640   7.843 -0.2998  0.2078 -0.3134
  127MOL   H16123093   1.403   6.477   7.821 -0.6038 -0.0644 -1.6876
  127MOL   H16223094   1.556   6.644   7.653  0.3906 -0.5002  0.2450
  127MOL   H16323095   1.537   6.794   7.500  1.3038  3.0975  2.1422
  127MOL   C16423096   1.407   6.509   7.554  0.1686 -0.2956  0.0109
  127MOL   C16523097   1.499   6.385   7.536  0.1933 -0.0404  0.2790
  127MOL   C16623098   1.633   6.416   7.479 -0.4757  0.0868 -0.2146
  127MOL   O16723099   1.652   6.414   7.361  0.5863 -0.1137  0.0271
  127MOL   O16823100   1.716   6.460   7.572 -0.0767 -0.3138  0.3436
  127MOL   H16923101   1.402   6.556   7.456 -0.0078 -0.4879 -0.0735
  127MOL   H17023102   1.308   6.473   7.584  0.7882 -0.1697  2.3302
  127MOL   H17123103   1.531   6.349   7.634  0.5522 -1.3277 -0.3084
  127MOL   H17223104   1.698   6.445   7.664  2.1913 -2.3337  0.5230
  127MOL   C17323105   1.424   6.269   7.474  0.0027  0.3481 -0.3928
  127MOL   C17423106   1.426   6.153   7.582 -0.8821  0.1151  0.2076
  127MOL   C17523107   1.353   6.188   7.711  0.0823 -0.4876 -0.5400
  127MOL   O17623108   1.409   6.215   7.821  0.2305  0.1702  0.4438
  127MOL   O17723109   1.215   6.184   7.693  0.2845 -0.1022  0.5634
  127MOL   H17823110   1.478   6.232   7.387  0.8577 -1.5935  0.9180
  127MOL   H17923111   1.319   6.279   7.444  0.2460 -2.4829 -2.4510
  127MOL   H18023112   1.364   6.069   7.548  0.4444 -1.2109  0.9981
  127MOL   H18123113   1.171   6.218   7.770  0.1684 -0.9949  0.9009
  127MOL   H18223114   1.524   6.124   7.619 -0.2702  0.4128 -1.1628
  128MOL     C123115   2.155   1.463   0.641  0.0076  0.2044 -0.1955
  128MOL     C223116   2.127   1.467   0.798  0.1928 -0.1995  0.2687
  128MOL     C323117   2.172   1.330   0.860  0.2709 -0.4226  0.6765
  128MOL     O423118   2.257   1.323   0.945  0.2072 -0.0902 -0.1749
  128MOL     O523119   2.094   1.230   0.815 -0.5733  0.1512  0.2006
  128MOL     H623120   2.147   1.359   0.610  0.7849 -0.5066  1.9229
  128MOL     H723121   2.089   1.525   0.580 -0.7108  0.4181  0.7858
  128MOL     H823122   2.195   1.545   0.834  1.0378 -1.6122  1.7835
  128MOL     H923123   2.108   1.148   0.859  2.9095  1.2596  1.3063
  128MOL    H1023124   2.259   1.493   0.628 -0.0025 -0.2591 -1.4117
  128MOL    C1123125   1.987   1.488   0.840 -0.2218 -0.3448  0.1701
  128MOL    C1223126   1.922   1.627   0.830 -0.0367  0.3802 -0.1479
  128MOL    C1323127   2.011   1.717   0.911 -0.3339  0.1126 -0.2352
  128MOL    O1423128   2.094   1.794   0.857 -0.5042 -0.1633  0.2418
  128MOL    O1523129   1.997   1.713   1.045 -0.1879  0.3252 -0.0568
  128MOL    H1623130   1.974   1.452   0.942  1.8960 -0.1981  0.5310
  128MOL    H1723131   1.925   1.420   0.782 -0.6047 -1.0998  1.4488
  128MOL    H1823132   1.927   1.666   0.729  1.8636  0.7783  0.0721
  128MOL    H1923133   2.067   1.769   1.074 -0.3870  0.0234  1.0218
  128MOL    C2023134   1.775   1.629   0.887  0.0216  0.4510 -0.5127
  128MOL    C2123135   1.684   1.738   0.832 -0.7662 -0.5276  0.0886
  128MOL    C2223136   1.720   1.883   0.870  0.0576  0.2840  0.7379
  128MOL    O2323137   1.778   1.913   0.973  0.2445  0.5900  0.7906
  128MOL    O2423138   1.672   1.977   0.781  0.2639 -0.0211  0.4058
  128MOL    H2523139   1.772   1.604   0.993  0.3012 -1.0191 -0.8384
  128MOL    H2623140   1.727   1.539   0.849 -1.7824  1.0699  0.2867
  128MOL    H2723141   1.701   1.744   0.725 -0.3072  2.0609  0.2734
  128MOL    H2823142   1.698   2.059   0.821 -0.4522  0.3132  0.1785
  128MOL    C2923143   1.529   1.716   0.852  0.7644  0.5106 -0.4388
  128MOL    C3023144   1.469   1.744   0.994 -1.3323  0.4945 -0.4388
  128MOL    C3123145   1.438   1.612   1.074 -0.3414  0.8171  0.8711
  128MOL    O3223146   1.328   1.578   1.113  0.3669  0.6721 -0.6540
  128MOL    O3323147   1.549   1.535   1.077 -0.1210 -1.2359 -0.1268
  128MOL    H3423148   1.492   1.618   0.821  0.4054  0.0248  1.4312
  128MOL    H3523149   1.463   1.785   0.800  1.8163  2.1890  0.4042
  128MOL    H3623150   1.547   1.793   1.053 -1.1212 -0.5742  0.1700
  128MOL    H3723151   1.536   1.454   1.123 -1.0557 -1.5835 -0.9937
  128MOL    C3823152   1.345   1.836   1.001  0.0606  0.7931  0.1036
  128MOL    C3923153   1.380   1.983   0.993 -0.5482  0.1157  0.3262
  128MOL    C4023154   1.442   2.037   1.128 -0.3671  0.6368 -0.1829
  128MOL    O4123155   1.561   2.060   1.147 -0.2569  0.2124 -0.5814
  128MOL    O4223156   1.345   2.033   1.215  0.7610 -0.0222  1.0274
  128MOL    H4323157   1.292   1.814   1.093 -0.5502 -0.4119 -0.5204
  128MOL    H4423158   1.278   1.810   0.919 -1.1732 -0.4423  1.4665
  128MOL    H4523159   1.462   1.998   0.922 -0.0242 -0.1876  0.8680
  128MOL    H4623160   1.370   2.062   1.302 -0.1775  4.7861 -0.1848
  128MOL    C4723161   1.274   2.076   0.936  0.1869 -0.2173  0.5508
  128MOL    C4823162   1.316   2.216   0.897 -0.1205  0.2874  0.4969
  128MOL    C4923163   1.309   2.306   1.018  0.4818 -0.8090 -0.3674
  128MOL    O5023164   1.394   2.387   1.050 -0.2289  0.6004  0.9004
  128MOL    O5123165   1.196   2.285   1.090 -0.7022 -0.6817  1.0477
  128MOL    H5223166   1.186   2.065   0.999 -0.1544  0.2247  0.1486
  128MOL    H5323167   1.240   2.022   0.848  1.1574  2.6723 -1.6405
  128MOL    H5423168   1.415   2.210   0.852 -0.3694 -1.6050  0.1666
  128MOL    H5523169   1.184   2.342   1.164 -1.4100 -1.9358  1.9123
  128MOL    C5623170   1.246   2.271   0.771  0.3715  0.1874 -0.3727
  128MOL    C5723171   1.285   2.412   0.723 -0.1451  0.1851  0.2758
  128MOL    C5823172   1.176   2.470   0.636 -0.1459  0.5143 -1.1413
  128MOL    O5923173   1.086   2.409   0.578 -0.3303  0.6365  0.5358
  128MOL    O6023174   1.177   2.607   0.640 -0.0999  0.3101  0.3063
  128MOL    H6123175   1.139   2.275   0.792  0.8167  2.4652  1.7788
  128MOL    H6223176   1.254   2.204   0.685  3.4725 -1.6550  1.2275
  128MOL    H6323177   1.281   2.483   0.806 -3.0247  0.5425 -0.1040
  128MOL    H6423178   1.114   2.632   0.574 -1.3694 -1.9731  0.6157
  128MOL    C6523179   1.422   2.420   0.649 -0.3715 -0.1604 -0.4446
  128MOL    C6623180   1.539   2.492   0.720  0.6449 -0.3897 -0.8605
  128MOL    C6723181   1.508   2.641   0.751 -0.2754  0.4224 -0.4845
  128MOL    O6823182   1.469   2.722   0.669 -0.6345 -0.6206 -0.2380
  128MOL    O6923183   1.535   2.676   0.878 -0.4696  0.2087  0.2960
  128MOL    H7023184   1.412   2.478   0.557  1.0502 -1.1597 -1.2445
  128MOL    H7123185   1.445   2.327   0.598 -0.2420 -0.1909 -0.3297
  128MOL    H7223186   1.553   2.439   0.814  2.1154 -0.2099 -0.9735
  128MOL    H7323187   1.498   2.760   0.899  2.4416  1.1628  2.0007
  128MOL    C7423188   1.673   2.488   0.639  0.2217 -0.5442 -0.3589
  128MOL    C7523189   1.736   2.353   0.623 -0.5566  0.3819  0.1627
  128MOL    C7623190   1.807   2.300   0.748  0.6700 -0.4974  1.2447
  128MOL    O7723191   1.752   2.221   0.830 -0.0935 -1.5784 -0.0028
  128MOL    O7823192   1.936   2.336   0.758  0.2044 -0.0144  0.1023
  128MOL    H7923193   1.747   2.549   0.691 -1.0568 -0.9250  1.9953
  128MOL    H8023194   1.654   2.540   0.545  1.2255  2.1166  0.8623
  128MOL    H8123195   1.654   2.283   0.607 -0.1772 -0.4057  1.5499
  128MOL    H8223196   1.963   2.301   0.841 -1.5360  0.7224  1.0093
  128MOL    C8323197   1.821   2.354   0.497  0.1402  0.1511 -0.6912
  128MOL    C8423198   1.846   2.217   0.418  0.2555  0.2581  1.1039
  128MOL    C8523199   1.714   2.132   0.394  0.3917 -0.5628 -0.2696
  128MOL    O8623200   1.665   2.052   0.475  0.6626 -0.1190 -0.2103
  128MOL    O8723201   1.669   2.158   0.265 -0.2959 -0.3528  0.1349
  128MOL    H8823202   1.916   2.406   0.509  1.0884 -1.4379 -1.1152
  128MOL    H8923203   1.777   2.429   0.431 -1.6940 -0.8026 -0.5813
  128MOL    H9023204   1.880   2.247   0.319 -2.0309  0.5034  0.3609
  128MOL    H9123205   1.611   2.087   0.243 -2.0169  1.0218  0.1294
  128MOL    C9223206   1.942   2.127   0.489 -0.2998 -0.8916  0.1866
  128MOL    C9323207   1.998   2.007   0.401  0.9478  0.1659  0.4376
  128MOL    C9423208   2.091   1.916   0.483  0.5823 -0.0183  0.1256
  128MOL    O9523209   2.181   1.846   0.431 -0.2658 -0.0216 -0.4486
  128MOL    O9623210   2.067   1.922   0.617  0.1279 -0.0325  0.2289
  128MOL    H9723211   1.899   2.101   0.586 -1.3867  0.6172  0.1290
  128MOL    H9823212   2.025   2.190   0.523  0.5321 -1.8174 -0.1329
  128MOL    H9923213   1.914   1.946   0.368 -0.0385  1.6766  0.1208
  128MOL   H10023214   2.116   1.869   0.678  0.9196  0.9767  0.4826
  128MOL   C10123215   2.046   2.046   0.261 -0.0672  0.1426  0.3162
  128MOL   C10223216   2.132   2.177   0.242 -0.5608  0.2459  0.1700
  128MOL   C10323217   2.165   2.183   0.094  0.2232  0.0957 -0.4520
  128MOL   O10423218   2.091   2.229   0.012  0.0851 -0.0272 -0.7195
  128MOL   O10523219   2.269   2.108   0.057  0.2082 -0.1398  0.0963
  128MOL   H10623220   1.952   2.056   0.208  1.0496  1.0529 -1.5462
  128MOL   H10723221   2.094   1.960   0.213 -2.3861  0.0807 -1.9887
  128MOL   H10823222   2.079   2.264   0.282  1.3481  0.1978  2.9424
  128MOL   H10923223   2.275   2.127   7.818  2.9892  0.1610  0.2957
  128MOL   C11023224   2.267   2.165   0.322 -0.3828  0.1041 -0.6776
  128MOL   C11123225   2.379   2.275   0.323 -0.3715  0.5419  0.3196
  128MOL   C11223226   2.512   2.234   0.380 -0.2423 -0.1442  0.4848
  128MOL   O11323227   2.558   2.285   0.483 -0.2472  0.2396  0.3467
  128MOL   O11423228   2.570   2.138   0.305 -0.5733  0.0097 -0.1079
  128MOL   H11523229   2.317   2.074   0.286 -1.1384  0.0094 -1.5220
  128MOL   H11623230   2.237   2.154   0.426 -3.0906  1.0309 -1.3202
  128MOL   H11723231   2.403   2.311   0.223 -0.2498 -0.2263  0.0667
  128MOL   H11823232   2.644   2.092   0.342 -0.9901  0.3272  1.1614
  128MOL   C11923233   2.320   2.402   0.391  0.3322  0.2470 -0.2993
  128MOL   C12023234   2.388   2.536   0.373 -0.5930  0.1589 -1.0087
  128MOL   C12123235   2.325   2.638   0.471 -0.7019 -0.3459  0.3422
  128MOL   O12223236   2.213   2.628   0.514  0.2699 -0.4512  0.3365
  128MOL   O12323237   2.417   2.725   0.512 -0.0705 -0.1615  0.1461
  128MOL   H12423238   2.310   2.379   0.497  0.6418 -0.2753 -0.3781
  128MOL   H12523239   2.222   2.414   0.346  0.8038  0.5823 -1.2484
  128MOL   H12623240   2.484   2.526   0.423 -0.4971 -1.7491 -1.5374
  128MOL   H12723241   2.369   2.779   0.574 -0.0613  1.0331 -0.8728
  128MOL   C12823242   2.407   2.587   0.223 -0.8289 -0.1679 -0.5597
  128MOL   C12923243   2.556   2.617   0.191 -0.5141  0.5267 -0.0020
  128MOL   C13023244   2.615   2.755   0.222  0.9424  0.8655  0.0668
  128MOL   O13123245   2.552   2.862   0.219  0.3548  0.1692 -0.3130
  128MOL   O13223246   2.748   2.748   0.245  0.7322 -0.2178  0.3775
  128MOL   H13323247   2.347   2.678   0.218 -0.6228  0.0683  0.8084
  128MOL   H13423248   2.350   2.528   0.152 -3.7653 -0.0704  1.6269
  128MOL   H13523249   2.602   2.551   0.264 -1.6821 -0.7162 -0.3722
  128MOL   H13623250   2.795   2.829   0.256 -2.9143  2.1067 -0.3262
  128MOL   C13723251   2.598   2.591   0.044 -0.2306  0.5879 -0.6435
  128MOL   C13823252   2.626   2.438   0.004  0.4410  0.1811 -0.2196
  128MOL   C13923253   2.746   2.370   0.074 -0.5175 -0.4679 -0.6708
  128MOL   O14023254   2.831   2.435   0.132 -0.3625 -0.5929 -0.3789
  128MOL   O14123255   2.754   2.238   0.060  0.4801 -0.2214  0.0003
  128MOL   H14223256   2.685   2.651   0.017  0.0839  0.0714 -0.7866
  128MOL   H14323257   2.522   2.642   7.839 -1.0059 -0.1934 -0.3266
  128MOL   H14423258   2.537   2.384   0.037  0.2760  1.6181  1.8078
  128MOL   H14523259   2.833   2.211   0.104  2.0275  1.3094 -1.8006
  128MOL   C14623260   2.633   2.430   7.700  0.8591  0.2375 -0.0966
  128MOL   C14723261   2.494   2.404   7.636 -0.1416 -0.1762 -0.0598
  128MOL   C14823262   2.442   2.262   7.644  0.4518  0.3118 -0.9395
  128MOL   O14923263   2.332   2.227   7.680 -0.5193 -0.2386 -0.6541
  128MOL   O15023264   2.547   2.174   7.624  0.0329  0.1448  0.1234
  128MOL   H15123265   2.712   2.363   7.666  1.1889  0.6761 -0.1964
  128MOL   H15223266   2.681   2.521   7.664 -0.6722  0.0311 -2.7560
  128MOL   H15323267   2.433   2.469   7.700 -1.0999 -1.0698 -0.0540
  128MOL   H15423268   2.533   2.084   7.650 -0.2265  0.1875  0.1324
  128MOL   C15523269   2.490   2.458   7.484  0.3154  0.4999 -0.6318
  128MOL   C15623270   2.364   2.524   7.435  0.5120 -0.5227  0.6571
  128MOL   C15723271   2.366   2.534   7.279  0.3062  0.3485  0.2828
  128MOL   O15823272   2.459   2.525   7.205  0.6316 -0.1931  0.2411
  128MOL   O15923273   2.240   2.565   7.246  0.1512  0.5813  0.1038
  128MOL   H16023274   2.521   2.375   7.420 -0.6836 -1.2913  1.1176
  128MOL   H16123275   2.577   2.522   7.474  0.8224  0.5703  3.2269
  128MOL   H16223276   2.281   2.456   7.457 -0.1262  0.0498  0.0181
  128MOL   H16323277   2.229   2.582   7.154  0.3114  0.1587  0.0065
  128MOL   C16423278   2.336   2.667   7.497 -0.2847 -0.2851  0.2321
  128MOL   C16523279   2.436   2.780   7.465  0.5455 -0.4723 -0.2409
  128MOL   C16623280   2.475   2.868   7.588 -0.5282  0.4145 -0.5550
  128MOL   O16723281   2.397   2.946   7.641 -0.3423 -0.2436 -0.2461
  128MOL   O16823282   2.600   2.841   7.638 -0.5232 -0.3876 -0.1589
  128MOL   H16923283   2.332   2.653   7.605 -1.5472 -0.6018  0.1573
  128MOL   H17023284   2.235   2.704   7.479  0.9772  2.7847 -0.7743
  128MOL   H17123285   2.532   2.735   7.438  0.3328 -1.4371  0.5909
  128MOL   H17223286   2.616   2.907   7.703  0.9469  0.2865 -1.1819
  128MOL   C17323287   2.401   2.854   7.334  0.2089  0.0080 -0.3246
  128MOL   C17423288   2.278   2.953   7.347  0.7488 -0.4661 -0.6271
  128MOL   C17523289   2.271   3.051   7.233 -0.1122  0.1860  0.4064
  128MOL   O17623290   2.327   3.034   7.125 -0.1053  0.2715  0.1275
  128MOL   O17723291   2.196   3.157   7.266  0.3401  0.2282 -0.4218
  128MOL   H17823292   2.391   2.782   7.253 -1.2623 -0.7662  0.5270
  128MOL   H17923293   2.494   2.907   7.311  1.3041 -1.0628  1.4309
  128MOL   H18023294   2.191   2.888   7.349 -1.0201  1.7949 -1.3867
  128MOL   H18123295   2.173   3.212   7.192 -2.9357 -0.4089  0.0465
  128MOL   H18223296   2.271   3.012   7.439 -0.7877  1.2359 -1.8137
  129MOL     C123297   4.169   2.031   6.863 -0.2942  0.5001 -0.8910
  129MOL     C223298   4.295   2.065   6.959  0.5339 -0.0331 -0.0030
  129MOL     C323299   4.258   2.068   7.112 -0.2451  0.1795 -1.0694
  129MOL     O423300   4.287   2.161   7.191 -0.3530 -0.2568  0.2240
  129MOL     O523301   4.181   1.961   7.147  0.1812  0.0289 -0.2260
  129MOL     H623302   4.193   2.012   6.759 -1.8082  1.1204 -1.3596
  129MOL     H723303   4.110   1.943   6.891 -0.2587  0.7170 -0.1083
  129MOL     H823304   4.368   1.985   6.954 -0.7115 -1.2019  0.2633
  129MOL     H923305   4.166   1.967   7.240 -0.6505  1.4452 -0.4287
  129MOL    H1023306   4.094   2.109   6.860  0.1983  1.0106 -0.0532
  129MOL    C1123307   4.368   2.187   6.910 -0.4912 -0.2403 -0.6487
  129MOL    C1223308   4.414   2.200   6.764 -0.0056  0.5459  0.0385
  129MOL    C1323309   4.493   2.082   6.711  0.4504  0.3550 -0.2992
  129MOL    O1423310   4.598   2.046   6.766  0.1283  0.0291  0.2721
  129MOL    O1523311   4.439   2.022   6.601 -0.5777  0.0755  0.5154
  129MOL    H1623312   4.450   2.190   6.981 -0.2299 -0.2336 -0.9506
  129MOL    H1723313   4.301   2.271   6.929 -1.9757 -1.6937  0.8092
  129MOL    H1823314   4.322   2.203   6.705 -0.1076  0.2353  0.1806
  129MOL    H1923315   4.485   1.946   6.568  2.5923  2.5861 -1.1657
  129MOL    C2023316   4.481   2.336   6.750  0.5112 -0.2548  0.4875
  129MOL    C2123317   4.418   2.437   6.639  0.6294 -0.2105  0.6191
  129MOL    C2223318   4.489   2.416   6.502 -0.4448  0.1051 -0.7300
  129MOL    O2323319   4.557   2.504   6.460 -0.4629 -0.1587 -0.2953
  129MOL    O2423320   4.483   2.297   6.444 -0.8911 -0.8041 -0.3667
  129MOL    H2523321   4.588   2.332   6.730  0.9023 -0.6978  2.5276
  129MOL    H2623322   4.484   2.385   6.848 -0.7175 -2.9329  1.9285
  129MOL    H2723323   4.313   2.412   6.621  0.9578 -0.9565 -0.3320
  129MOL    H2823324   4.414   2.243   6.480 -0.6176 -2.0115 -1.5720
  129MOL    C2923325   4.442   2.581   6.691 -0.3578 -0.3806 -0.3731
  129MOL    C3023326   4.375   2.700   6.623 -0.1154  0.4432 -0.7239
  129MOL    C3123327   4.470   2.811   6.575  0.5785  0.1135  0.3306
  129MOL    O3223328   4.584   2.795   6.536  0.0791 -0.3674 -1.0223
  129MOL    O3323329   4.404   2.931   6.565 -0.0583  0.2000 -0.2188
  129MOL    H3423330   4.547   2.609   6.703  0.0694 -1.1754 -1.9979
  129MOL    H3523331   4.420   2.581   6.798 -1.5992 -1.4926 -0.6134
  129MOL    H3623332   4.326   2.656   6.536  1.2816 -2.0021 -0.3344
  129MOL    H3723333   4.445   2.994   6.508 -1.7610  1.6190  0.0841
  129MOL    C3823334   4.257   2.748   6.719  0.3704  0.6314 -0.4508
  129MOL    C3923335   4.141   2.644   6.738 -0.1631  0.2965  0.0320
  129MOL    C4023336   4.063   2.612   6.608 -0.4473  0.2002 -0.0221
  129MOL    O4123337   4.006   2.698   6.544 -0.0260  0.0579  0.0731
  129MOL    O4223338   4.084   2.490   6.562  0.5217  0.2615 -0.2776
  129MOL    H4323339   4.217   2.838   6.673  2.1155 -0.5903 -4.5778
  129MOL    H4423340   4.306   2.775   6.813 -0.1560 -1.5383  0.4657
  129MOL    H4523341   4.189   2.553   6.774  0.1686  0.0051 -1.1166
  129MOL    H4623342   4.055   2.489   6.472 -0.0146  3.4916 -0.1950
  129MOL    C4723343   4.036   2.702   6.846 -0.1692 -0.1740  0.0700
  129MOL    C4823344   3.963   2.590   6.925  0.1418 -0.5506  0.0007
  129MOL    C4923345   3.817   2.578   6.870  0.5199 -0.2947 -0.4480
  129MOL    O5023346   3.776   2.632   6.769  0.1705  0.8987  0.4121
  129MOL    O5123347   3.734   2.511   6.953 -0.1060  0.5195  0.2846
  129MOL    H5223348   3.967   2.774   6.802  0.6077  1.5872  1.6828
  129MOL    H5323349   4.088   2.767   6.917  1.1430 -2.4862  1.3141
  129MOL    H5423350   4.014   2.495   6.911  2.3501  0.6567 -0.2805
  129MOL    H5523351   3.641   2.507   6.936  0.2364 -1.7139 -1.2442
  129MOL    C5623352   3.955   2.613   7.076 -0.1567  1.0424  0.5992
  129MOL    C5723353   4.091   2.601   7.149  0.6345 -0.1487 -0.4073
  129MOL    C5823354   4.153   2.457   7.158  0.5177  0.3425  0.4008
  129MOL    O5923355   4.082   2.360   7.147  0.2874  0.2620  0.6724
  129MOL    O6023356   4.288   2.453   7.178 -0.0033  0.4178  0.1613
  129MOL    H6123357   3.887   2.537   7.115 -0.4701  1.2896  0.5362
  129MOL    H6223358   3.902   2.703   7.106 -0.3628  0.7999  0.9696
  129MOL    H6323359   4.167   2.668   7.108  0.8689 -0.5560 -0.6444
  129MOL    H6423360   4.316   2.363   7.188  0.3322  0.4436 -0.5516
  129MOL    C6523361   4.080   2.643   7.294 -0.4873 -0.2802 -0.4451
  129MOL    C6623362   4.073   2.802   7.317 -0.1919  0.2966 -0.4323
  129MOL    C6723363   4.212   2.862   7.309  0.0732  0.0296 -0.2569
  129MOL    O6823364   4.293   2.872   7.400  0.0213 -0.5993 -0.0182
  129MOL    O6923365   4.237   2.916   7.188  0.2859  0.1915  0.5654
  129MOL    H7023366   4.168   2.605   7.346 -1.5475 -3.3481 -0.7962
  129MOL    H7123367   3.999   2.592   7.346  0.1632 -1.1656 -0.2802
  129MOL    H7223368   4.025   2.847   7.230 -2.4988 -0.1063  0.5899
  129MOL    H7323369   4.327   2.941   7.201  0.1537 -0.4194  2.9271
  129MOL    C7423370   4.011   2.852   7.444  0.1407 -0.0466  0.4816
  129MOL    C7523371   3.855   2.857   7.447 -0.1177 -0.2098 -0.5728
  129MOL    C7623372   3.794   2.975   7.363 -0.1198 -0.4168  0.7742
  129MOL    O7723373   3.859   3.067   7.320  0.4468 -0.3414  0.4207
  129MOL    O7823374   3.658   2.967   7.355 -0.2898 -0.1330  0.3682
  129MOL    H7923375   4.049   2.937   7.500  0.8897  1.4406 -2.1998
  129MOL    H8023376   4.049   2.779   7.514 -0.9335 -2.0464 -0.9633
  129MOL    H8123377   3.818   2.772   7.389  2.1452 -0.5175 -1.6061
  129MOL    H8223378   3.630   3.039   7.302  0.5156 -0.4284 -0.4619
  129MOL    C8323379   3.787   2.843   7.589 -0.7654 -0.3430 -0.4281
  129MOL    C8423380   3.764   2.700   7.639  0.2203  0.1152  0.5841
  129MOL    C8523381   3.668   2.629   7.548 -0.0140  0.1405  0.1034
  129MOL    O8623382   3.566   2.682   7.528  0.4645 -0.1690 -0.0507
  129MOL    O8723383   3.720   2.512   7.504  0.2781 -0.3081 -0.1626
  129MOL    H8823384   3.705   2.915   7.598 -1.1903 -0.8117 -0.5135
  129MOL    H8923385   3.866   2.877   7.655  0.4409  0.3467 -2.1862
  129MOL    H9023386   3.855   2.641   7.634 -0.4989 -1.2553  2.7089
  129MOL    H9123387   3.653   2.456   7.467 -0.9115  0.4849  0.7651
  129MOL    C9223388   3.715   2.716   7.787 -0.8493 -0.5547  0.4317
  129MOL    C9323389   3.680   2.588   0.021 -0.5875  0.1212 -0.2048
  129MOL    C9423390   3.537   2.532   7.852  0.2857  0.2700 -0.2303
  129MOL    O9523391   3.446   2.571   0.065 -0.3098  0.8554 -0.0753
  129MOL    O9623392   3.529   2.444   7.749  0.2645 -0.1013 -0.0620
  129MOL    H9723393   3.622   2.773   7.791 -1.1628 -1.1222  1.4870
  129MOL    H9823394   3.794   2.772   7.836 -0.8815  1.5627 -1.8336
  129MOL    H9923395   3.757   2.513   0.005 -0.6147 -0.5490  2.5555
  129MOL   H10023396   3.443   2.411   7.727  1.1342 -0.7979 -2.6240
  129MOL   C10123397   3.689   2.627   0.178  0.1714 -0.6507 -0.8474
  129MOL   C10223398   3.825   2.656   0.244 -0.3456 -0.7480 -0.5510
  129MOL   C10323399   3.919   2.533   0.252  0.2982  0.1253  0.8113
  129MOL   O10423400   3.893   2.432   0.313  0.5596  0.0214 -0.5580
  129MOL   O10523401   4.034   2.545   0.172  0.3756  0.6099  0.3771
  129MOL   H10623402   3.654   2.545   0.242 -1.7138  0.0255 -0.9607
  129MOL   H10723403   3.629   2.713   0.206  0.1420 -0.7696 -0.5409
  129MOL   H10823404   3.873   2.734   0.183  0.0981  0.1914  0.9778
  129MOL   H10923405   4.090   2.472   0.193  0.1600  0.7831  1.5716
  129MOL   C11023406   3.812   2.705   0.394  0.6755 -0.1679 -0.4521
  129MOL   C11123407   3.927   2.777   0.471 -0.4176  0.3587 -0.7999
  129MOL   C11223408   3.921   2.744   0.624  0.6450 -0.5388 -0.5265
  129MOL   O11323409   3.961   2.644   0.681 -0.1443 -0.1729 -0.2061
  129MOL   O11423410   3.847   2.840   0.687  0.0433 -0.3815  0.0868
  129MOL   H11523411   3.772   2.625   0.457  0.3246  0.5898  0.3069
  129MOL   H11623412   3.738   2.785   0.392 -0.0184 -0.7043  1.9025
  129MOL   H11723413   4.023   2.731   0.448  0.4379  1.2243  0.9117
  129MOL   H11823414   3.853   2.836   0.781 -0.3277 -0.5267  0.1073
  129MOL   C11923415   3.935   2.929   0.439 -0.3457  0.4029 -0.7036
  129MOL   C12023416   3.971   2.979   0.299  0.0483 -0.3805 -0.1297
  129MOL   C12123417   4.105   2.923   0.250  0.0980  0.4133 -0.0173
  129MOL   O12223418   4.209   2.940   0.308  0.0534 -0.3155  0.2647
  129MOL   O12323419   4.090   2.873   0.127 -0.2952  0.2513 -0.3225
  129MOL   H12423420   3.990   2.976   0.521  0.9537  1.1623 -1.9930
  129MOL   H12523421   3.832   2.964   0.451  0.3384  2.2548  0.0138
  129MOL   H12623422   3.890   2.954   0.230 -2.6421 -0.8645  3.0396
  129MOL   H12723423   4.168   2.841   0.085 -0.9129  0.8863 -1.9784
  129MOL   C12823424   3.950   3.132   0.294 -0.8088  0.6176 -0.0790
  129MOL   C12923425   4.070   3.230   0.336  0.6604  0.4961  0.1626
  129MOL   C13023426   4.135   3.216   0.474  0.2535 -0.3295 -0.2720
  129MOL   O13123427   4.073   3.203   0.579 -0.1208 -0.1735 -0.1074
  129MOL   O13223428   4.269   3.245   0.471  0.2296 -0.0707  0.5361
  129MOL   H13323429   3.860   3.152   0.353 -0.6267  0.5183  0.2317
  129MOL   H13423430   3.918   3.150   0.191  1.1217 -0.1879 -0.8430
  129MOL   H13523431   4.154   3.214   0.269 -0.2177  1.0580 -1.0947
  129MOL   H13623432   4.297   3.254   0.561 -0.7671  0.0313  0.8362
  129MOL   C13723433   4.006   3.370   0.312  0.5108 -0.0778  0.0913
  129MOL   C13823434   4.108   3.472   0.274 -0.2246  0.3867  0.6010
  129MOL   C13923435   4.155   3.562   0.389  0.6066  0.2773  0.5694
  129MOL   O14023436   4.133   3.529   0.505 -0.0871 -0.0510 -0.0308
  129MOL   O14123437   4.243   3.663   0.365 -0.1281  0.2032  0.8203
  129MOL   H14223438   3.956   3.395   0.406  1.1427 -0.2474  0.4754
  129MOL   H14323439   3.925   3.357   0.241  0.9060 -1.3434 -0.1405
  129MOL   H14423440   4.199   3.432   0.228 -1.2065  1.3579 -2.3095
  129MOL   H14523441   4.258   3.661   0.272 -0.9604  0.5414  0.6737
  129MOL   C14623442   4.041   3.563   0.168  0.2212 -0.6490  0.0361
  129MOL   C14723443   4.081   3.524   0.025 -0.7653 -0.0092 -0.7649
  129MOL   C14823444   4.033   3.631   7.783 -0.1260  0.1912  0.1280
  129MOL   O14923445   3.932   3.701   7.798 -0.0128  0.6776  0.1830
  129MOL   O15023446   4.112   3.638   7.674  0.0927 -0.0714  0.2129
  129MOL   H15123447   4.073   3.667   0.178 -0.2426 -0.6420  1.4700
  129MOL   H15223448   3.933   3.572   0.178  0.5683  1.0611  2.9871
  129MOL   H15323449   4.190   3.530   0.020 -0.7466 -1.0927 -1.7635
  129MOL   H15423450   4.078   3.692   7.604 -1.6474 -0.2375  0.8977
  129MOL   C15523451   4.040   3.379   7.834  0.3414 -0.4215  0.2889
  129MOL   C15623452   4.088   3.317   7.701  0.2099 -0.2896  0.6598
  129MOL   C15723453   4.022   3.181   7.696  0.6269  0.1740  0.3258
  129MOL   O15823454   3.918   3.151   7.635 -0.6285 -0.2626 -0.0398
  129MOL   O15923455   4.098   3.097   7.761 -0.4854  0.4707 -0.4987
  129MOL   H16023456   3.931   3.383   7.832  0.3511  2.1672  1.9307
  129MOL   H16123457   4.057   3.306   0.060  1.6195 -0.9068 -0.4281
  129MOL   H16223458   4.046   3.367   7.615  0.1930  0.7796  1.2793
  129MOL   H16323459   4.082   3.004   7.751  0.6152  0.4903 -2.6729
  129MOL   C16423460   4.250   3.312   7.693 -0.0697 -0.2028  0.1934
  129MOL   C16523461   4.303   3.266   7.555  0.1024  0.1546 -0.4765
  129MOL   C16623462   4.443   3.210   7.561  0.1909  0.4315 -0.0910
  129MOL   O16723463   4.513   3.228   7.655 -0.3905 -0.4682 -0.1399
  129MOL   O16823464   4.475   3.130   7.459 -0.3333 -0.2066 -0.0919
  129MOL   H16923465   4.292   3.239   7.762 -0.4098 -1.9613 -1.4242
  129MOL   H17023466   4.280   3.416   7.706 -1.4612  0.1832  0.3813
  129MOL   H17123467   4.243   3.182   7.519 -2.9027  0.7181  2.9420
  129MOL   H17223468   4.563   3.099   7.470  1.0824  4.3836  2.4607
  129MOL   C17323469   4.288   3.377   7.446 -0.2721 -0.2126  0.5325
  129MOL   C17423470   4.321   3.336   7.297 -0.3056  0.4890  0.1947
  129MOL   C17523471   4.465   3.353   7.258 -0.5579  0.8210  0.4739
  129MOL   O17623472   4.530   3.457   7.288 -0.7434 -0.4281  0.1451
  129MOL   O17723473   4.509   3.247   7.192 -0.6050  0.5982  0.1617
  129MOL   H17823474   4.345   3.465   7.474 -0.0379 -0.3080  0.3547
  129MOL   H17923475   4.184   3.407   7.457 -0.2374 -0.2940  1.0673
  129MOL   H18023476   4.285   3.238   7.267 -2.3233  1.2123  0.1560
  129MOL   H18123477   4.599   3.257   7.163 -0.4563  0.5565  0.6124
  129MOL   H18223478   4.279   3.404   7.223 -0.6375 -0.2006 -0.2533
  130MOL     C123479   0.115   5.187   0.999 -0.6532 -0.5026 -0.6775
  130MOL     C223480   0.070   5.038   1.040  0.5384 -0.4611  0.8496
  130MOL     C323481   0.187   4.942   1.036 -0.2693  0.1136 -0.9046
  130MOL     O423482   0.196   4.840   1.105 -0.4515 -0.7452  0.4142
  130MOL     O523483   0.273   4.973   0.935  0.3007  0.0729  0.8162
  130MOL     H623484   0.192   5.221   1.068 -0.6566 -0.0468 -0.8942
  130MOL     H723485   0.149   5.184   0.895  2.1717  1.6294  0.1223
  130MOL     H823486   0.043   5.053   1.144 -0.4503  1.9757  0.2795
  130MOL     H923487   0.337   4.908   0.912  1.6158  0.9070  2.0401
  130MOL    H1023488   0.032   5.258   1.000 -1.1635 -1.0995  1.6838
  130MOL    C1123489   7.801   4.978   0.973 -0.6778  0.6611 -0.4177
  130MOL    C1223490   7.818   4.918   0.831 -0.8086 -0.2577 -0.1241
  130MOL    C1323491   7.844   5.030   0.730  0.0368 -0.2858  0.1435
  130MOL    O1423492   7.769   5.127   0.726 -0.5637 -0.0575  0.2593
  130MOL    O1523493   0.101   5.007   0.650  0.4293 -0.9692  0.2939
  130MOL    H1623494   7.718   5.048   0.974 -0.1548  1.2901 -0.7988
  130MOL    H1723495   7.765   4.894   1.032  1.0376  0.1581 -0.0663
  130MOL    H1823496   0.059   4.862   0.828  1.1798  2.9670 -0.1919
  130MOL    H1923497   0.092   5.082   0.592  1.1603 -2.0418 -1.2319
  130MOL    C2023498   7.697   4.830   0.789  0.3728 -0.0557  0.1081
  130MOL    C2123499   7.744   4.720   0.681 -0.2788  0.2339 -0.2259
  130MOL    C2223500   7.647   4.726   0.562 -0.2479  1.0024  0.3682
  130MOL    O2323501   7.537   4.665   0.561 -0.3129  0.3936  0.1648
  130MOL    O2423502   7.681   4.813   0.466 -0.3442  0.4089 -0.3421
  130MOL    H2523503   7.617   4.892   0.750 -1.0620 -0.9380  1.5987
  130MOL    H2623504   7.664   4.772   0.875  0.8673  0.2889  0.5303
  130MOL    H2723505   7.836   4.751   0.630 -0.2697 -0.4848 -0.6437
  130MOL    H2823506   7.622   4.820   0.393  0.6234 -0.4175 -1.2302
  130MOL    C2923507   7.756   4.582   0.753  0.1889  0.1222  0.1792
  130MOL    C3023508   0.007   4.571   0.868  0.0791 -0.3731  0.1271
  130MOL    C3123509   0.148   4.595   0.822 -0.3885  0.0232  0.0076
  130MOL    O3223510   0.172   4.618   0.708  0.3342  0.4106  0.2415
  130MOL    O3323511   0.230   4.588   0.927 -0.6642 -0.4338  0.0572
  130MOL    H3423512   7.760   4.498   0.683  3.2134  1.1761 -0.9845
  130MOL    H3523513   7.664   4.551   0.803  0.3466  0.3670  0.6166
  130MOL    H3623514   7.828   4.641   0.945  1.8824 -0.3856  0.9140
  130MOL    H3723515   0.184   4.588   1.009  1.2662 -0.3801  1.1729
  130MOL    C3823516   7.849   4.435   0.950 -0.1028  0.7259 -0.0820
  130MOL    C3923517   0.027   4.301   0.881 -0.1114  0.1032 -0.0245
  130MOL    C4023518   7.753   4.215   0.857  0.3754  0.3074  0.0802
  130MOL    O4123519   7.730   4.124   0.932 -0.4042  0.6760 -0.1263
  130MOL    O4223520   7.681   4.254   0.751 -0.1079 -0.0372 -0.0305
  130MOL    H4323521   7.740   4.437   0.961 -0.1401  0.4244 -0.4149
  130MOL    H4423522   0.046   4.434   1.047 -1.6391 -2.2216  0.7280
  130MOL    H4523523   0.052   4.324   0.777  1.2067  1.5925  0.6021
  130MOL    H4623524   7.607   4.196   0.739 -0.5304  0.6562 -0.8699
  130MOL    C4723525   0.146   4.229   0.956 -0.2186  0.2996 -0.3513
  130MOL    C4823526   0.207   4.105   0.892 -0.0286 -0.4008  0.8387
  130MOL    C4923527   0.316   4.044   0.978  0.6819 -0.1593 -0.1342
  130MOL    O5023528   0.437   4.070   0.989  0.2405  0.0153 -0.2645
  130MOL    O5123529   0.256   3.946   1.056 -0.0294 -0.7140 -0.5549
  130MOL    H5223530   0.116   4.201   1.057  0.0582  0.1319 -0.3154
  130MOL    H5323531   0.222   4.307   0.960  0.2914 -0.2446  1.1179
  130MOL    H5423532   0.128   4.030   0.896 -1.3323  0.9331  0.9484
  130MOL    H5523533   0.321   3.892   1.098  2.3763 -0.1998 -3.4443
  130MOL    C5623534   0.244   4.129   0.741 -0.4319  0.7639  0.1581
  130MOL    C5723535   0.161   4.038   0.642 -1.1485 -0.0755  0.2805
  130MOL    C5823536   0.202   3.886   0.657  0.0025  0.0259 -0.6282
  130MOL    O5923537   0.272   3.825   0.573  0.1883 -0.1552  0.7014
  130MOL    O6023538   0.139   3.826   0.763 -0.2678 -0.2270 -0.1959
  130MOL    H6123539   0.351   4.105   0.732 -0.5303  0.7091 -0.9151
  130MOL    H6223540   0.235   4.231   0.706 -1.5321  0.5514 -0.1781
  130MOL    H6323541   0.056   4.036   0.672 -1.3357  2.0651 -0.1334
  130MOL    H6423542   0.133   3.733   0.751 -1.1043 -0.0469 -1.1938
  130MOL    C6523543   0.169   4.093   0.497 -0.1396 -0.8477  0.4188
  130MOL    C6623544   0.022   4.100   0.425  0.1753 -0.2127 -0.8096
  130MOL    C6723545   7.800   3.973   0.436 -0.6398 -0.5346 -0.3057
  130MOL    O6823546   7.824   3.871   0.371 -0.4550  0.2358 -0.3285
  130MOL    O6923547   7.703   3.981   0.536 -0.3051  1.0402 -0.1634
  130MOL    H7023548   0.227   4.033   0.427 -1.6887  0.2360 -1.8443
  130MOL    H7123549   0.224   4.186   0.504  0.5380 -1.2638  0.6796
  130MOL    H7223550   7.820   4.180   0.475  1.0899 -0.0141 -0.0998
  130MOL    H7323551   7.661   3.897   0.546  1.4979 -0.0550 -1.5786
  130MOL    C7423552   0.041   4.138   0.275  0.2749 -0.2103  0.2224
  130MOL    C7523553   7.775   4.201   0.197 -0.5204 -0.7781  0.6058
  130MOL    C7623554   7.741   4.110   0.079  0.1935 -0.0175  0.4077
  130MOL    O7723555   7.798   4.119   7.827  0.5819 -0.3067  0.6030
  130MOL    O7823556   7.644   4.023   0.119  0.1193 -0.0467  0.0682
  130MOL    H7923557   0.070   4.044   0.227  0.2405 -0.4406  0.6486
  130MOL    H8023558   0.131   4.197   0.263 -0.1635  0.4417  0.1269
  130MOL    H8123559   7.680   4.213   0.248 -1.3125  2.1460 -1.4285
  130MOL    H8223560   7.628   3.964   0.047 -3.8168 -0.2569  0.9894
  130MOL    C8323561   7.808   4.348   0.151 -0.9689 -0.6853 -0.2732
  130MOL    C8423562   7.791   4.443   0.274 -0.7907  0.2352 -0.1912
  130MOL    C8523563   7.632   4.456   0.296 -0.3043  0.0705 -0.1677
  130MOL    O8623564   7.582   4.393   0.390 -0.8038  0.7679  0.6407
  130MOL    O8723565   7.564   4.545   0.218  0.1159  0.0998 -0.1519
  130MOL    H8823566   7.746   4.389   0.071 -0.2051 -1.5965 -1.3433
  130MOL    H8923567   0.058   4.347   0.114 -0.7059  0.9900  0.3500
  130MOL    H9023568   7.836   4.391   0.359 -1.7074  0.3200  0.3563
  130MOL    H9123569   7.474   4.538   0.246  0.1991  0.3738  0.1814
  130MOL    C9223570   0.015   4.579   0.269 -0.0844 -0.1014  0.2508
  130MOL    C9323571   0.162   4.583   0.211  0.3159 -0.1685  0.8478
  130MOL    C9423572   0.260   4.511   0.299 -0.0016 -0.1524  0.0439
  130MOL    O9523573   0.367   4.467   0.254 -0.6430 -0.2348 -0.1638
  130MOL    O9623574   0.226   4.509   0.429 -0.0286 -0.2005  0.3162
  130MOL    H9723575   0.021   4.614   0.372 -0.9130  0.8757 -0.0244
  130MOL    H9823576   7.807   4.659   0.226  1.0278 -0.1060 -1.3691
  130MOL    H9923577   0.151   4.529   0.116 -3.8173  2.8970 -0.5694
  130MOL   H10023578   0.291   4.464   0.482 -2.3417 -2.4129  1.4048
  130MOL   C10123579   0.211   4.723   0.160 -0.0260 -0.4143 -0.3576
  130MOL   C10223580   0.291   4.804   0.261  0.0154 -0.3479  1.3214
  130MOL   C10323581   0.202   4.855   0.379  0.5444  0.7697 -0.6312
  130MOL   O10423582   0.083   4.880   0.365  0.4140  0.0344  0.9532
  130MOL   O10523583   0.274   4.875   0.493 -0.3547  0.1532  0.2330
  130MOL   H10623584   0.135   4.776   0.103  1.1098  0.8033 -0.7645
  130MOL   H10723585   0.286   4.696   0.086 -2.0894 -3.8858 -1.3205
  130MOL   H10823586   0.386   4.759   0.289 -0.4927 -2.2710  0.0608
  130MOL   H10923587   0.204   4.892   0.554  0.2951  1.8383  0.5361
  130MOL   C11023588   0.348   4.931   0.193  0.2680  0.0682 -0.0940
  130MOL   C11123589   0.405   4.920   0.050  0.1175  0.9864 -0.4224
  130MOL   C11223590   0.530   4.823   0.040 -0.3885  0.2960  0.2500
  130MOL   O11323591   0.624   4.830   0.110 -0.0645 -0.4385  0.3585
  130MOL   O11423592   0.527   4.744   7.782 -0.2162 -0.4106  0.2156
  130MOL   H11523593   0.409   4.997   0.253  0.4250  0.4459 -0.6617
  130MOL   H11623594   0.264   4.999   0.175 -1.4974 -1.4513  2.1963
  130MOL   H11723595   0.317   4.895   7.844 -1.9467  0.3518  2.8386
  130MOL   H11823596   0.599   4.684   7.775  0.5991  0.6920 -1.0438
  130MOL   C11923597   0.445   5.057   0.002  0.3844  0.1744 -0.7350
  130MOL   C12023598   0.387   5.088   7.717 -0.6630  0.0557 -0.7907
  130MOL   C12123599   0.463   5.033   7.593  0.2135  0.1093  0.3885
  130MOL   O12223600   0.580   4.997   7.606 -0.3629  0.5882  0.1638
  130MOL   O12323601   0.396   5.033   7.474 -0.2338 -0.4167  0.0954
  130MOL   H12423602   0.552   5.076   0.016  0.0919 -0.6202  3.0852
  130MOL   H12523603   0.403   5.127   0.074  2.4825  0.3836  0.3480
  130MOL   H12623604   0.287   5.044   7.718 -0.5216 -0.2773  1.4874
  130MOL   H12723605   0.436   4.985   7.403  1.4346  0.7166  0.2551
  130MOL   C12823606   0.364   5.243   7.703 -0.0483 -0.1587  0.1674
  130MOL   C12923607   0.488   5.330   7.731  0.5641 -0.4370 -0.2808
  130MOL   C13023608   0.462   5.431   7.844 -0.5318 -0.9072  0.6048
  130MOL   O13123609   0.480   5.556   7.837  0.6875  0.5360 -0.1104
  130MOL   O13223610   0.432   5.375   0.111  0.1581  0.2417  0.1405
  130MOL   H13323611   0.283   5.268   7.772  0.2764  1.5875 -0.0646
  130MOL   H13423612   0.316   5.264   7.607 -3.4838 -0.5833  1.7104
  130MOL   H13523613   0.575   5.271   7.759 -0.0526 -1.5031 -0.5793
  130MOL   H13623614   0.433   5.441   0.180 -0.5358 -0.1213  0.5028
  130MOL   C13723615   0.537   5.393   7.598 -0.0232 -0.5524 -0.5430
  130MOL   C13823616   0.693   5.413   7.589  0.3605  1.1436 -0.4840
  130MOL   C13923617   0.752   5.519   7.685 -0.1024 -0.6178  1.2694
  130MOL   O14023618   0.830   5.505   7.779  0.3552  0.0849 -0.4279
  130MOL   O14123619   0.687   5.642   7.668  0.5186 -0.3597  0.4281
  130MOL   H14223620   0.498   5.494   7.590  0.2135 -0.4292 -0.1645
  130MOL   H14323621   0.490   5.335   7.518 -0.0534 -0.5695 -0.5126
  130MOL   H14423622   0.742   5.322   7.623 -0.8759 -0.3161 -2.4796
  130MOL   H14523623   0.725   5.707   7.726  0.0323  0.6890 -0.4114
  130MOL   C14623624   0.737   5.449   7.450  0.0773  0.1087 -0.2179
  130MOL   C14723625   0.886   5.483   7.414  0.5402  0.0935 -0.2028
  130MOL   C14823626   0.983   5.371   7.445  0.2991 -0.4517  0.6357
  130MOL   O14923627   0.993   5.270   7.381  0.3142  0.6421  0.1454
  130MOL   O15023628   1.037   5.386   7.572  0.1313 -0.4957 -0.0870
  130MOL   H15123629   0.678   5.536   7.424  0.0435  0.3047  0.5330
  130MOL   H15223630   0.701   5.381   7.372 -2.0716  1.3037 -0.2998
  130MOL   H15323631   0.884   5.484   7.305 -1.8691  1.8168 -0.1740
  130MOL   H15423632   1.085   5.305   7.579 -0.9836 -0.9842  3.1736
  130MOL   C15523633   0.941   5.613   7.457 -0.1105  0.3243 -0.0226
  130MOL   C15623634   0.861   5.735   7.418 -0.6227 -0.0252 -0.7326
  130MOL   C15723635   0.838   5.754   7.267  0.7306 -0.0872  0.2089
  130MOL   O15823636   0.723   5.756   7.218 -0.1597  0.4141 -0.4114
  130MOL   O15923637   0.947   5.782   7.194 -0.1102  0.6144 -0.0903
  130MOL   H16023638   1.033   5.623   7.400 -1.6966  0.2851 -2.6735
  130MOL   H16123639   0.981   5.624   7.558  0.4117 -1.7164  0.0034
  130MOL   H16223640   0.772   5.717   7.477 -0.2680 -0.0598 -0.2027
  130MOL   H16323641   0.919   5.813   7.109  2.9441  3.6270 -0.1107
  130MOL   C16423642   0.942   5.866   7.467 -0.0582 -0.2346 -0.3060
  130MOL   C16523643   0.924   5.892   7.619  0.4739 -0.2334  0.7290
  130MOL   C16623644   0.839   6.017   7.650  0.1386  0.2787 -1.0625
  130MOL   O16723645   0.862   6.114   7.726  0.2996  0.2939  0.4628
  130MOL   O16823646   0.722   6.012   7.583  0.5495 -0.2255  0.0334
  130MOL   H16923647   0.910   5.953   7.410 -0.9833  1.3286  2.4871
  130MOL   H17023648   1.045   5.844   7.441  0.5855  1.8088  0.4408
  130MOL   H17123649   0.873   5.804   7.658  0.0427 -0.6318 -0.7145
  130MOL   H17223650   0.686   6.099   7.582 -0.2911 -0.5611  0.9727
  130MOL   C17323651   1.062   5.887   7.692 -0.6098  0.4180 -0.3732
  130MOL   C17423652   1.123   5.745   7.723  0.1301 -0.7269  1.0465
  130MOL   C17523653   1.226   5.744   7.831 -0.1374 -0.6006  0.8824
  130MOL   O17623654   1.211   5.688   0.084  0.0757 -0.2930 -0.1173
  130MOL   O17723655   1.337   5.815   7.791 -0.0108  0.5907  0.2746
  130MOL   H17823656   1.035   5.925   7.790 -1.4017  1.1596 -0.8674
  130MOL   H17923657   1.142   5.944   7.643  1.3261  1.6635  4.0272
  130MOL   H18023658   1.046   5.679   7.763  0.1105 -1.6869 -0.5534
  130MOL   H18123659   1.403   5.821   0.005 -0.0949 -0.0674  0.4123
  130MOL   H18223660   1.172   5.702   7.636  0.2875  0.1385  0.7039
  131MOL     C123661   0.707   7.150   2.347  0.5612  0.2601 -0.1387
  131MOL     C223662   0.752   7.033   2.436  0.4244  0.2392 -0.2861
  131MOL     C323663   0.733   6.899   2.368 -0.7015  0.1813  0.1490
  131MOL     O423664   0.641   6.876   2.291 -0.8158  0.5999 -0.1535
  131MOL     O523665   0.836   6.818   2.407 -0.2031 -0.8136  0.2767
  131MOL     H623666   0.599   7.155   2.339  0.5222  0.6141  0.5836
  131MOL     H723667   0.726   7.242   2.403 -2.4355  1.7187 -1.4075
  131MOL     H823668   0.860   7.033   2.451  0.3768 -2.6940  0.3182
  131MOL     H923669   0.832   6.741   2.354  2.3106 -1.6959  1.2964
  131MOL    H1023670   0.757   7.147   2.250  0.7950 -2.0675  0.0288
  131MOL    C1123671   0.677   7.032   2.576  0.3602 -0.2079 -0.5449
  131MOL    C1223672   0.753   6.967   2.691 -0.3211  0.5157 -0.4757
  131MOL    C1323673   0.666   6.859   2.768  0.4381 -0.0922  0.2371
  131MOL    O1423674   0.672   6.739   2.753 -0.3408 -0.2522 -0.8085
  131MOL    O1523675   0.575   6.923   2.841  0.3978  1.0470 -0.2693
  131MOL    H1623676   0.582   6.980   2.564 -0.7539  1.2311  1.7088
  131MOL    H1723677   0.643   7.131   2.607  2.2259 -0.2472  1.7646
  131MOL    H1823678   0.830   6.904   2.646  0.0308  1.6180 -1.4410
  131MOL    H1923679   0.507   6.863   2.869 -0.3523  1.0250 -2.1026
  131MOL    C2023680   0.829   7.070   2.781  0.4750  0.7298 -0.7822
  131MOL    C2123681   0.972   7.110   2.723 -0.1515  1.0164  0.1679
  131MOL    C2223682   1.063   7.127   2.848  0.5609 -0.4566  0.0870
  131MOL    O2323683   1.065   7.222   2.923  0.6662  0.1354  1.1832
  131MOL    O2423684   1.154   7.022   2.862  0.8328 -0.2297 -0.3520
  131MOL    H2523685   0.826   7.022   2.878 -1.2720  1.2712 -0.5595
  131MOL    H2623686   0.777   7.164   2.800  0.0314 -0.2264  3.1652
  131MOL    H2723687   1.006   7.022   2.667  0.0963  1.7195 -0.8000
  131MOL    H2823688   1.218   7.032   2.931  0.3640  0.3869 -0.0022
  131MOL    C2923689   0.968   7.241   2.636  0.2415  0.5560 -0.5004
  131MOL    C3023690   1.093   7.277   2.550  0.2094 -0.1225  0.1478
  131MOL    C3123691   1.079   7.410   2.487 -0.4592 -0.1271  0.9215
  131MOL    O3223692   0.976   7.456   2.438 -0.2784 -0.1597 -0.5879
  131MOL    O3323693   1.195   7.480   2.503 -0.6030 -0.6427 -0.3076
  131MOL    H3423694   0.950   7.319   2.710 -2.3784 -1.4520  1.0859
  131MOL    H3523695   0.881   7.230   2.572 -0.8517 -3.4287  1.5128
  131MOL    H3623696   1.170   7.281   2.627  0.4872  0.1391 -0.1479
  131MOL    H3723697   1.187   7.569   2.475 -0.3949 -0.3683  0.4869
  131MOL    C3823698   1.134   7.160   2.448  0.0141 -0.4346  0.3241
  131MOL    C3923699   1.278   7.165   2.393  0.5415  0.5625 -1.2293
  131MOL    C4023700   1.304   7.278   2.300 -0.6424 -0.0827  0.0105
  131MOL    O4123701   1.222   7.327   2.228  0.0216  0.2539  0.0610
  131MOL    O4223702   1.437   7.310   2.294 -0.0777  0.1011  0.2319
  131MOL    H4323703   1.060   7.156   2.368 -0.3674 -1.1609  0.7073
  131MOL    H4423704   1.122   7.057   2.482 -2.7869 -0.1552  0.2445
  131MOL    H4523705   1.338   7.184   2.482  1.3693  0.3134 -1.7262
  131MOL    H4623706   1.460   7.373   2.227  1.4618 -0.6127  0.0603
  131MOL    C4723707   1.325   7.033   2.324 -0.5858  0.0755 -0.0415
  131MOL    C4823708   1.274   6.993   2.182 -0.5518  0.6246 -0.1860
  131MOL    C4923709   1.131   6.942   2.174  0.5358  0.4993  0.1245
  131MOL    O5023710   1.096   6.823   2.189  0.2839 -0.4207  0.1451
  131MOL    O5123711   1.052   7.050   2.133  0.4517  0.6711  0.0119
  131MOL    H5223712   1.329   6.958   2.403 -0.2597 -1.3351 -1.3784
  131MOL    H5323713   1.434   7.038   2.320 -0.3692 -3.8386 -0.7192
  131MOL    H5423714   1.284   7.088   2.129  3.7040  1.5700  2.1271
  131MOL    H5523715   0.961   7.025   2.130  0.5505 -0.1238  2.8723
  131MOL    C5623716   1.373   6.889   2.129 -0.4467  0.3273  0.0105
  131MOL    C5723717   1.370   6.854   1.978 -0.2714 -1.3725  0.2191
  131MOL    C5823718   1.470   6.748   1.943 -1.0792 -1.1402 -0.8489
  131MOL    O5923719   1.590   6.762   1.915 -0.3165  0.2830  0.0889
  131MOL    O6023720   1.404   6.630   1.955  0.0570 -0.0934  0.6392
  131MOL    H6123721   1.354   6.799   2.187 -0.7832  1.2292  1.3271
  131MOL    H6223722   1.472   6.925   2.155 -0.8452  0.4183  1.4514
  131MOL    H6323723   1.270   6.817   1.952 -0.0490 -2.1329  0.4244
  131MOL    H6423724   1.467   6.563   1.936 -0.8333 -0.5401 -0.9048
  131MOL    C6523725   1.392   6.993   1.904  0.0912 -0.8137 -0.4801
  131MOL    C6623726   1.264   7.044   1.834  0.5347 -0.3478 -0.2752
  131MOL    C6723727   1.207   6.961   1.724 -0.0784 -0.3304  0.1706
  131MOL    O6823728   1.268   6.880   1.653  0.2794 -0.0074  0.0793
  131MOL    O6923729   1.073   6.969   1.722 -0.0240 -0.0700 -0.2760
  131MOL    H7023730   1.468   6.997   1.826 -2.0124  0.0821 -2.5483
  131MOL    H7123731   1.407   7.077   1.972  2.3428 -1.8567  0.3712
  131MOL    H7223732   1.189   7.043   1.913  1.3482 -3.9554  0.5539
  131MOL    H7323733   1.048   6.903   1.660  1.3173  0.8662 -1.8436
  131MOL    C7423734   1.291   7.180   1.769 -0.3539 -0.2447  0.3738
  131MOL    C7523735   1.264   7.301   1.868  0.6783  0.0214 -0.0613
  131MOL    C7623736   1.114   7.337   1.880 -0.3364 -0.0845  0.0540
  131MOL    O7723737   1.032   7.337   1.791 -0.5366  0.2579  0.0236
  131MOL    O7823738   1.084   7.378   2.010 -0.1553 -0.2531 -0.9174
  131MOL    H7923739   1.235   7.201   1.678 -0.3169  0.6237  0.5463
  131MOL    H8023740   1.391   7.191   1.728 -1.0355  0.1890 -1.2277
  131MOL    H8123741   1.288   7.262   1.968  0.1307  0.2436  0.1553
  131MOL    H8223742   1.147   7.363   2.079 -0.5124  0.0451 -0.5262
  131MOL    C8323743   1.335   7.427   1.806  0.2075  0.6998  0.5780
  131MOL    C8423744   1.486   7.434   1.809 -0.3760 -1.1301  0.7970
  131MOL    C8523745   1.543   7.415   1.949 -0.0475  0.2610  0.1997
  131MOL    O8623746   1.474   7.419   2.056 -0.6526  0.7047 -0.4621
  131MOL    O8723747   1.677   7.394   1.936 -0.7418 -0.3673 -0.6718
  131MOL    H8823748   1.283   7.510   1.855  3.1028  2.4792  0.7605
  131MOL    H8923749   1.303   7.431   1.702 -2.1395 -1.7159  1.1749
  131MOL    H9023750   1.531   7.362   1.741 -0.4381 -1.6130  1.2617
  131MOL    H9123751   1.724   7.391   2.019 -1.6385 -1.4404 -0.1870
  131MOL    C9223752   1.535   7.571   1.751 -0.1856  0.8358 -0.2123
  131MOL    C9323753   1.523   7.598   1.601  0.7287 -0.7170  0.2593
  131MOL    C9423754   1.606   7.497   1.514 -0.0410  0.2756 -0.8603
  131MOL    O9523755   1.678   7.412   1.567  0.1584 -0.2121 -0.1580
  131MOL    O9623756   1.590   7.521   1.382 -0.1851 -0.1642 -0.3883
  131MOL    H9723757   1.642   7.586   1.765  0.1338 -0.8384 -0.8534
  131MOL    H9823758   1.500   7.653   1.814 -4.7511 -1.5875  0.6533
  131MOL    H9923759   1.423   7.561   1.577  0.9011 -0.2661 -1.2475
  131MOL   H10023760   1.645   7.474   1.322  0.4331 -3.6311  2.7237
  131MOL   C10123761   1.540   7.751   1.553  0.6290 -0.6167 -0.3016
  131MOL   C10223762   1.436   7.845   1.619  0.1379 -0.1788  0.0414
  131MOL   C10323763   1.294   7.825   1.554 -0.2259 -0.1373  0.1894
  131MOL   O10423764   1.272   7.742   1.472  0.2868 -0.5730  0.2522
  131MOL   O10523765   1.205   0.063   1.602 -0.4303  0.4064  0.0063
  131MOL   H10623766   1.544   7.765   1.445  1.1677  0.8304 -0.1166
  131MOL   H10723767   1.636   7.787   1.588  0.2401 -1.1468  1.3293
  131MOL   H10823768   1.427   7.822   1.725  0.7977 -0.2807  0.0779
  131MOL   H10923769   1.125   0.041   1.557  1.3476 -2.1672 -2.0890
  131MOL   C11023770   1.487   0.142   1.603  0.0439 -0.8314  0.1601
  131MOL   C11123771   1.448   0.227   1.730  0.4116  0.9311  0.0367
  131MOL   C11223772   1.474   0.374   1.698 -0.2830  0.0932  0.5824
  131MOL   O11323773   1.580   0.429   1.727  0.2100 -0.1935  0.1111
  131MOL   O11423774   1.373   0.433   1.632  0.6150 -0.1642  0.6864
  131MOL   H11523775   1.449   0.181   1.508 -1.3841 -1.7185  0.3522
  131MOL   H11623776   1.595   0.136   1.599  0.1889 -0.7522  2.9351
  131MOL   H11723777   1.341   0.221   1.750  0.4445  1.1241  0.2706
  131MOL   H11823778   1.395   0.524   1.617  1.0852 -0.7460 -2.5328
  131MOL   C11923779   1.530   0.171   1.854 -0.0818  0.2396 -0.0134
  131MOL   C12023780   1.440   0.130   1.973 -0.4354 -0.3760  1.0343
  131MOL   C12123781   1.400   0.259   2.048 -0.2656  0.1916  0.2424
  131MOL   O12223782   1.416   0.376   2.006  0.4665  0.5015  0.6804
  131MOL   O12323783   1.342   0.235   2.166 -0.6411 -0.7874 -0.1831
  131MOL   H12423784   1.607   0.242   1.887 -1.0858  1.0649  0.5844
  131MOL   H12523785   1.586   0.084   1.820 -1.8029 -1.3488  1.1000
  131MOL   H12623786   1.350   0.084   1.931  0.4539 -0.3316 -0.9952
  131MOL   H12723787   1.328   0.307   2.226  0.8863 -0.0913 -0.6355
  131MOL   C12823788   1.519   0.019   2.057  0.2411  0.0917  0.5525
  131MOL   C12923789   1.432   7.797   2.168  0.2485 -0.3939 -0.2007
  131MOL   C13023790   1.522   7.711   2.258  0.4462 -0.4444  0.8521
  131MOL   O13123791   1.646   7.708   2.255 -0.6833 -0.7103 -0.3509
  131MOL   O13223792   1.454   7.629   2.344  0.8866  0.2457  0.2305
  131MOL   H13323793   1.605   0.060   2.109  1.9680  2.0909 -3.6445
  131MOL   H13423794   1.556   7.794   1.991  0.0059 -0.3887  0.9761
  131MOL   H13523795   1.388   0.003   2.249  2.2238 -1.6119  1.8351
  131MOL   H13623796   1.508   7.573   2.398  2.8843  0.8661 -1.0310
  131MOL   C13723797   1.325   7.708   2.106 -0.6019 -0.4935  0.1771
  131MOL   C13823798   1.184   7.777   2.118 -0.3666 -0.2898  0.9643
  131MOL   C13923799   1.113   7.754   2.252 -0.3200  0.3985  0.0624
  131MOL   O14023800   1.155   7.691   2.346  0.0332  0.3818 -0.4391
  131MOL   O14123801   0.991   7.817   2.256  0.9800 -0.1944 -0.3452
  131MOL   H14223802   1.308   7.621   2.169 -1.6786  0.4915  1.2608
  131MOL   H14323803   1.355   7.681   2.004 -2.0470 -1.9447  0.1240
  131MOL   H14423804   1.205   0.030   2.107  1.2283 -0.7385 -0.5270
  131MOL   H14523805   0.952   7.797   2.340  2.7372  1.7143  0.9758
  131MOL   C14623806   1.097   7.723   2.002  0.3557  0.0539  0.6684
  131MOL   C14723807   0.990   7.821   1.942  0.3106  0.7414  0.3636
  131MOL   C14823808   0.889   7.745   1.851  0.0116  0.7172 -0.5294
  131MOL   O14923809   0.769   7.743   1.872 -0.3917 -0.0930  0.4015
  131MOL   O15023810   0.948   7.690   1.740  0.0913 -0.0967 -0.9632
  131MOL   H15123811   1.046   7.632   2.031 -0.2495  0.2410  0.1962
  131MOL   H15223812   1.163   7.699   1.918  1.3171  1.0435  1.1205
  131MOL   H15323813   0.927   7.852   2.026  0.5932 -0.2247  0.9393
  131MOL   H15423814   0.881   7.659   1.682 -0.9754  0.2828  0.0613
  131MOL   C15523815   1.042   0.096   1.881 -0.2614  0.0259  0.0351
  131MOL   C15623816   0.962   0.224   1.911  0.1036  0.4021  0.0477
  131MOL   C15723817   0.997   0.321   1.794  0.4667 -0.2000 -0.5583
  131MOL   O15823818   0.917   0.357   1.712 -0.0307  0.7110 -0.4363
  131MOL   O15923819   1.121   0.361   1.809  0.1099 -0.4445 -0.3124
  131MOL   H16023820   1.045   0.069   1.776 -0.0890  0.4716 -0.0786
  131MOL   H16123821   1.148   0.111   1.902 -0.0844  1.7317 -1.8973
  131MOL   H16223822   0.854   0.208   1.908  0.0879  0.6638 -0.9730
  131MOL   H16323823   1.170   0.386   1.732  1.3052 -2.8539 -0.3798
  131MOL   C16423824   0.996   0.296   2.041  0.0264 -0.6164  0.0504
  131MOL   C16523825   0.940   0.442   2.051 -0.2615  0.4912  1.0822
  131MOL   C16623826   1.009   0.504   2.176  0.0463  0.3456 -0.6922
  131MOL   O16723827   0.999   0.454   2.287 -0.4177  0.6692 -0.2530
  131MOL   O16823828   1.076   0.620   2.148 -0.1039  0.3330 -0.0628
  131MOL   H16923829   1.104   0.307   2.047  0.0132  0.6179 -1.5979
  131MOL   H17023830   0.970   0.233   2.126 -4.2507  0.8359 -0.0793
  131MOL   H17123831   0.992   0.503   1.978 -1.6433  3.3065  2.3715
  131MOL   H17223832   1.099   0.646   2.236  1.2474 -1.0328  0.0063
  131MOL   C17323833   0.782   0.465   2.044 -0.5900  0.4394  0.0237
  131MOL   C17423834   0.717   0.520   1.913  0.2895 -0.3152 -0.0367
  131MOL   C17523835   0.617   0.418   1.839  0.0172 -0.5243  0.4654
  131MOL   O17623836   0.564   0.315   1.882  0.5476  0.2989  0.2847
  131MOL   O17723837   0.594   0.474   1.715  0.2080  0.0198 -0.3406
  131MOL   H17823838   0.751   0.526   2.128  0.1374  1.6324 -0.5594
  131MOL   H17923839   0.726   0.380   2.082 -3.1024  1.8085 -0.5288
  131MOL   H18023840   0.664   0.609   1.947 -1.6804 -2.1353  1.8330
  131MOL   H18123841   0.547   0.406   1.669  1.3970 -0.2158 -1.2230
  131MOL   H18223842   0.791   0.555   1.841 -1.0035 -0.9927 -1.7470
  132MOL     C123843   1.849   4.423   3.258 -0.3070  0.0971  0.3473
  132MOL     C223844   1.991   4.381   3.295  0.4083  0.3603  0.4420
  132MOL     C323845   2.051   4.261   3.228 -0.3429  0.1472  0.2729
  132MOL     O423846   2.080   4.158   3.284  0.4988  0.1134 -0.6637
  132MOL     O523847   2.057   4.275   3.089 -0.5572  0.2230  0.2379
  132MOL     H623848   1.768   4.370   3.309 -0.1280 -0.9182 -0.4087
  132MOL     H723849   1.827   4.523   3.296 -1.8384  0.1231 -0.5552
  132MOL     H823850   2.057   4.462   3.264  1.4792 -0.7952 -0.3251
  132MOL     H923851   2.082   4.188   3.061 -1.9708 -0.4765  1.0660
  132MOL    H1023852   1.828   4.414   3.152  0.0900 -0.8844  0.3482
  132MOL    C1123853   2.001   4.381   3.448  0.4554  0.4718 -0.1262
  132MOL    C1223854   2.140   4.360   3.512 -0.2508 -0.6536 -0.4459
  132MOL    C1323855   2.125   4.325   3.661  0.2935 -0.0113  1.0038
  132MOL    O1423856   2.183   4.230   3.718 -0.9350 -0.6570  0.0271
  132MOL    O1523857   2.039   4.409   3.725  0.2205  0.6477  0.1721
  132MOL    H1623858   1.922   4.316   3.486  0.3341  1.0514  0.6029
  132MOL    H1723859   1.961   4.477   3.478  1.1644  0.9212 -0.6133
  132MOL    H1823860   2.184   4.273   3.462 -1.9002 -0.9653 -1.3992
  132MOL    H1923861   2.053   4.417   3.818  0.9280 -0.5994  0.1744
  132MOL    C2023862   2.231   4.488   3.497  0.0739  0.2315  0.2324
  132MOL    C2123863   2.331   4.469   3.393 -0.2859 -0.3935  0.4599
  132MOL    C2223864   2.443   4.362   3.424  0.1816  0.4655 -0.0602
  132MOL    O2323865   2.447   4.248   3.375 -0.6725  0.5215  0.6131
  132MOL    O2423866   2.533   4.409   3.517  0.2816  0.6783  0.2096
  132MOL    H2523867   2.268   4.527   3.592 -2.5203  2.5671  0.3585
  132MOL    H2623868   2.164   4.573   3.484  1.5112  1.2164 -0.9163
  132MOL    H2723869   2.291   4.431   3.298  0.2418  1.9058 -0.7145
  132MOL    H2823870   2.592   4.336   3.527  0.5712  0.6697 -1.3435
  132MOL    C2923871   2.392   4.612   3.358  0.6458  0.4589 -0.0028
  132MOL    C3023872   2.297   4.686   3.257  0.4383 -1.0364 -0.3290
  132MOL    C3123873   2.326   4.633   3.112  0.9933  0.3723 -0.8673
  132MOL    O3223874   2.389   4.530   3.094 -0.0191  0.1139  0.5286
  132MOL    O3323875   2.272   4.703   3.014 -0.3742 -0.3464 -0.1577
  132MOL    H3423876   2.497   4.612   3.326  0.4707 -0.2585 -0.5887
  132MOL    H3523877   2.405   4.663   3.453 -1.4261  0.1826  0.4528
  132MOL    H3623878   2.190   4.673   3.275  0.1259 -0.1094 -1.4536
  132MOL    H3723879   2.316   4.678   2.934  2.0190 -1.4540  1.4525
  132MOL    C3823880   2.301   4.841   3.245  0.2758 -0.5415  0.7137
  132MOL    C3923881   2.171   4.916   3.215 -0.1679 -0.1607  0.1897
  132MOL    C4023882   2.194   5.041   3.132 -0.0239 -0.3727  0.2589
  132MOL    O4123883   2.153   5.053   3.014  0.0588 -0.1358  0.3403
  132MOL    O4223884   2.233   5.140   3.215  0.4981 -0.1437 -0.0987
  132MOL    H4323885   2.368   4.867   3.163  0.8039  0.0150  1.3102
  132MOL    H4423886   2.339   4.885   3.338 -3.1171 -0.2439  2.0367
  132MOL    H4523887   2.128   4.849   3.140  1.9827 -2.2128  0.7122
  132MOL    H4623888   2.209   5.223   3.175  0.8912 -0.1977 -0.4546
  132MOL    C4723889   2.062   4.925   3.329 -0.9385 -0.2359 -0.0528
  132MOL    C4823890   2.091   5.002   3.461  1.1632 -0.4476  0.1796
  132MOL    C4923891   2.189   4.921   3.550  0.0676  0.0298  0.1744
  132MOL    O5023892   2.163   4.816   3.609  0.1210  0.0401  0.2494
  132MOL    O5123893   2.294   4.999   3.576 -0.0037  0.5444 -0.1487
  132MOL    H5223894   2.053   4.822   3.363  1.7639  0.0099  1.5517
  132MOL    H5323895   1.965   4.948   3.284 -0.7717  2.6508  0.9745
  132MOL    H5423896   2.125   5.101   3.428  0.3074 -0.4061 -0.6064
  132MOL    H5523897   2.343   4.976   3.653 -0.1129  0.9557  0.0431
  132MOL    C5623898   1.950   5.015   3.539 -0.0150 -0.1771 -0.1606
  132MOL    C5723899   1.949   5.118   3.655 -0.5576 -0.2251 -0.2509
  132MOL    C5823900   1.966   5.259   3.607  0.2735 -0.0387 -0.3094
  132MOL    O5923901   2.066   5.334   3.633  0.1025  0.7527  0.0023
  132MOL    O6023902   1.865   5.301   3.520  0.0759  0.3984  0.1667
  132MOL    H6123903   1.916   4.920   3.577  2.7758 -1.8717 -1.6984
  132MOL    H6223904   1.874   5.041   3.465 -0.2011 -0.9788 -0.2450
  132MOL    H6323905   1.849   5.114   3.697  0.4290 -0.1478  2.2212
  132MOL    H6423906   1.786   5.251   3.514  0.8947 -1.3631  2.9463
  132MOL    C6523907   2.044   5.086   3.772 -0.1201 -0.2440 -0.6215
  132MOL    C6623908   2.010   5.151   3.913 -0.4797  0.2531 -0.1768
  132MOL    C6723909   2.143   5.202   3.970 -0.0546 -0.4138 -0.8113
  132MOL    O6823910   2.237   5.129   4.014  0.0395 -0.6197 -0.3182
  132MOL    O6923911   2.147   5.339   3.967 -0.5308 -0.8901  0.6806
  132MOL    H7023912   2.146   5.108   3.740  0.0731 -2.5038 -1.6515
  132MOL    H7123913   2.036   4.978   3.791 -1.4929 -0.3707 -1.8297
  132MOL    H7223914   1.947   5.239   3.900  0.0766  0.6086 -0.5010
  132MOL    H7323915   2.224   5.358   4.018  0.9660 -1.7828 -1.1768
  132MOL    C7423916   1.935   5.062   4.008 -0.3162  0.9237 -0.8578
  132MOL    C7523917   1.797   5.007   3.967  0.0082  0.4150 -0.3513
  132MOL    C7623918   1.700   5.130   3.939 -0.0227  1.0613 -0.0558
  132MOL    O7723919   1.711   5.244   3.980 -0.7076  0.3438  0.2365
  132MOL    O7823920   1.583   5.080   3.893 -0.4364  0.0500 -0.0894
  132MOL    H7923921   1.934   5.111   4.106  1.7063  0.2084 -0.4660
  132MOL    H8023922   2.006   4.981   4.021  1.8219  2.7825 -0.5789
  132MOL    H8123923   1.814   4.945   3.879 -2.2210  0.0601 -0.5666
  132MOL    H8223924   1.500   5.124   3.896  0.1441  1.0685  2.1951
  132MOL    C8323925   1.746   4.912   4.084 -0.2952 -0.1057  0.0949
  132MOL    C8423926   1.646   4.804   4.035 -0.4539 -0.4769 -0.3677
  132MOL    C8523927   1.560   4.742   4.148  0.0441  0.5476 -0.7300
  132MOL    O8623928   1.607   4.692   4.252  0.1871  0.5526 -0.3383
  132MOL    O8723929   1.425   4.747   4.134 -0.3627 -1.0896 -0.1072
  132MOL    H8823930   1.703   4.983   4.155  0.8117  1.4875 -0.7873
  132MOL    H8923931   1.836   4.868   4.126 -0.4127  0.1448  0.6250
  132MOL    H9023932   1.560   4.846   3.983 -1.5133 -1.2404  0.7073
  132MOL    H9123933   1.384   4.697   4.202 -0.5469 -2.1123 -0.9698
  132MOL    C9223934   1.716   4.701   3.946  0.6087 -0.1844 -0.3888
  132MOL    C9323935   1.647   4.662   3.818  0.8606  0.0914  0.6541
  132MOL    C9423936   1.740   4.549   3.757 -0.0041  0.6870 -0.1050
  132MOL    O9523937   1.717   4.430   3.755 -0.1755 -0.3675 -0.0269
  132MOL    O9623938   1.849   4.609   3.700 -0.4435 -0.0938 -0.2316
  132MOL    H9723939   1.744   4.615   4.007 -2.0006  0.0060  1.1432
  132MOL    H9823940   1.817   4.735   3.922  0.4280  1.0261  0.5384
  132MOL    H9923941   1.550   4.623   3.848  0.3231  0.5704 -0.4163
  132MOL   H10023942   1.907   4.543   3.665  0.0297 -0.4900  1.2684
  132MOL   C10123943   1.620   4.786   3.726 -0.5494 -0.1880 -0.6760
  132MOL   C10223944   1.575   4.775   3.577 -0.0920  0.1385 -0.1936
  132MOL   C10323945   1.564   4.919   3.501  0.3587 -0.0276 -0.0844
  132MOL   O10423946   1.621   5.017   3.543 -0.3577 -0.0825  0.3608
  132MOL   O10523947   1.503   4.902   3.380 -0.2239  0.3081  0.1567
  132MOL   H10623948   1.717   4.834   3.711 -0.4792 -0.3795 -0.8319
  132MOL   H10723949   1.562   4.864   3.775 -0.1878  0.0461 -0.6167
  132MOL   H10823950   1.656   4.729   3.521 -0.5633  0.0126 -0.7689
  132MOL   H10923951   1.511   4.989   3.344 -0.2308  0.4990  0.6165
  132MOL   C11023952   1.448   4.692   3.565  0.0695 -0.1527 -0.1662
  132MOL   C11123953   1.464   4.559   3.489 -0.2282 -0.4936 -0.6366
  132MOL   C11223954   1.460   4.575   3.341 -0.3445  0.0804 -0.1094
  132MOL   O11323955   1.388   4.650   3.278  0.1082  0.4204 -0.3349
  132MOL   O11423956   1.544   4.482   3.282  0.3520 -0.4766  0.0778
  132MOL   H11523957   1.372   4.753   3.517 -0.1473  0.8827  1.4292
  132MOL   H11623958   1.395   4.683   3.660 -1.9777 -0.3286 -1.3181
  132MOL   H11723959   1.560   4.521   3.524 -0.7685 -0.6308  0.7251
  132MOL   H11823960   1.527   4.485   3.189  1.3776 -1.9087 -0.1759
  132MOL   C11923961   1.358   4.456   3.534  0.4222  0.6749 -0.6957
  132MOL   C12023962   1.365   4.321   3.467 -0.0859  0.0332 -0.7647
  132MOL   C12123963   1.250   4.232   3.517 -0.1046 -0.0604  0.5417
  132MOL   O12223964   1.269   4.137   3.590  0.0546  0.1336  0.0466
  132MOL   O12323965   1.129   4.290   3.485  0.6753  0.5339 -0.0115
  132MOL   H12423966   1.256   4.491   3.515 -0.2120 -1.9086 -2.4242
  132MOL   H12523967   1.363   4.439   3.642 -0.8007 -0.2979 -0.7631
  132MOL   H12623968   1.338   4.344   3.364 -0.5382 -3.3752 -1.4921
  132MOL   H12723969   1.070   4.236   3.536  1.0664 -1.2733 -1.4224
  132MOL   C12823970   1.504   4.244   3.494 -0.4615  0.1641  0.0048
  132MOL   C12923971   1.544   4.122   3.404 -0.3735 -0.6143  0.5546
  132MOL   C13023972   1.695   4.088   3.433 -0.2962 -0.0547 -0.5861
  132MOL   O13123973   1.783   4.074   3.352 -0.3262 -0.2152  0.2283
  132MOL   O13223974   1.716   4.076   3.566 -0.1661  0.6160  0.2709
  132MOL   H13323975   1.518   4.213   3.598  2.5585 -2.2713 -1.0716
  132MOL   H13423976   1.576   4.325   3.480  0.3614 -0.5563  0.0763
  132MOL   H13523977   1.487   4.032   3.423 -0.5013 -0.1218  2.6384
  132MOL   H13623978   1.795   4.030   3.590 -0.0130  1.2326  0.9707
  132MOL   C13723979   1.533   4.155   3.252 -0.3668 -0.9425  0.7923
  132MOL   C13823980   1.555   4.039   3.150  0.2251 -0.3247  0.3497
  132MOL   C13923981   1.653   4.082   3.035  0.2511  0.2826  0.4702
  132MOL   O14023982   1.620   4.093   2.917  0.8338  1.0341 -0.3266
  132MOL   O14123983   1.777   4.104   3.078 -0.4765 -0.8442 -0.2477
  132MOL   H14223984   1.606   4.234   3.233 -0.8550  0.7900  5.4936
  132MOL   H14323985   1.434   4.199   3.247 -0.3149 -0.8560  0.5003
  132MOL   H14423986   1.594   3.950   3.201  0.8089  2.0546  4.2312
  132MOL   H14523987   1.785   4.099   3.172 -0.5711  1.8814 -0.0360
  132MOL   C14623988   1.409   4.004   3.098  0.2860  0.3827 -0.2582
  132MOL   C14723989   1.319   3.927   3.187 -0.2737  0.1254 -0.0272
  132MOL   C14823990   1.363   3.786   3.218 -0.1870 -0.5821  0.4701
  132MOL   O14923991   1.456   3.725   3.164 -0.0376  0.5648  0.1753
  132MOL   O15023992   1.280   3.719   3.295 -0.3163  0.5075 -0.2204
  132MOL   H15123993   1.421   3.943   3.008  1.0217  1.4032 -0.8601
  132MOL   H15223994   1.361   4.094   3.060  3.0386  1.4357 -1.3846
  132MOL   H15323995   1.320   3.973   3.285  0.4164  1.1754 -0.5178
  132MOL   H15423996   1.314   3.633   3.314  3.5566  1.7104 -1.1825
  132MOL   C15523997   1.178   3.925   3.126 -0.5691  1.7827 -0.4707
  132MOL   C15623998   1.068   3.998   3.217 -0.0760 -0.4894  1.0243
  132MOL   C15723999   1.012   3.911   3.324  0.0893  0.0668 -0.3806
  132MOL   O15824000   0.896   3.863   3.327 -0.3606 -0.4827 -0.2638
  132MOL   O15924001   1.102   3.909   3.428 -0.5893 -0.3831 -0.0148
  132MOL   H16024002   1.135   3.829   3.098 -1.5383  2.2254 -0.5237
  132MOL   H16124003   1.183   3.981   3.032  1.5231  1.9098 -0.2933
  132MOL   H16224004   1.131   4.072   3.266  1.2491 -0.8642 -0.0766
  132MOL   H16324005   1.077   3.846   3.494 -0.0758 -1.5428 -0.9019
  132MOL   C16424006   0.954   4.067   3.136 -0.6026 -0.3383 -0.6005
  132MOL   C16524007   0.921   4.211   3.181 -0.0006 -0.8955 -0.1579
  132MOL   C16624008   0.785   4.254   3.127  0.4153 -0.9193  0.3330
  132MOL   O16724009   0.715   4.194   3.048 -0.2402 -0.4091  1.1143
  132MOL   O16824010   0.744   4.375   3.176  0.3937 -0.0836  0.2210
  132MOL   H16924011   0.867   4.004   3.150 -2.3166  2.2899  1.2417
  132MOL   H17024012   0.971   4.059   3.029 -0.7878 -0.7553 -0.5987
  132MOL   H17124013   0.904   4.210   3.288  0.0424 -0.3916 -0.1438
  132MOL   H17224014   0.663   4.405   3.137  0.8087  1.0108  0.1862
  132MOL   C17324015   1.031   4.312   3.135 -0.5967  0.1992  0.2067
  132MOL   C17424016   1.031   4.453   3.196 -0.1242 -0.1898  0.0015
  132MOL   C17524017   0.979   4.573   3.114 -0.0185  0.0469 -0.0271
  132MOL   O17624018   0.975   4.574   2.990  0.2325 -0.0412 -0.0849
  132MOL   O17724019   0.927   4.670   3.194  0.1512 -0.3614 -0.0919
  132MOL   H17824020   1.032   4.328   3.028 -0.1501  1.1934  0.3581
  132MOL   H17924021   1.133   4.279   3.156 -0.0826  2.6405  1.7095
  132MOL   H18024022   1.004   4.447   3.301  0.1365 -0.0975  0.0740
  132MOL   H18124023   0.882   4.739   3.147  1.0896  0.2002 -0.1982
  132MOL   H18224024   1.136   4.480   3.193  0.1682 -1.3862 -0.7129
  133MOL     C124025   0.342   6.383   5.722 -0.2383 -0.2179 -1.1770
  133MOL     C224026   0.390   6.436   5.587  0.4342 -0.5166  0.1653
  133MOL     C324027   0.523   6.374   5.540 -0.5835 -0.1190 -0.1237
  133MOL     O424028   0.601   6.309   5.614  0.2030  0.0255 -0.7193
  133MOL     O524029   0.541   6.397   5.411  0.3996 -0.1415  0.9620
  133MOL     H624030   0.336   6.274   5.720  1.4180 -0.3352 -1.0399
  133MOL     H724031   0.422   6.416   5.789  0.2288 -3.4269 -0.0586
  133MOL     H824032   0.314   6.407   5.514  0.5878  1.7784 -0.9736
  133MOL     H924033   0.626   6.363   5.391 -1.0111 -3.2422 -0.0639
  133MOL    H1024034   0.249   6.428   5.757  0.6369  0.8936 -0.2198
  133MOL    C1124035   0.414   6.591   5.586 -0.1873  0.8129 -0.2211
  133MOL    C1224036   0.311   6.684   5.656  1.2451 -0.2832 -0.5559
  133MOL    C1324037   0.166   6.657   5.605 -0.6458  0.3322 -0.4176
  133MOL    O1424038   0.090   6.581   5.666  0.2313 -0.4012 -0.1607
  133MOL    O1524039   0.141   6.714   5.489 -0.2047  0.0037  0.0198
  133MOL    H1624040   0.402   6.615   5.480 -3.7011  1.7229  0.3175
  133MOL    H1724041   0.514   6.621   5.618 -0.2581  2.0772 -1.1407
  133MOL    H1824042   0.313   6.669   5.763  0.8785 -0.0833 -0.5210
  133MOL    H1924043   0.050   6.700   5.466  0.2885 -0.4916 -1.6684
  133MOL    C2024044   0.351   6.834   5.656 -0.8019 -0.5751  0.0243
  133MOL    C2124045   0.312   6.912   5.787  0.2937  0.5997  0.0718
  133MOL    C2224046   0.161   6.930   5.804  0.0878  0.0617 -0.2976
  133MOL    O2324047   0.083   6.989   5.733 -0.2994 -0.0932  0.2657
  133MOL    O2424048   0.118   6.846   5.898 -0.5222 -0.3758  0.3136
  133MOL    H2524049   0.326   6.897   5.570  0.6135  0.1210  0.1004
  133MOL    H2624050   0.460   6.824   5.650 -0.7515 -1.7990  2.4715
  133MOL    H2724051   0.345   6.860   5.877 -1.4342 -0.1379  0.3059
  133MOL    H2824052   0.026   6.853   5.920 -0.4686  1.0420  0.1318
  133MOL    C2924053   0.387   7.053   5.780 -0.1866  0.0832  0.0060
  133MOL    C3024054   0.408   7.134   5.907  0.3585 -0.4403 -1.2867
  133MOL    C3124055   0.298   7.238   5.928  0.6604  0.2583 -1.0280
  133MOL    O3224056   0.218   7.276   5.846  0.9424  0.0997  0.1171
  133MOL    O3324057   0.283   7.265   6.062 -0.0377  0.0680 -0.4673
  133MOL    H3424058   0.354   7.111   5.694  1.4556 -0.3957 -0.9662
  133MOL    H3524059   0.484   7.028   5.737 -1.3061 -0.1707 -2.4514
  133MOL    H3624060   0.411   7.062   5.989 -1.0516 -0.9071 -1.6167
  133MOL    H3724061   0.233   7.345   6.069  2.5210  1.5293  1.7330
  133MOL    C3824062   0.539   7.214   5.879  0.1678  0.7234  0.5767
  133MOL    C3924063   0.589   7.319   5.978  0.1130  0.1860 -0.4598
  133MOL    C4024064   0.706   7.392   5.910 -0.1267 -0.0563  0.4827
  133MOL    O4124065   0.788   7.329   5.849 -0.3714  0.1259 -0.1477
  133MOL    O4224066   0.707   7.530   5.912 -0.1687 -0.0018 -0.4466
  133MOL    H4324067   0.512   7.274   5.792 -1.3985  2.0010  1.9186
  133MOL    H4424068   0.619   7.148   5.844  1.4264  1.3751  2.1765
  133MOL    H4524069   0.509   7.392   5.991 -2.5148 -2.3797 -1.5165
  133MOL    H4624070   0.775   7.573   5.863 -1.0843  2.4468  0.3406
  133MOL    C4724071   0.639   7.242   6.104 -0.4259 -0.3892  1.1747
  133MOL    C4824072   0.688   7.313   6.232 -0.4481 -0.1992  0.8426
  133MOL    C4924073   0.599   7.431   6.269 -0.4680 -0.4911 -0.1938
  133MOL    O5024074   0.620   7.551   6.247 -0.6062  0.2918 -0.3366
  133MOL    O5124075   0.481   7.379   6.318 -0.6752 -0.5315 -0.8551
  133MOL    H5224076   0.724   7.185   6.066 -0.5494 -0.2726  0.7167
  133MOL    H5324077   0.571   7.160   6.127  0.2613 -1.0993  0.7244
  133MOL    H5424078   0.673   7.230   6.300 -1.7034 -0.7861 -0.1454
  133MOL    H5524079   0.413   7.440   6.341 -1.4328 -2.2711  1.6033
  133MOL    C5624080   0.837   7.362   6.214 -1.0010  0.5969  0.2507
  133MOL    C5724081   0.916   7.407   6.343  0.1052 -1.0997  0.9120
  133MOL    C5824082   1.049   7.455   6.298 -0.1501  0.3295 -0.3633
  133MOL    O5924083   1.126   7.405   6.211  0.3739 -0.0584  0.5151
  133MOL    O6024084   1.086   7.563   6.377 -0.2517 -0.1375  0.1099
  133MOL    H6124085   0.843   7.435   6.133 -4.8114 -0.7956 -1.3699
  133MOL    H6224086   0.883   7.270   6.178 -0.4699  1.1053 -0.3697
  133MOL    H6324087   0.868   7.500   6.372  1.1191  1.3475 -4.5762
  133MOL    H6424088   1.175   7.594   6.371 -0.7990  0.9583 -3.6149
  133MOL    C6524089   0.917   7.305   6.454  0.4911  0.6076 -0.2683
  133MOL    C6624090   0.798   7.313   6.552  0.3300  0.2701  0.0549
  133MOL    C6724091   0.790   7.446   6.619 -0.4816  0.4039  0.4522
  133MOL    O6824092   0.883   7.507   6.649  0.2277 -0.2741 -0.0569
  133MOL    O6924093   0.662   7.499   6.626 -0.0554 -0.5337  0.3782
  133MOL    H7024094   1.007   7.292   6.515 -0.5085 -3.3629  0.5273
  133MOL    H7124095   0.914   7.209   6.402  2.5386 -0.2052  1.0432
  133MOL    H7224096   0.705   7.307   6.496  0.9694  0.1943 -1.0168
  133MOL    H7324097   0.670   7.585   6.665  1.6297 -0.4951 -0.0161
  133MOL    C7424098   0.794   7.202   6.654  0.1910  0.2104  0.3311
  133MOL    C7524099   0.659   7.125   6.662 -0.2918 -0.7382  0.3620
  133MOL    C7624100   0.650   7.058   6.800  0.2125 -0.2041 -0.1308
  133MOL    O7724101   0.674   6.939   6.834  0.9578  0.0905  0.0453
  133MOL    O7824102   0.628   7.152   6.893 -0.1162 -0.1119 -0.3839
  133MOL    H7924103   0.819   7.243   6.752  0.9362 -2.0867  1.1483
  133MOL    H8024104   0.877   7.131   6.650  0.8620  0.9886  0.2177
  133MOL    H8124105   0.575   7.194   6.651  0.0674 -0.5014 -0.8476
  133MOL    H8224106   0.659   7.110   6.971 -0.0379  1.4547  0.4468
  133MOL    C8324107   0.657   7.028   6.543 -0.2643 -0.7600  0.4573
  133MOL    C8424108   0.520   6.964   6.511 -0.4720 -0.1688  0.7234
  133MOL    C8524109   0.533   6.862   6.398  0.1879  0.4383 -0.5822
  133MOL    O8624110   0.608   6.876   6.301 -0.1956  0.1882 -0.2832
  133MOL    O8724111   0.449   6.757   6.424  0.5769 -0.5534 -0.3234
  133MOL    H8824112   0.726   6.949   6.575  1.9606  1.1433  0.4764
  133MOL    H8924113   0.701   7.070   6.453 -0.8229 -1.3308 -0.0929
  133MOL    H9024114   0.488   6.908   6.599  1.3492 -2.5340 -0.0840
  133MOL    H9124115   0.426   6.687   6.364 -1.0670 -0.2746 -0.0658
  133MOL    C9224116   0.416   7.068   6.468  0.2495  0.2340 -0.0231
  133MOL    C9324117   0.271   7.019   6.480 -0.2135  0.2408  0.4436
  133MOL    C9424118   0.163   7.098   6.392 -0.2587 -0.5686 -0.3608
  133MOL    O9524119   0.063   7.155   6.435  0.0372  0.5974 -0.6097
  133MOL    O9624120   0.183   7.067   6.262 -0.1819  0.5037  1.1130
  133MOL    H9724121   0.428   7.104   6.366 -1.9042  2.3540  0.4240
  133MOL    H9824122   0.428   7.163   6.520 -1.9594  1.7046 -2.1266
  133MOL    H9924123   0.265   6.917   6.441  0.7201  1.5959 -3.5400
  133MOL   H10024124   0.121   7.114   6.209  0.1092  0.5385  0.8031
  133MOL   C10124125   0.224   7.011   6.629 -0.2785  0.1782  0.3343
  133MOL   C10224126   0.131   6.891   6.657  0.6634 -0.1074 -0.4984
  133MOL   C10324127   7.838   6.933   6.654  0.2419  0.4090 -0.0832
  133MOL   O10424128   7.802   7.036   6.711  0.2343  0.1196  0.1932
  133MOL   O10524129   7.765   6.857   6.570 -0.4068  0.3123 -0.8953
  133MOL   H10624130   0.185   7.105   6.667 -1.1768  0.1686 -0.5437
  133MOL   H10724131   0.311   7.008   6.695 -1.0375 -1.3559  1.2732
  133MOL   H10824132   0.138   6.811   6.584  1.4361 -0.1575 -0.3754
  133MOL   H10924133   7.686   6.910   6.566 -0.2446  0.5411 -1.1087
  133MOL   C11024134   0.156   6.839   6.797 -0.0818 -0.5383  0.1826
  133MOL   C11124135   0.293   6.773   6.831 -0.2546 -0.3190 -0.2101
  133MOL   C11224136   0.333   6.675   6.719 -0.0283 -0.3730  0.4225
  133MOL   O11324137   0.255   6.609   6.644 -0.0734  0.5856  0.1429
  133MOL   O11424138   0.470   6.664   6.709  0.7977  0.2841 -0.2550
  133MOL   H11524139   0.078   6.769   6.825 -1.9277  1.6235  0.6472
  133MOL   H11624140   0.141   6.928   6.859  0.4531  0.5887 -1.2544
  133MOL   H11724141   0.369   6.849   6.852 -1.6175  0.3051  2.7436
  133MOL   H11824142   0.491   6.615   6.631 -0.4708 -2.1445  0.8682
  133MOL   C11924143   0.264   6.699   6.965  0.1075 -0.0966  0.3009
  133MOL   C12024144   0.387   6.632   7.035  0.7580  0.0698  0.1685
  133MOL   C12124145   0.330   6.540   7.153  0.2916 -0.4467  0.4462
  133MOL   O12224146   0.364   6.554   7.271 -0.0518  0.1398  0.1309
  133MOL   O12324147   0.230   6.461   7.112  0.3815  0.5226  0.6565
  133MOL   H12424148   0.188   6.624   6.943  1.4285 -1.1680 -0.8210
  133MOL   H12524149   0.212   6.763   7.036  2.2908  0.3000  1.6046
  133MOL   H12624150   0.432   6.563   6.964 -0.0402 -0.1729 -0.1128
  133MOL   H12724151   0.184   6.415   7.182 -0.0891  0.7778  0.5154
  133MOL   C12824152   0.494   6.725   7.098 -0.5515 -0.2812  0.0966
  133MOL   C12924153   0.619   6.656   7.153 -0.9521 -0.5398  0.3519
  133MOL   C13024154   0.669   6.703   7.283  0.2552  0.2318 -0.8709
  133MOL   O13124155   0.765   6.776   7.304  0.0216 -0.0812  0.2144
  133MOL   O13224156   0.574   6.681   7.376  0.3353 -0.0541  0.1728
  133MOL   H13324157   0.451   6.787   7.176  0.9368  1.7088 -0.6162
  133MOL   H13424158   0.523   6.801   7.026  2.7084 -1.5057  0.0235
  133MOL   H13524159   0.588   6.553   7.171 -1.2536 -0.4027  0.6192
  133MOL   H13624160   0.506   6.619   7.354  0.1591 -0.3257  1.4056
  133MOL   C13724161   0.732   6.655   7.049 -0.6053  0.6533 -1.0924
  133MOL   C13824162   0.720   6.577   6.922  0.0085  0.1825 -0.2508
  133MOL   C13924163   0.694   6.428   6.935 -0.3908 -1.1958  0.1047
  133MOL   O14024164   0.697   6.371   7.042 -0.3343 -0.0657 -0.1154
  133MOL   O14124165   0.660   6.367   6.821 -0.0844  0.0676 -0.1894
  133MOL   H14224166   0.819   6.630   7.110 -1.2192 -0.6791 -0.7456
  133MOL   H14324167   0.735   6.761   7.025 -0.2125  0.2388 -2.9728
  133MOL   H14424168   0.633   6.618   6.871 -0.0636 -0.0661 -0.3235
  133MOL   H14524169   0.666   6.274   6.838 -0.0112  0.0031 -0.5707
  133MOL   C14624170   0.849   6.597   6.841  0.2136  0.1894  0.4676
  133MOL   C14724171   0.827   6.658   6.701  0.0781 -0.1006  0.0869
  133MOL   C14824172   0.765   6.559   6.602  0.0033  0.6367 -0.2591
  133MOL   O14924173   0.651   6.571   6.548  0.1989  0.2957  0.0253
  133MOL   O15024174   0.837   6.448   6.588  0.0925 -0.4903 -0.1983
  133MOL   H15124175   0.906   6.504   6.836 -1.5077 -0.8677  0.2786
  133MOL   H15224176   0.907   6.673   6.893  0.2753  1.3560 -1.2798
  133MOL   H15324177   0.765   6.748   6.701  3.6698  2.5050  0.5350
  133MOL   H15424178   0.784   6.399   6.527  1.0047 -0.4362 -1.0651
  133MOL   C15524179   0.962   6.716   6.659 -0.6271 -0.4176  1.2221
  133MOL   C15624180   0.981   6.767   6.512 -0.1451 -0.5783 -0.1270
  133MOL   C15724181   1.038   6.654   6.428 -0.2609  0.1122  0.1490
  133MOL   O15824182   1.152   6.615   6.441  0.2601  0.2446  0.6710
  133MOL   O15924183   0.954   6.594   6.339 -0.3226 -0.1612 -0.1924
  133MOL   H16024184   1.043   6.648   6.686  0.3541  0.9863  1.8688
  133MOL   H16124185   0.980   6.800   6.726  1.0534 -0.3784  0.7448
  133MOL   H16224186   0.884   6.798   6.472  0.5452  0.2313 -1.1847
  133MOL   H16324187   1.005   6.533   6.287 -0.9100  0.0638 -1.0348
  133MOL   C16424188   1.080   6.890   6.522  1.0482 -0.2685 -0.4893
  133MOL   C16524189   1.147   6.946   6.394  0.0957  0.0023  0.1125
  133MOL   C16624190   1.207   7.087   6.426 -1.0025 -0.3202  0.9443
  133MOL   O16724191   1.228   7.126   6.541  0.7497  0.0288  0.3587
  133MOL   O16824192   1.265   7.145   6.318 -0.1775 -0.6445  0.4877
  133MOL   H16924193   1.161   6.864   6.589  0.4090 -2.1925 -0.4295
  133MOL   H17024194   1.017   6.961   6.576 -0.5707 -0.6233 -1.8392
  133MOL   H17124195   1.228   6.875   6.379  0.5491  0.4589  0.3792
  133MOL   H17224196   1.314   7.224   6.338  0.9895 -1.7735  2.2768
  133MOL   C17324197   1.057   6.959   6.264  0.1280 -0.8049  0.2285
  133MOL   C17424198   1.137   6.920   6.135 -0.2511 -0.1150 -0.4699
  133MOL   C17524199   1.065   6.947   5.999  0.2119 -0.4773 -0.6225
  133MOL   O17624200   1.091   6.900   5.892 -0.3163 -0.2723  0.7019
  133MOL   O17724201   0.956   7.027   6.019  0.1387  0.3581  0.3916
  133MOL   H17824202   1.032   7.064   6.248  2.1497 -0.1528  1.2193
  133MOL   H17924203   0.970   6.896   6.280  0.7998 -1.5405  1.0428
  133MOL   H18024204   1.236   6.963   6.148  1.2837 -2.4099 -4.0900
  133MOL   H18124205   0.908   7.012   5.940  0.1912 -1.0699  0.6195
  133MOL   H18224206   1.139   6.811   6.134 -0.1519 -0.1500  1.5573
  134MOL     C124207   4.278   3.777   2.634  0.4669  0.4072  0.7621
  134MOL     C224208   4.136   3.706   2.627  0.4035  0.6935 -0.0694
  134MOL     C324209   4.109   3.658   2.479  0.4240 -0.0898 -0.5794
  134MOL     O424210   4.028   3.721   2.406  0.0561 -0.6253 -1.0657
  134MOL     O524211   4.187   3.569   2.420 -0.6100  0.4279  0.3306
  134MOL     H624212   4.308   3.782   2.739 -1.3308  1.4289  1.2346
  134MOL     H724213   4.355   3.713   2.592 -0.3166  0.1286 -0.2646
  134MOL     H824214   4.130   3.610   2.679  0.4253  1.3625  1.1887
  134MOL     H924215   4.186   3.592   2.329  0.9613  0.0478  0.2136
  134MOL    H1024216   4.293   3.878   2.596  0.2624 -0.1569 -0.8320
  134MOL    C1124217   4.019   3.796   2.685 -0.3117 -0.5602  0.6095
  134MOL    C1224218   3.895   3.710   2.723  0.1616  0.1592 -0.1321
  134MOL    C1324219   3.809   3.657   2.609  0.1309 -0.5886 -0.2823
  134MOL    O1424220   3.732   3.727   2.544  0.1136 -0.1673  0.5343
  134MOL    O1524221   3.843   3.528   2.583  0.3589 -0.2837  0.0182
  134MOL    H1624222   3.996   3.884   2.625  0.1699 -0.3717  0.6958
  134MOL    H1724223   4.055   3.835   2.781 -0.8716  0.7659  0.2974
  134MOL    H1824224   3.924   3.628   2.788 -0.2515 -0.7147 -1.0325
  134MOL    H1924225   3.799   3.491   2.508  1.6871 -0.4294 -0.6986
  134MOL    C2024226   3.811   3.799   2.821  0.5589 -0.3453 -0.9895
  134MOL    C2124227   3.669   3.747   2.880  0.3109  0.2269 -0.8285
  134MOL    C2224228   3.548   3.816   2.815 -0.4169  0.5637 -0.1111
  134MOL    O2324229   3.457   3.759   2.755 -0.3963 -0.5540  0.4435
  134MOL    O2424230   3.561   3.951   2.815  0.4843 -0.5026 -0.2195
  134MOL    H2524231   3.790   3.886   2.758  0.2243 -1.1594 -2.0338
  134MOL    H2624232   3.873   3.832   2.904  0.1521 -1.3755 -0.2599
  134MOL    H2724233   3.647   3.644   2.852  1.9175 -1.5243  3.8878
  134MOL    H2824234   3.478   3.985   2.784  1.1053  2.6838  1.4077
  134MOL    C2924235   3.673   3.763   3.032 -0.6843 -0.3355 -0.4524
  134MOL    C3024236   3.553   3.720   3.126 -0.2949  0.1275 -0.9468
  134MOL    C3124237   3.522   3.570   3.118  0.3815 -0.4363  0.0391
  134MOL    O3224238   3.582   3.489   3.044  0.0387  0.0283 -0.1693
  134MOL    O3324239   3.420   3.536   3.200 -0.3231 -0.1403  0.0808
  134MOL    H3424240   3.702   3.868   3.044 -2.2437  0.3380 -2.3682
  134MOL    H3524241   3.758   3.700   3.058  0.1666  1.4840  1.3686
  134MOL    H3624242   3.596   3.743   3.224  1.4479  1.3659 -1.9589
  134MOL    H3724243   3.408   3.443   3.186 -1.1815  0.0316 -0.3195
  134MOL    C3824244   3.422   3.798   3.118  0.6861  0.0007  0.3023
  134MOL    C3924245   3.430   3.952   3.156  0.2786  0.8902  0.1772
  134MOL    C4024246   3.402   3.981   3.309 -0.1115  0.4060 -0.3822
  134MOL    O4124247   3.313   4.053   3.352  0.0606 -0.0797  0.3780
  134MOL    O4224248   3.483   3.905   3.379  0.5572 -0.4093  0.0774
  134MOL    H4324249   3.361   3.754   3.197  1.2499 -1.0133  0.1689
  134MOL    H4424250   3.366   3.780   3.027  1.2419 -0.3038  0.0227
  134MOL    H4524251   3.531   3.987   3.139  0.9562 -0.2502  1.7630
  134MOL    H4624252   3.445   3.899   3.465 -1.3663 -0.9868 -0.7938
  134MOL    C4724253   3.344   4.040   3.056 -0.1046 -0.6015  0.3802
  134MOL    C4824254   3.414   4.174   3.011  0.5618  0.4452 -0.0286
  134MOL    C4924255   3.415   4.274   3.126  0.4594  0.4263  0.0539
  134MOL    O5024256   3.507   4.297   3.196  0.0281 -0.0804  0.1212
  134MOL    O5124257   3.291   4.327   3.131  0.6452  0.0811  1.0443
  134MOL    H5224258   3.248   4.057   3.106  0.0059  0.3896  0.2610
  134MOL    H5324259   3.317   3.977   2.971  0.4629 -2.3837  1.4830
  134MOL    H5424260   3.520   4.158   2.989  0.2499 -1.3042 -0.2715
  134MOL    H5524261   3.274   4.372   3.213  0.9644 -0.4417  1.4048
  134MOL    C5624262   3.357   4.237   2.875 -0.6232 -0.3306 -0.2920
  134MOL    C5724263   3.429   4.372   2.835 -0.1891 -0.4242 -0.1934
  134MOL    C5824264   3.325   4.489   2.836  0.9679 -0.2855  0.3218
  134MOL    O5924265   3.314   4.563   2.739 -0.3852 -0.0928 -0.4922
  134MOL    O6024266   3.267   4.502   2.953  0.0098 -0.0945 -0.3103
  134MOL    H6124267   3.248   4.242   2.874 -0.7373 -1.8294  1.4914
  134MOL    H6224268   3.392   4.167   2.799  1.5628 -0.8891  1.1651
  134MOL    H6324269   3.500   4.397   2.914 -1.5953 -0.4500  1.1023
  134MOL    H6424270   3.280   4.431   3.013 -2.7587 -0.9835 -0.7038
  134MOL    C6524271   3.503   4.359   2.692 -0.4597  0.4152  0.0791
  134MOL    C6624272   3.623   4.261   2.669 -0.0781 -0.3968  0.9265
  134MOL    C6724273   3.721   4.260   2.788  0.3758 -0.4281  0.1587
  134MOL    O6824274   3.763   4.160   2.833  0.3539  0.1651  0.2037
  134MOL    O6924275   3.756   4.378   2.832 -0.1097 -0.1077  0.0147
  134MOL    H7024276   3.545   4.455   2.662 -0.4297  0.2423 -0.4377
  134MOL    H7124277   3.438   4.336   2.608 -1.0669  1.0084  0.3747
  134MOL    H7224278   3.578   4.163   2.656 -1.6304  0.3237  0.6955
  134MOL    H7324279   3.810   4.376   2.910 -0.0153  0.9041 -0.0121
  134MOL    C7424280   3.706   4.297   2.545  0.2944 -0.6044  0.6210
  134MOL    C7524281   3.639   4.264   2.406  0.0704  0.3795 -0.1525
  134MOL    C7624282   3.644   4.113   2.379  0.3578 -0.2930  0.0996
  134MOL    O7724283   3.549   4.037   2.399  0.3464 -0.6277  0.0485
  134MOL    O7824284   3.764   4.077   2.341 -0.0586 -0.4884 -0.2820
  134MOL    H7924285   3.801   4.244   2.550  1.2647  1.1691  1.4517
  134MOL    H8024286   3.739   4.401   2.552  0.8729 -0.6893 -0.5943
  134MOL    H8124287   3.537   4.301   2.415  1.3339  4.2445 -0.8622
  134MOL    H8224288   3.740   3.989   2.315  0.1246 -0.5104 -0.3738
  134MOL    C8324289   3.708   4.344   2.287 -0.4178 -0.2405 -0.0449
  134MOL    C8424290   3.612   4.353   2.161  0.5530 -0.4914 -0.1791
  134MOL    C8524291   3.614   4.228   2.074  0.9342 -0.1364  0.5182
  134MOL    O8624292   3.708   4.191   2.007 -0.1171  0.0120  0.2430
  134MOL    O8724293   3.499   4.164   2.085  0.2437 -0.0117 -0.2991
  134MOL    H8824294   3.810   4.310   2.268 -0.0615  0.2742  0.8982
  134MOL    H8924295   3.724   4.446   2.324  2.9670 -0.7345  0.0719
  134MOL    H9024296   3.513   4.366   2.205  0.4764 -0.9525 -0.2146
  134MOL    H9124297   3.503   4.087   2.031  0.8134 -1.6259  1.9847
  134MOL    C9224298   3.648   4.476   2.068  0.2712  0.6720 -0.0205
  134MOL    C9324299   3.537   4.539   1.978  0.7460  0.4773  0.2626
  134MOL    C9424300   3.512   4.453   1.848  0.3592  0.3666 -0.1850
  134MOL    O9524301   3.399   4.431   1.800  0.0532  0.2605 -0.1247
  134MOL    O9624302   3.628   4.407   1.789 -0.4154 -0.3520 -0.5098
  134MOL    H9724303   3.742   4.459   2.016 -0.8685  0.5138 -2.1084
  134MOL    H9824304   3.668   4.551   2.145  1.7934  2.6174 -2.2346
  134MOL    H9924305   3.451   4.544   2.045  1.5693 -0.8149  1.4278
  134MOL   H10024306   3.622   4.347   1.716 -0.9349 -0.2629 -0.5460
  134MOL   C10124307   3.575   4.682   1.940  0.0621  0.6798 -0.0621
  134MOL   C10224308   3.460   4.775   1.885 -0.4684 -0.2018  0.5239
  134MOL   C10324309   3.441   4.762   1.734  0.4492  0.0647 -0.9272
  134MOL   O10424310   3.525   4.780   1.646 -0.3017  0.6813  0.3260
  134MOL   O10524311   3.308   4.742   1.712  0.3591 -0.2687 -0.0090
  134MOL   H10624312   3.658   4.677   1.869 -0.9671 -0.0632 -1.2365
  134MOL   H10724313   3.618   4.732   2.027 -0.5055  1.6120 -0.3043
  134MOL   H10824314   3.371   4.732   1.930 -0.7957  2.5476  2.6712
  134MOL   H10924315   3.288   4.735   1.620 -1.5754 -1.4100  0.4633
  134MOL   C11024316   3.455   4.918   1.940 -0.5541 -0.9642 -0.0725
  134MOL   C11124317   3.590   4.995   1.956  0.0327 -0.4823 -1.0712
  134MOL   C11224318   3.574   5.114   2.056  0.3041  0.2438  0.5351
  134MOL   O11324319   3.554   5.226   2.017 -0.3106 -0.1544  1.3293
  134MOL   O11424320   3.572   5.080   2.188  0.3483  0.3716  0.6494
  134MOL   H11524321   3.403   4.912   2.036  1.2673  2.2546  1.2175
  134MOL   H11624322   3.389   4.971   1.871  0.4520 -0.6196 -0.7920
  134MOL   H11724323   3.661   4.934   2.011  1.2253  2.0147  0.2284
  134MOL   H11824324   3.554   5.152   2.247  2.0499  1.4999 -0.1624
  134MOL   C11924325   3.660   5.036   1.819  1.2344  0.2272  0.1199
  134MOL   C12024326   3.799   5.111   1.816  0.4356  0.0623 -0.5289
  134MOL   C12124327   3.916   5.052   1.895 -0.4953 -0.0588 -0.8657
  134MOL   O12224328   3.909   5.043   2.019 -0.2013  0.4314 -0.0739
  134MOL   O12324329   4.025   5.012   1.818 -0.4975 -0.2229 -0.0441
  134MOL   H12424330   3.598   5.090   1.748  0.9264 -0.6064 -0.2478
  134MOL   H12524331   3.675   4.940   1.769 -1.0025  0.5787 -1.2900
  134MOL   H12624332   3.840   5.107   1.715 -0.7607  1.4231 -1.0924
  134MOL   H12724333   4.095   5.000   1.880 -0.1530  0.2993 -0.3300
  134MOL   C12824334   3.798   5.262   1.851  0.3018  0.5749  0.4803
  134MOL   C12924335   3.694   5.345   1.776 -0.4344 -0.0118 -0.7382
  134MOL   C13024336   3.743   5.346   1.630 -0.0438 -0.8973  0.1048
  134MOL   O13124337   3.850   5.385   1.591  0.8692  0.1563 -0.2655
  134MOL   O13224338   3.649   5.294   1.546  0.5013  0.5595  1.1062
  134MOL   H13324339   3.901   5.297   1.853  0.6731 -0.5123  0.7837
  134MOL   H13424340   3.779   5.272   1.958 -0.2075  0.2742  0.4181
  134MOL   H13524341   3.593   5.304   1.786  1.0401 -3.7614 -0.5964
  134MOL   H13624342   3.576   5.254   1.591 -0.4641  1.2895  0.2459
  134MOL   C13724343   3.679   5.492   1.840  0.4140  0.1792 -0.2502
  134MOL   C13824344   3.804   5.593   1.856 -0.1373  0.4156 -0.2155
  134MOL   C13924345   3.878   5.577   1.995 -0.3649 -0.3533 -0.5232
  134MOL   O14024346   3.825   5.549   2.103 -0.4542  0.5381  0.1645
  134MOL   O14124347   4.014   5.592   1.973  0.0826  0.5531 -0.1988
  134MOL   H14224348   3.635   5.470   1.937  1.1796  0.3219  0.1341
  134MOL   H14324349   3.601   5.547   1.787 -0.3644  0.1458  0.8356
  134MOL   H14424350   3.871   5.558   1.777  0.8669  0.0173  0.8086
  134MOL   H14524351   4.059   5.561   2.050 -1.2789 -2.9949 -0.7188
  134MOL   C14624352   3.754   5.745   1.836  0.1201 -0.1850  0.0076
  134MOL   C14724353   3.867   5.851   1.844  0.1166 -0.0659  0.5769
  134MOL   C14824354   3.809   5.996   1.824 -0.4630  0.0388  0.3625
  134MOL   O14924355   3.722   6.025   1.744  0.5039 -0.7262 -0.1300
  134MOL   O15024356   3.857   6.081   1.917 -0.1428 -0.4537 -0.3534
  134MOL   H15124357   3.684   5.771   1.916  0.2807  0.3005 -0.0054
  134MOL   H15224358   3.689   5.751   1.749  1.1516  0.8519 -0.7196
  134MOL   H15324359   3.896   5.849   1.949 -0.7771  0.2791  0.8366
  134MOL   H15424360   3.808   6.161   1.911 -1.2700 -1.1562 -0.7987
  134MOL   C15524361   3.975   5.834   1.735  0.0563 -0.5476 -1.1156
  134MOL   C15624362   4.102   5.914   1.753 -0.1829 -0.8502  0.2216
  134MOL   C15724363   4.190   5.864   1.641 -0.6767  0.7303  0.2058
  134MOL   O15824364   4.210   5.934   1.539  0.7935  0.2093 -0.0205
  134MOL   O15924365   4.251   5.744   1.664 -0.0429 -0.3369  0.2489
  134MOL   H16024366   3.927   5.843   1.638 -1.3295 -0.6498 -0.4532
  134MOL   H16124367   4.008   5.731   1.735  1.8853  0.0027  0.6055
  134MOL   H16224368   4.072   6.018   1.739  1.4905 -0.3211  0.4678
  134MOL   H16324369   4.306   5.718   1.592 -0.7716  0.6005 -0.6571
  134MOL   C16424370   4.172   5.889   1.888 -0.0721 -0.5178 -0.1609
  134MOL   C16524371   4.310   5.958   1.908  0.0680 -0.2607  0.1581
  134MOL   C16624372   4.381   5.907   2.040 -0.5063 -0.3008 -0.0974
  134MOL   O16724373   4.320   5.857   2.133 -0.4052  0.2167 -0.2653
  134MOL   O16824374   4.525   5.921   2.036 -0.7752  0.3564  0.4960
  134MOL   H16924375   4.189   5.782   1.903  2.5293 -0.1593 -0.3587
  134MOL   H17024376   4.112   5.934   1.966  1.4909  1.6394 -0.1655
  134MOL   H17124377   4.373   5.937   1.822 -1.1757 -0.4529 -0.7103
  134MOL   H17224378   4.563   5.961   1.959 -0.9789 -0.2748  0.0661
  134MOL   C17324379   4.294   6.111   1.926  0.7747 -0.1498  0.0566
  134MOL   C17424380   4.424   6.199   1.910  0.4972  0.0597  0.1703
  134MOL   C17524381   4.399   6.352   1.934 -0.3540 -0.0160  0.2312
  134MOL   O17624382   4.298   6.400   1.984  0.2059 -0.2270  0.1017
  134MOL   O17724383   4.506   6.429   1.901 -0.0886  0.2962  0.4387
  134MOL   H17824384   4.240   6.129   2.020  0.6550 -0.7053  0.0958
  134MOL   H17924385   4.223   6.140   1.849 -0.6894 -0.9792  1.0506
  134MOL   H18024386   4.503   6.165   1.978  0.6413  1.3883  0.6753
  134MOL   H18124387   4.491   6.522   1.899  0.8933  0.4448 -0.4154
  134MOL   H18224388   4.450   6.179   1.806  0.6731 -2.2511  0.6337
  135MOL     C124389   1.238   2.918   2.317 -0.8013  0.8711  0.0919
  135MOL     C224390   1.248   3.065   2.270 -0.0817 -0.6049 -1.0691
  135MOL     C324391   1.105   3.114   2.236  0.2185  0.2923 -0.1786
  135MOL     O424392   1.055   3.205   2.296  0.5501 -0.6843  0.0175
  135MOL     O524393   1.042   3.043   2.137 -0.6310  0.0003 -0.1798
  135MOL     H624394   1.180   2.843   2.264  1.5863 -1.8181  1.1357
  135MOL     H724395   1.338   2.877   2.332 -0.9592  0.2281 -0.6193
  135MOL     H824396   1.293   3.125   2.350  1.3498 -1.1681 -1.4431
  135MOL     H924397   0.952   3.070   2.126 -1.1201 -0.5038  2.4404
  135MOL    H1024398   1.200   2.904   2.418  0.6436 -4.3367  0.0586
  135MOL    C1124399   1.339   3.082   2.142  1.1973 -0.1582  0.6574
  135MOL    C1224400   1.488   3.042   2.166  0.4202  0.2656 -0.8966
  135MOL    C1324401   1.560   3.164   2.215  0.0687 -0.3268 -0.1751
  135MOL    O1424402   1.509   3.275   2.241 -0.7074  0.0623  0.2145
  135MOL    O1524403   1.693   3.137   2.233  0.1913  0.0327 -0.0269
  135MOL    H1624404   1.328   3.186   2.111  1.3445 -0.6264 -1.0120
  135MOL    H1724405   1.290   3.020   2.067  2.7959  1.1079 -1.4874
  135MOL    H1824406   1.490   2.971   2.248 -4.4783 -1.9683 -2.4926
  135MOL    H1924407   1.727   3.056   2.200  0.1685  0.0054  0.0167
  135MOL    C2024408   1.542   2.971   2.043 -0.4591  0.6687 -0.7484
  135MOL    C2124409   1.490   2.819   2.010 -0.1030 -0.6839  0.1294
  135MOL    C2224410   1.500   2.727   2.132  0.3540  0.4970 -0.3126
  135MOL    O2324411   1.599   2.717   2.201  0.3712 -0.0841  0.3973
  135MOL    O2424412   1.380   2.669   2.157  0.2937  0.9291 -0.1495
  135MOL    H2524413   1.647   2.951   2.063 -0.8889 -2.3554 -1.1570
  135MOL    H2624414   1.540   3.040   1.959  0.6368 -0.2394 -1.5340
  135MOL    H2724415   1.383   2.832   1.997 -0.2683 -0.3804  1.6972
  135MOL    H2824416   1.383   2.618   2.236  1.0861  2.5003  0.8488
  135MOL    C2924417   1.558   2.768   1.877  0.3067 -0.5019 -0.4354
  135MOL    C3024418   1.486   2.646   1.809 -0.1591 -0.3755 -0.0831
  135MOL    C3124419   1.520   2.515   1.873 -0.1846  1.1657  0.7691
  135MOL    O3224420   1.433   2.432   1.905 -0.1811  0.0120 -0.5285
  135MOL    O3324421   1.656   2.494   1.881 -1.4322 -0.4458 -0.2306
  135MOL    H3424422   1.664   2.742   1.879  0.4134 -0.0933 -0.7295
  135MOL    H3524423   1.552   2.851   1.807 -0.0403  1.4592  1.8532
  135MOL    H3624424   1.378   2.656   1.818 -0.4659 -0.9812 -2.9158
  135MOL    H3724425   1.678   2.412   1.923  3.3915  0.5596 -0.6004
  135MOL    C3824426   1.514   2.655   1.653 -0.0069 -0.3780  0.5704
  135MOL    C3924427   1.416   2.752   1.574 -0.7615  0.1211 -0.9994
  135MOL    C4024428   1.282   2.690   1.540  0.6055 -0.3647 -0.0826
  135MOL    O4124429   1.269   2.574   1.499  0.0805 -0.1620 -0.0288
  135MOL    O4224430   1.176   2.775   1.566  0.0542 -0.3331  0.2667
  135MOL    H4324431   1.501   2.553   1.618  1.8163 -0.3389 -0.2679
  135MOL    H4424432   1.622   2.662   1.637 -0.4242  2.1784 -1.3869
  135MOL    H4524433   1.407   2.836   1.643 -1.3634 -0.4316 -0.3949
  135MOL    H4624434   1.095   2.727   1.565 -0.9819  1.3856  0.0934
  135MOL    C4724435   1.481   2.822   1.463  1.3353 -0.0924  0.5840
  135MOL    C4824436   1.411   2.943   1.397  0.4040 -0.3924  0.0022
  135MOL    C4924437   1.490   2.979   1.270  0.2658 -0.5284  0.1541
  135MOL    O5024438   1.438   3.008   1.161 -0.9878 -0.9248  0.4571
  135MOL    O5124439   1.626   3.004   1.290 -0.4657 -0.3229  0.2004
  135MOL    H5224440   1.503   2.745   1.389 -1.3174  0.0651 -0.4486
  135MOL    H5324441   1.579   2.854   1.498  1.4523 -0.1644  0.3294
  135MOL    H5424442   1.308   2.914   1.376  0.3604 -0.1674 -0.0919
  135MOL    H5524443   1.670   3.026   1.210 -1.8787 -0.1442 -0.5475
  135MOL    C5624444   1.390   3.070   1.489 -0.7650 -0.0310  0.0927
  135MOL    C5724445   1.299   3.179   1.434 -0.3441  0.4462  0.2080
  135MOL    C5824446   1.341   3.311   1.494 -0.0063  0.1156 -0.4193
  135MOL    O5924447   1.326   3.352   1.602  0.9840 -0.2678 -0.2253
  135MOL    O6024448   1.414   3.378   1.397  0.0435 -0.4254 -0.0544
  135MOL    H6124449   1.488   3.115   1.502 -1.2281  0.3558  2.4144
  135MOL    H6224450   1.358   3.047   1.590  1.4640 -0.0712  0.8130
  135MOL    H6324451   1.324   3.190   1.329 -1.7311 -0.8400 -0.2680
  135MOL    H6424452   1.439   3.467   1.419  0.5887 -0.8195  0.9709
  135MOL    C6524453   1.153   3.148   1.459 -0.0627 -0.4073  1.1852
  135MOL    C6624454   1.064   3.240   1.373  0.0901 -0.0932  0.4468
  135MOL    C6724455   0.960   3.320   1.454 -0.4735 -0.3973  0.1863
  135MOL    O6824456   0.838   3.312   1.440  0.0426  0.1228  0.5220
  135MOL    O6924457   1.022   3.411   1.532 -0.0056 -0.3608 -0.1409
  135MOL    H7024458   1.124   3.152   1.564 -1.3468 -0.0830  0.8292
  135MOL    H7124459   1.127   3.044   1.441  0.6221 -0.4652  0.5036
  135MOL    H7224460   1.131   3.318   1.336 -0.8354  1.0005  1.0688
  135MOL    H7324461   0.961   3.476   1.564 -0.5055 -0.7678 -0.2572
  135MOL    C7424462   1.000   3.169   1.251 -0.9284 -0.4399  0.3098
  135MOL    C7524463   1.090   3.148   1.128 -0.0879 -0.6075  0.3204
  135MOL    C7624464   1.147   3.281   1.070  0.5786  1.3752 -0.6288
  135MOL    O7724465   1.255   3.283   1.009  0.1697 -0.3756  0.3273
  135MOL    O7824466   1.068   3.389   1.090 -0.1045 -0.5444  0.2681
  135MOL    H7924467   0.904   3.214   1.226 -0.2000  0.3029 -1.1978
  135MOL    H8024468   0.957   3.072   1.277  2.2974 -2.1351 -0.4889
  135MOL    H8124469   1.172   3.087   1.165 -0.0271 -1.3937 -1.0710
  135MOL    H8224470   1.118   3.469   1.082 -0.2947 -0.3376  1.0756
  135MOL    C8324471   1.024   3.061   1.016  0.0136  0.1306 -0.4332
  135MOL    C8424472   1.074   2.920   0.991  0.7085 -1.5757 -0.6696
  135MOL    C8524473   1.207   2.922   0.921 -0.2760 -0.1219 -0.0039
  135MOL    O8624474   1.293   2.836   0.951  0.7661 -0.1159  0.3863
  135MOL    O8724475   1.242   3.027   0.841  0.3775  0.2558  0.1903
  135MOL    H8824476   1.022   3.117   0.922 -1.7824  0.2833 -0.3296
  135MOL    H8924477   0.921   3.041   1.046  0.7034 -4.7115 -0.9414
  135MOL    H9024478   1.087   2.866   1.085 -0.1603 -1.6408 -0.5831
  135MOL    H9124479   1.329   3.010   0.808  0.9766  1.3208  1.1770
  135MOL    C9224480   0.968   2.839   0.905 -0.1578 -0.4099  0.8103
  135MOL    C9324481   0.887   2.738   0.984  0.1127  0.2672  0.6759
  135MOL    C9424482   0.779   2.814   1.063  0.4607  0.2505  0.0610
  135MOL    O9524483   0.685   2.876   1.010 -0.0388  0.1198 -0.5134
  135MOL    O9624484   0.799   2.806   1.198  0.1725 -0.4196  0.4692
  135MOL    H9724485   1.028   2.787   0.831 -1.2695 -0.4123 -0.0909
  135MOL    H9824486   0.900   2.911   0.859 -1.2350 -2.3943 -0.7611
  135MOL    H9924487   0.835   2.685   0.904 -0.3362  0.6399  0.7164
  135MOL   H10024488   0.731   2.856   1.239 -0.1680 -2.4637  2.5005
  135MOL   C10124489   0.963   2.629   1.062  0.6668  0.2589 -0.2263
  135MOL   C10224490   0.884   2.500   1.106  0.2984 -0.0974  0.1985
  135MOL   C10324491   0.923   2.451   1.248 -0.1378 -0.1168  0.2875
  135MOL   O10424492   0.842   2.447   1.346  0.1404  0.1455 -0.1891
  135MOL   O10524493   1.052   2.430   1.260 -0.0801  0.1000 -0.0334
  135MOL   H10624494   1.000   2.677   1.152  0.7793  0.8732 -0.5911
  135MOL   H10724495   1.041   2.598   0.992  0.0183 -2.6284  0.2770
  135MOL   H10824496   0.781   2.535   1.108  0.6719  0.9257  2.4793
  135MOL   H10924497   1.065   2.427   1.354 -3.0656 -0.0164  0.4109
  135MOL   C11024498   0.889   2.389   0.993  0.0219 -0.1182 -0.4634
  135MOL   C11124499   0.836   2.242   1.028  0.1345  1.1975  0.1274
  135MOL   C11224500   0.875   2.146   0.921 -0.7249 -0.3544  0.2366
  135MOL   O11324501   0.860   2.173   0.800 -1.0898 -0.0083 -0.1520
  135MOL   O11424502   0.900   2.023   0.975 -0.6575  0.0879  0.6383
  135MOL   H11524503   0.987   2.374   0.948 -0.1820  0.6535 -1.1656
  135MOL   H11624504   0.830   2.419   0.907 -0.0462 -0.3788 -0.5091
  135MOL   H11724505   0.893   2.201   1.112  1.1173  0.3438 -0.9451
  135MOL   H11824506   0.894   1.950   0.915  0.0977  1.0337 -0.6284
  135MOL   C11924507   0.688   2.239   1.063  0.2466 -0.1892  0.3797
  135MOL   C12024508   0.573   2.253   0.955  0.2150  0.7261 -0.0477
  135MOL   C12124509   0.540   2.400   0.916 -0.2478 -0.3600  0.5176
  135MOL   O12224510   0.574   2.491   0.988  0.2983 -0.0296  0.3940
  135MOL   O12324511   0.470   2.412   0.798  0.2758 -0.4441  0.6890
  135MOL   H12424512   0.673   2.308   1.146  0.1315 -1.5598  1.5083
  135MOL   H12524513   0.679   2.147   1.120 -1.0080  1.0732  2.2637
  135MOL   H12624514   0.600   2.202   0.863  1.6857  0.6930  0.3844
  135MOL   H12724515   0.440   2.329   0.764 -0.5472 -0.9982  2.6896
  135MOL   C12824516   0.438   2.193   1.010  0.0374  0.4459  0.1864
  135MOL   C12924517   0.448   2.037   1.009 -0.1129  0.4426  0.0896
  135MOL   C13024518   0.455   1.973   0.875  0.5998 -0.3381  0.1271
  135MOL   O13124519   0.354   1.936   0.817 -0.4093  0.6618 -0.1322
  135MOL   O13224520   0.575   1.965   0.821 -0.3580  0.3204  0.2704
  135MOL   H13324521   0.355   2.227   0.948  0.2827  1.2618  0.2975
  135MOL   H13424522   0.420   2.229   1.111  0.7499  1.5099 -0.0521
  135MOL   H13524523   0.541   2.003   1.054  0.4800 -1.0708 -2.2204
  135MOL   H13624524   0.569   1.901   0.751  1.4874 -1.1054  1.3697
  135MOL   C13724525   0.320   1.990   1.085  0.4975  0.6148 -0.3067
  135MOL   C13824526   0.319   1.840   1.117  0.2593 -0.2922  0.5083
  135MOL   C13924527   0.184   1.796   1.172  0.4472  0.0111  0.9322
  135MOL   O14024528   0.096   1.875   1.208 -0.0952 -0.0856 -0.1867
  135MOL   O14124529   0.185   1.663   1.196 -0.6730  0.2846  0.2373
  135MOL   H14224530   0.232   2.021   1.028  0.6816 -1.6181 -1.8271
  135MOL   H14324531   0.316   2.054   1.174  1.0981 -2.1270  1.7351
  135MOL   H14424532   0.318   1.797   1.017 -0.9160  2.4885 -0.7207
  135MOL   H14524533   0.108   1.624   1.235  1.2798 -1.2167  2.7771
  135MOL   C14624534   0.449   1.795   1.209 -0.3022 -0.5568  0.2665
  135MOL   C14724535   0.550   1.704   1.126 -0.5098  0.3717  0.2134
  135MOL   C14824536   0.487   1.574   1.075 -1.0446  0.1049 -0.3760
  135MOL   O14924537   0.474   1.544   0.956  0.3157 -0.1917  0.3106
  135MOL   O15024538   0.458   1.485   1.175 -0.7112 -0.0565  0.0388
  135MOL   H15124539   0.408   1.746   1.297 -0.8344  0.6891  0.7195
  135MOL   H15224540   0.508   1.878   1.248  0.2378 -1.1116  0.6469
  135MOL   H15324541   0.576   1.760   1.035 -2.2942 -1.1273 -1.2544
  135MOL   H15424542   0.455   1.395   1.149  0.5504  0.1820 -0.9765
  135MOL   C15524543   0.688   1.672   1.200  0.2930 -0.0039  0.3805
  135MOL   C15624544   0.817   1.722   1.131 -0.5712  0.2542  0.0857
  135MOL   C15724545   0.860   1.659   1.001 -0.1710  1.1403  0.6699
  135MOL   O15824546   0.802   1.561   0.955 -0.1564 -0.5973  0.2971
  135MOL   O15924547   0.961   1.725   0.938 -0.0640  0.0789 -0.3912
  135MOL   H16024548   0.714   1.567   1.211  3.0975  0.4346 -1.3839
  135MOL   H16124549   0.677   1.720   1.297 -2.3048 -0.9200  0.5756
  135MOL   H16224550   0.797   1.827   1.108  1.8648  1.1859  1.9549
  135MOL   H16324551   0.998   1.671   0.870  0.4719  1.1777 -0.9878
  135MOL   C16424552   0.935   1.733   1.232  0.2335 -0.7107 -0.4511
  135MOL   C16524553   0.912   1.821   1.360  0.7989 -0.2157 -0.3248
  135MOL   C16624554   0.874   1.966   1.332  0.0523 -0.5027 -0.4709
  135MOL   O16724555   0.955   2.059   1.318  0.1406  0.1536  0.4392
  135MOL   O16824556   0.745   1.975   1.302 -0.2038  0.7239  0.3008
  135MOL   H16924557   1.014   1.777   1.171  0.0337 -1.0155 -0.9411
  135MOL   H17024558   0.970   1.634   1.260  0.9329 -0.4264 -0.3269
  135MOL   H17124559   0.833   1.776   1.420 -0.8120 -0.3248 -2.4637
  135MOL   H17224560   0.715   2.060   1.275  0.0084  0.5473 -0.4901
  135MOL   C17324561   1.034   1.825   1.462  0.1802  0.6250  0.6084
  135MOL   C17424562   1.173   1.867   1.411 -0.8530 -0.4660 -0.1696
  135MOL   C17524563   1.290   1.857   1.509 -0.1740  0.5069 -0.5548
  135MOL   O17624564   1.273   1.850   1.634 -0.0905 -0.1827 -0.0151
  135MOL   O17724565   1.413   1.855   1.444 -0.6575 -0.8756 -0.0334
  135MOL   H17824566   1.046   1.721   1.490 -0.3780  1.2797  3.4687
  135MOL   H17924567   1.006   1.883   1.551 -1.1483  0.7044  0.1509
  135MOL   H18024568   1.204   1.825   1.315 -0.3367  1.8852 -1.0472
  135MOL   H18124569   1.470   1.813   1.506  0.8695 -0.1769 -0.9363
  135MOL   H18224570   1.184   1.975   1.406 -0.0370 -0.3154  3.3887
  136MOL     C124571   4.058   0.015   1.139 -0.1428 -0.2120 -0.3382
  136MOL     C224572   4.141   7.744   1.101 -0.0915  0.1880 -0.1538
  136MOL     C324573   4.057   7.648   1.009 -0.3323  0.6139 -0.0065
  136MOL     O424574   4.034   7.530   1.026  0.1276  0.6075 -0.5650
  136MOL     O524575   4.020   7.719   0.897  0.1433 -0.1691 -0.3145
  136MOL     H624576   4.123   0.087   1.190 -0.5097  2.1257 -3.0362
  136MOL     H724577   4.018   0.073   1.056 -0.5169 -1.7077 -1.2173
  136MOL     H824578   4.221   7.773   1.033  0.1502 -2.6104 -1.1405
  136MOL     H924579   4.057   7.805   0.892  1.2915 -0.6776 -0.8000
  136MOL    H1024580   3.981   0.001   1.215 -0.4352 -1.7504 -0.9179
  136MOL    C1124581   4.204   7.673   1.227  0.2037 -0.6720 -0.0811
  136MOL    C1224582   4.364   7.652   1.229  0.6442 -0.4320 -0.9721
  136MOL    C1324583   4.436   7.785   1.238  0.1493  0.0081 -0.8093
  136MOL    O1424584   4.498   7.831   1.148  0.1212  0.4240  0.8431
  136MOL    O1524585   4.403   7.852   1.350  0.0134 -0.0405 -0.5899
  136MOL    H1624586   4.162   7.575   1.249 -1.9239  0.4563  0.9819
  136MOL    H1724587   4.174   7.732   1.313  0.5845 -0.6727  0.0538
  136MOL    H1824588   4.383   7.603   1.325 -0.4389 -1.4556 -1.2796
  136MOL    H1924589   4.435   0.087   1.337 -0.2285 -0.2544 -2.7697
  136MOL    C2024590   4.421   7.559   1.125 -0.3480  0.1221 -0.5704
  136MOL    C2124591   4.561   7.485   1.145 -0.4283 -0.0037 -0.5866
  136MOL    C2224592   4.616   7.435   1.007 -0.1228 -0.0854  0.1277
  136MOL    O2324593   4.712   7.481   0.951  0.9007  0.2446  0.0920
  136MOL    O2424594   4.548   7.332   0.949 -0.8599  0.1645  0.0531
  136MOL    H2524595   4.432   7.614   1.031  2.0132  1.5414  0.5030
  136MOL    H2624596   4.349   7.490   1.082  0.0088 -0.7932  0.2844
  136MOL    H2724597   4.626   7.567   1.177 -1.1119 -0.0034  0.8322
  136MOL    H2824598   4.462   7.333   0.988 -0.1083 -1.7747  1.8919
  136MOL    C2924599   4.555   7.376   1.255  0.5622  0.2457 -0.3255
  136MOL    C3024600   4.675   7.292   1.278  0.1765  0.1697 -0.7132
  136MOL    C3124601   4.636   7.172   1.362 -1.3734  0.6989 -0.0770
  136MOL    O3224602   4.671   7.151   1.478 -0.0276  0.1255 -0.1007
  136MOL    O3324603   4.546   7.094   1.293 -0.2252  0.5522  0.1063
  136MOL    H3424604   4.466   7.317   1.232  0.6767  0.4650 -1.4024
  136MOL    H3524605   4.525   7.431   1.344  0.8029  1.4901 -0.9934
  136MOL    H3624606   4.712   7.251   1.184  0.0890 -2.0088  0.1728
  136MOL    H3724607   4.521   7.018   1.343  3.2943 -0.0617  1.0365
  136MOL    C3824608   4.782   7.381   1.337  0.7599 -0.4996 -0.4001
  136MOL    C3924609   4.916   7.311   1.370  0.0696 -0.2375 -0.2419
  136MOL    C4024610   5.004   7.386   1.470 -0.4566 -0.4040 -0.0906
  136MOL    O4124611   4.999   7.500   1.495 -0.2753 -0.6054  0.1293
  136MOL    O4224612   5.093   7.299   1.524  0.2735 -0.3249 -0.2232
  136MOL    H4324613   4.752   7.396   1.440 -0.0380 -0.4003 -0.6419
  136MOL    H4424614   4.802   7.475   1.284  0.3543  0.4776  1.1491
  136MOL    H4524615   4.897   7.211   1.409  1.0055 -0.1546  0.4370
  136MOL    H4624616   5.157   7.350   1.571  0.3870  0.0322 -0.7519
  136MOL    C4724617   5.000   7.287   1.238  0.5585  0.3219 -0.2185
  136MOL    C4824618   5.115   7.189   1.226  0.3240 -0.2934 -0.5092
  136MOL    C4924619   5.086   7.057   1.307  0.7282  0.1522 -0.2648
  136MOL    O5024620   4.990   6.978   1.287  0.0202 -0.0285  0.2888
  136MOL    O5124621   5.177   7.020   1.400  0.6312  0.8337  0.1766
  136MOL    H5224622   5.017   7.386   1.196 -1.2072  0.9355  0.4815
  136MOL    H5324623   4.923   7.243   1.175  1.1311 -0.5623 -0.3060
  136MOL    H5424624   5.106   7.166   1.120 -0.9561  1.1249 -0.7289
  136MOL    H5524625   5.148   6.936   1.434  1.0838  0.8908  0.7172
  136MOL    C5624626   5.253   7.244   1.250  0.2649 -0.1027 -0.0248
  136MOL    C5724627   5.377   7.205   1.164 -0.0352  0.1852 -0.4946
  136MOL    C5824628   5.375   7.062   1.116 -0.7120 -0.5474  0.0679
  136MOL    O5924629   5.445   6.976   1.161  0.2139  0.2211  0.3553
  136MOL    O6024630   5.286   7.041   1.019  0.6137  0.5125 -0.3157
  136MOL    H6124631   5.288   7.250   1.353  0.3703  3.1251 -0.1949
  136MOL    H6224632   5.237   7.351   1.236  0.2686 -0.2005 -0.7970
  136MOL    H6324633   5.368   7.277   1.083 -0.2938 -0.0274 -0.6515
  136MOL    H6424634   5.265   7.111   0.959  2.0136  0.9331 -0.3431
  136MOL    C6524635   5.512   7.248   1.232  0.4191 -0.0738  0.5879
  136MOL    C6624636   5.642   7.256   1.139 -0.2553 -0.6197  0.0089
  136MOL    C6724637   5.712   7.123   1.098 -0.6348  0.0598 -0.8936
  136MOL    O6824638   5.717   7.087   0.978 -0.2187 -0.8135 -0.8905
  136MOL    O6924639   5.753   7.047   1.205 -0.2377 -0.2551  0.1330
  136MOL    H7024640   5.535   7.184   1.317  0.7979 -0.9061 -0.1328
  136MOL    H7124641   5.507   7.351   1.267  0.2954  0.7984 -1.8636
  136MOL    H7224642   5.604   7.311   1.053 -0.1214  0.3938  0.5827
  136MOL    H7324643   5.802   6.968   1.188  1.7849  1.1789 -0.9672
  136MOL    C7424644   5.739   7.360   1.205 -0.9932 -0.9388 -0.2191
  136MOL    C7524645   5.879   7.398   1.145 -0.0422  0.7231  0.3807
  136MOL    C7624646   5.854   7.471   1.012  0.0771 -0.0998  0.2868
  136MOL    O7724647   5.793   7.581   1.014  0.2262 -0.1254  0.4590
  136MOL    O7824648   5.892   7.410   0.902 -0.4422 -0.4461 -0.2084
  136MOL    H7924649   5.759   7.319   1.304 -0.7777 -1.5955 -0.5332
  136MOL    H8024650   5.683   7.452   1.223 -0.4146 -0.0469 -2.7851
  136MOL    H8124651   5.915   7.476   1.211  0.1426 -0.1439  1.3092
  136MOL    H8224652   5.877   7.460   0.824 -0.5420  0.8672  0.6385
  136MOL    C8324653   5.991   7.286   1.157  0.5424  0.3956 -0.1016
  136MOL    C8424654   6.147   7.326   1.163 -0.4319  0.3828  0.1547
  136MOL    C8524655   6.181   7.416   1.289 -0.4206  0.5215  0.4524
  136MOL    O8624656   6.245   7.519   1.268 -0.2674  0.0557  0.0132
  136MOL    O8724657   6.136   7.375   1.415 -0.2772  0.2227 -0.8589
  136MOL    H8824658   5.969   7.216   1.077 -0.5509 -0.3634  0.8563
  136MOL    H8924659   5.971   7.223   1.243 -0.8753 -0.9547 -1.3882
  136MOL    H9024660   6.204   7.236   1.186  0.0677  0.1615 -1.8950
  136MOL    H9124661   6.108   7.286   1.402  1.0766  0.0464 -2.8485
  136MOL    C9224662   6.191   7.395   1.026 -0.0802 -0.0607 -0.2789
  136MOL    C9324663   6.347   7.403   1.007 -0.1992 -0.4942  0.2932
  136MOL    C9424664   6.394   7.471   0.877  0.5621  0.0800 -0.7829
  136MOL    O9524665   6.511   7.489   0.849  0.2588  0.8840 -0.1410
  136MOL    O9624666   6.293   7.495   0.789  0.1087  0.0233 -0.1552
  136MOL    H9724667   6.146   7.494   1.015  1.1739  0.7314  1.4276
  136MOL    H9824668   6.150   7.333   0.947 -0.0723  1.4972 -1.5221
  136MOL    H9924669   6.372   7.475   1.085  1.9094  0.2889 -1.0560
  136MOL   H10024670   6.330   7.526   0.708  0.9080  1.6207  0.7882
  136MOL   C10124671   6.433   7.281   1.042 -0.0578 -0.6857  0.2084
  136MOL   C10224672   6.464   7.167   0.936 -0.1190  0.1359  0.6933
  136MOL   C10324673   6.370   7.043   0.945  0.1407  0.2990  0.3403
  136MOL   O10424674   6.395   6.931   0.892  0.3003 -0.0502  0.2247
  136MOL   O10524675   6.241   7.076   0.989 -0.4762 -0.2009 -0.5491
  136MOL   H10624676   6.397   7.245   1.138  0.8495 -2.0307  0.0587
  136MOL   H10724677   6.529   7.330   1.054  0.2062 -1.6012  1.9835
  136MOL   H10824678   6.443   7.198   0.834  0.3786 -2.0178 -0.0984
  136MOL   H10924679   6.189   6.997   0.984 -0.9274 -0.2316  3.1070
  136MOL   C11024680   6.610   7.137   0.922 -0.6680 -1.0358  0.4841
  136MOL   C11124681   6.684   7.095   1.055 -0.2564 -0.2261  0.0240
  136MOL   C11224682   6.832   7.135   1.054 -0.2847  0.2397 -0.3636
  136MOL   O11324683   6.919   7.060   1.007  0.5455 -0.0606  0.2086
  136MOL   O11424684   6.856   7.241   1.138  0.3797  0.5548  0.0345
  136MOL   H11524685   6.658   7.230   0.891  1.1462 -1.8495  0.7516
  136MOL   H11624686   6.626   7.063   0.843  0.5337  0.0809 -0.3451
  136MOL   H11724687   6.632   7.157   1.128  0.8397  0.5265  0.1890
  136MOL   H11824688   6.950   7.249   1.147  0.3050 -1.0001  2.5407
  136MOL   C11924689   6.665   6.942   1.087  0.2611 -0.4085  0.4631
  136MOL   C12024690   6.730   6.903   1.223  0.0433  0.2026  0.1661
  136MOL   C12124691   6.730   6.749   1.237 -0.3286  0.7500 -0.4060
  136MOL   O12224692   6.837   6.687   1.255  0.0406  0.7836 -0.7325
  136MOL   O12324693   6.608   6.702   1.243  0.3291  0.1934 -0.7219
  136MOL   H12424694   6.695   6.881   1.002  0.1454 -0.9217  0.7898
  136MOL   H12524695   6.558   6.922   1.099  0.3476 -0.5387  1.0580
  136MOL   H12624696   6.835   6.931   1.228 -0.8219  3.5783  0.4437
  136MOL   H12724697   6.621   6.617   1.282  0.4125 -0.0424 -1.2684
  136MOL   C12824698   6.667   6.972   1.343 -0.7150  0.9496  0.2811
  136MOL   C12924699   6.758   6.993   1.468 -0.2159 -0.3284  0.3253
  136MOL   C13024700   6.684   6.998   1.597 -0.1038  0.1184  0.1930
  136MOL   O13124701   6.696   6.913   1.682  0.8846  0.6205  0.3685
  136MOL   O13224702   6.613   7.109   1.608  0.1230 -0.1679 -0.4330
  136MOL   H13324703   6.579   6.910   1.360 -0.0137 -0.7406 -2.0177
  136MOL   H13424704   6.606   7.058   1.314 -1.3317  0.7119  0.8602
  136MOL   H13524705   6.826   6.910   1.487  0.5500  0.5041  1.2991
  136MOL   H13624706   6.586   7.111   1.698  0.0417  0.4994 -0.4648
  136MOL   C13724707   6.850   7.114   1.450 -0.4096 -0.8813  0.3377
  136MOL   C13824708   6.972   7.135   1.550 -0.1474  1.2757 -0.7402
  136MOL   C13924709   7.065   7.012   1.562 -0.3472  0.6041  0.3927
  136MOL   O14024710   7.113   6.978   1.668 -0.0815 -0.3454 -0.6256
  136MOL   O14124711   7.102   6.956   1.441 -0.4494 -0.2455 -0.0479
  136MOL   H14224712   6.792   7.206   1.452  1.9749  0.7733 -2.3501
  136MOL   H14324713   6.885   7.114   1.347 -0.6297  0.0486  0.2632
  136MOL   H14424714   7.031   7.213   1.501 -0.2283  0.4165 -2.2529
  136MOL   H14524715   7.170   6.892   1.453  0.6126  0.6851 -1.0035
  136MOL   C14624716   6.924   7.207   1.682 -0.4136 -0.1205  0.2812
  136MOL   C14724717   7.021   7.324   1.733 -0.1058  0.2593  0.3712
  136MOL   C14824718   7.020   7.321   1.890 -0.5473 -0.6093  0.7093
  136MOL   O14924719   6.943   7.262   1.963  0.0100  0.0317  0.4444
  136MOL   O15024720   7.127   7.390   1.938  0.3562  0.0566  0.3644
  136MOL   H15124721   6.907   7.136   1.763  0.5152  0.5441  1.0658
  136MOL   H15224722   6.825   7.252   1.670  0.3385  1.6201  0.4807
  136MOL   H15324723   7.125   7.319   1.701  0.4521  0.4488  2.0913
  136MOL   H15424724   7.138   7.372   2.030  0.1961 -0.1077  0.3522
  136MOL   C15524725   6.980   7.462   1.690 -0.4476  0.3917 -0.5746
  136MOL   C15624726   7.006   7.502   1.541 -0.4065 -0.3964 -0.4094
  136MOL   C15724727   7.155   7.525   1.506 -0.2002 -0.4404 -0.0662
  136MOL   O15824728   7.253   7.489   1.568 -0.1125 -0.3981 -0.1922
  136MOL   O15924729   7.176   7.603   1.392  0.3690 -0.3391  0.5791
  136MOL   H16024730   7.026   7.544   1.746 -0.5856  1.0566 -1.4142
  136MOL   H16124731   6.878   7.478   1.725  0.1032 -2.4117  2.5835
  136MOL   H16224732   6.987   7.413   1.482  1.2226 -0.5323 -0.7603
  136MOL   H16324733   7.267   7.595   1.367 -0.4801  2.2163 -3.8839
  136MOL   C16424734   6.913   7.613   1.500  0.6534  0.5213 -0.1335
  136MOL   C16524735   6.775   7.564   1.436  0.6377 -0.4324  0.4370
  136MOL   C16624736   6.798   7.499   1.295 -0.2303  0.3216  0.0685
  136MOL   O16724737   6.887   7.526   1.214 -0.4162  0.7157 -0.1886
  136MOL   O16824738   6.697   7.412   1.267 -0.6522  0.1216 -0.4698
  136MOL   H16924739   6.957   7.676   1.423 -0.6475 -0.1482 -1.4514
  136MOL   H17024740   6.889   7.683   1.580 -0.2524  0.9815 -0.7943
  136MOL   H17124741   6.747   7.487   1.508  2.8579 -0.9042  0.8327
  136MOL   H17224742   6.718   7.365   1.188 -0.6093  0.0932 -0.4414
  136MOL   C17324743   6.665   7.676   1.435  0.3144  0.2456  0.2339
  136MOL   C17424744   6.523   7.630   1.448 -0.1754 -0.9224  0.5423
  136MOL   C17524745   6.498   7.563   1.586  0.2920  0.5860  0.5550
  136MOL   O17624746   6.562   7.578   1.694 -0.1632  0.0917 -0.0361
  136MOL   O17724747   6.388   7.485   1.584 -0.0204 -0.1124  0.1079
  136MOL   H17824748   6.678   7.711   1.333 -2.8317 -1.3148 -0.7397
  136MOL   H17924749   6.688   7.740   1.520  0.2889 -0.0715  0.4792
  136MOL   H18024750   6.447   7.702   1.418 -2.4897 -2.4728  2.4782
  136MOL   H18124751   6.368   7.454   1.672  1.3466  0.5936  0.6866
  136MOL   H18224752   6.513   7.547   1.378 -1.0507 -1.8846  1.7866
  137MOL     C124753   5.730   1.293   3.625 -0.1072  0.2499  0.2104
  137MOL     C224754   5.761   1.421   3.701  0.0006  0.4361  0.0100
  137MOL     C324755   5.903   1.468   3.691  0.0629  0.4157 -0.3697
  137MOL     O424756   5.977   1.474   3.790  0.1734 -0.0408 -0.2680
  137MOL     O524757   5.935   1.490   3.561 -0.2057  0.3420 -0.3109
  137MOL     H624758   5.783   1.280   3.532  0.8995  0.8908  0.6851
  137MOL     H724759   5.761   1.211   3.690 -0.1831 -0.6787 -0.9123
  137MOL     H824760   5.706   1.501   3.652  0.2111  2.1013  2.3658
  137MOL     H924761   6.027   1.514   3.561  0.0054 -0.4370  0.0372
  137MOL    H1024762   5.622   1.292   3.612 -0.1024  3.2726 -0.5192
  137MOL    C1124763   5.721   1.414   3.856 -0.0183  0.1192 -0.2055
  137MOL    C1224764   5.687   1.544   3.923 -0.6460  0.2221  0.0216
  137MOL    C1324765   5.694   1.515   4.076  0.8244  0.3530  1.2423
  137MOL    O1424766   5.623   1.433   4.135  0.2829  0.9389  0.4536
  137MOL    O1524767   5.773   1.606   4.147 -0.0140  0.0937  0.1475
  137MOL    H1624768   5.801   1.360   3.906  1.3915  1.5464 -0.8618
  137MOL    H1724769   5.631   1.356   3.874 -0.5078  0.7385 -0.6404
  137MOL    H1824770   5.763   1.618   3.898  0.8355 -1.2278  0.1605
  137MOL    H1924771   5.785   1.576   4.236 -0.2218  1.7427  0.7441
  137MOL    C2024772   5.551   1.613   3.880 -0.1875  0.0950 -0.6146
  137MOL    C2124773   5.534   1.766   3.870 -0.9204  0.1005  0.4458
  137MOL    C2224774   5.511   1.851   3.997 -0.2669  0.2160 -0.1655
  137MOL    O2324775   5.421   1.826   4.081  0.1904  0.1129  0.1574
  137MOL    O2424776   5.582   1.964   3.999 -0.4389  1.2789 -0.2804
  137MOL    H2524777   5.474   1.569   3.943 -1.2128  1.2491 -1.0553
  137MOL    H2624778   5.517   1.572   3.785 -2.5237  1.8498 -0.5658
  137MOL    H2724779   5.631   1.789   3.825 -0.8296 -0.9716  0.0559
  137MOL    H2824780   5.547   2.004   4.077 -1.1084 -0.4310  0.3069
  137MOL    C2924781   5.429   1.801   3.756  0.0387 -0.2736 -0.0484
  137MOL    C3024782   5.280   1.775   3.799 -0.0833 -0.1623  0.3979
  137MOL    C3124783   5.241   1.628   3.795  0.0802 -0.4634 -0.8024
  137MOL    O3224784   5.222   1.573   3.690 -0.2266  0.3841 -0.3921
  137MOL    O3324785   5.228   1.567   3.916  0.3974  0.1456 -0.2823
  137MOL    H3424786   5.446   1.748   3.663 -1.8265  0.7494 -1.0078
  137MOL    H3524787   5.443   1.907   3.732  1.0235 -0.3317  0.2696
  137MOL    H3624788   5.255   1.807   3.900 -2.4767  0.6930 -0.4361
  137MOL    H3724789   5.215   1.474   3.908 -5.3021  0.5650  1.5377
  137MOL    C3824790   5.192   1.848   3.697  0.0665 -0.7166 -0.1412
  137MOL    C3924791   5.037   1.853   3.720  0.3730  0.5858  0.3238
  137MOL    C4024792   4.970   1.875   3.581 -0.4644 -0.1023  0.0017
  137MOL    O4124793   4.934   1.785   3.507 -0.3675 -0.1728 -0.4094
  137MOL    O4224794   4.985   2.002   3.547 -0.2625  0.2907 -0.4373
  137MOL    H4324795   5.198   1.807   3.596 -1.9838  0.2868 -0.6985
  137MOL    H4424796   5.229   1.950   3.694 -1.1797 -0.2611 -0.2550
  137MOL    H4524797   5.018   1.749   3.746 -0.0497  0.5071 -0.2904
  137MOL    H4624798   4.943   2.008   3.462  0.1335  0.1730 -0.6413
  137MOL    C4724799   4.992   1.955   3.831  0.4540 -0.2923  0.0314
  137MOL    C4824800   4.856   1.934   3.892  0.5373 -0.5693  0.2542
  137MOL    C4924801   4.743   1.971   3.807 -0.2016 -0.3981  0.3843
  137MOL    O5024802   4.633   1.917   3.817 -0.2626  0.2181  0.1875
  137MOL    O5124803   4.765   2.062   3.708  0.0076  0.0339  0.1586
  137MOL    H5224804   5.008   2.055   3.790  2.0002 -0.5347  0.0313
  137MOL    H5324805   5.061   1.946   3.915 -2.0939  0.4103  2.2794
  137MOL    H5424806   4.846   1.826   3.907 -0.8172 -0.3811  0.8300
  137MOL    H5524807   4.685   2.070   3.659  0.2550  2.5176  0.1203
  137MOL    C5624808   4.838   1.997   4.031  0.9495  0.4022  0.4048
  137MOL    C5724809   4.920   1.943   4.153 -0.4615 -0.0501  0.0696
  137MOL    C5824810   5.039   2.032   4.162  0.0361  0.0972  0.0778
  137MOL    O5924811   5.150   1.996   4.131 -0.6250 -0.1121 -0.3083
  137MOL    O6024812   5.006   2.158   4.197  0.1539  0.1436  0.0225
  137MOL    H6124813   4.735   2.000   4.067  1.1286  2.1775  0.7771
  137MOL    H6224814   4.855   2.103   4.011  0.3583 -0.0781 -3.0461
  137MOL    H6324815   4.869   1.958   4.248  0.3863 -1.3456  0.7313
  137MOL    H6424816   5.089   2.202   4.185  0.0980  0.0804 -0.6220
  137MOL    C6524817   4.956   1.788   4.139  0.0810 -0.1968 -0.6507
  137MOL    C6624818   5.021   1.711   4.262  0.4891 -0.2396 -0.6210
  137MOL    C6724819   5.093   1.593   4.198 -0.8660  0.2318 -0.0198
  137MOL    O6824820   5.035   1.515   4.122  0.1417  0.4399 -0.0572
  137MOL    O6924821   5.220   1.587   4.245 -0.1236 -0.0382 -0.6224
  137MOL    H7024822   5.022   1.784   4.053 -0.3886 -1.1329 -0.9723
  137MOL    H7124823   4.865   1.739   4.104  0.2421  0.9239 -2.7287
  137MOL    H7224824   5.088   1.774   4.319 -0.2036  2.5018 -2.6976
  137MOL    H7324825   5.269   1.520   4.200 -0.4901 -1.0055  0.3865
  137MOL    C7424826   4.910   1.670   4.361 -0.4299 -0.2025  0.9210
  137MOL    C7524827   4.960   1.584   4.482  0.0324  0.3189  0.8842
  137MOL    C7624828   4.845   1.554   4.582  0.6595 -0.3571 -0.0694
  137MOL    O7724829   4.812   1.444   4.608  0.3115  0.0418 -0.4996
  137MOL    O7824830   4.806   1.663   4.654  0.4760 -0.2475  0.4655
  137MOL    H7924831   4.836   1.616   4.301 -0.9607  2.0745 -0.5450
  137MOL    H8024832   4.853   1.757   4.395 -0.5834  0.0703 -0.0296
  137MOL    H8124833   4.981   1.486   4.441  1.4291  0.9258  0.0928
  137MOL    H8224834   4.770   1.639   4.738  0.7438  1.7873  1.1986
  137MOL    C8324835   5.083   1.640   4.553  0.2956 -0.6666  0.3695
  137MOL    C8424836   5.125   1.576   4.682 -0.2445  0.3374 -0.0536
  137MOL    C8524837   5.186   1.681   4.781 -0.0230 -0.1767 -0.0463
  137MOL    O8624838   5.121   1.743   4.861  0.6150  0.0879  0.8729
  137MOL    O8724839   5.324   1.691   4.768  0.1854  0.3859 -0.6817
  137MOL    H8824840   5.058   1.746   4.566  1.6960 -0.0991 -1.5081
  137MOL    H8924841   5.167   1.648   4.485 -0.7202 -0.1736 -0.8636
  137MOL    H9024842   5.040   1.544   4.742  0.4156 -0.7027  0.3301
  137MOL    H9124843   5.353   1.765   4.820  0.0882  0.9742 -1.4548
  137MOL    C9224844   5.212   1.450   4.659  0.2933  0.1925 -0.1544
  137MOL    C9324845   5.233   1.364   4.782 -0.6553 -0.1264  0.1820
  137MOL    C9424846   5.353   1.266   4.755  0.9845  0.1851 -0.2014
  137MOL    O9524847   5.469   1.291   4.790 -0.1468 -0.1817 -0.3816
  137MOL    O9624848   5.306   1.156   4.697  0.1556 -0.5780 -0.5456
  137MOL    H9724849   5.301   1.463   4.598 -0.4488 -2.2123 -1.8258
  137MOL    H9824850   5.156   1.377   4.601 -0.0654 -0.5571  1.1261
  137MOL    H9924851   5.282   1.425   4.858  1.2428  1.1295 -1.9825
  137MOL   H10024852   5.374   1.091   4.695  1.7590  1.0413  0.1770
  137MOL   C10124853   5.105   1.309   4.855  0.0677  0.2758 -0.2974
  137MOL   C10224854   5.068   1.374   4.993 -0.0537 -0.6654  0.4730
  137MOL   C10324855   5.173   1.342   5.103  0.5762 -1.1379 -0.3051
  137MOL   O10424856   5.208   1.429   5.182  0.0954 -0.0949  0.6260
  137MOL   O10524857   5.205   1.207   5.108 -0.3970 -0.0058 -0.0020
  137MOL   H10624858   5.122   1.202   4.861  0.2619  0.3616  0.6891
  137MOL   H10724859   5.017   1.308   4.791 -1.4092  0.8109  1.7004
  137MOL   H10824860   5.086   1.482   4.984  4.9542 -1.4236 -0.2635
  137MOL   H10924861   5.276   1.190   5.168 -1.3898 -0.0976  1.1629
  137MOL   C11024862   4.922   1.339   5.031  0.4661 -0.4475  0.1667
  137MOL   C11124863   4.814   1.414   4.956 -0.4375  0.3172  0.2966
  137MOL   C11224864   4.793   1.557   5.010  0.2007  0.2147  0.4847
  137MOL   O11324865   4.821   1.585   5.126 -0.0188 -0.0826 -0.5418
  137MOL   O11424866   4.766   1.654   4.923 -0.0071  0.0820 -0.0650
  137MOL   H11524867   4.908   1.353   5.138 -0.7471  0.0752 -0.0537
  137MOL   H11624868   4.911   1.233   5.007  2.1686 -0.2190 -1.6805
  137MOL   H11724869   4.835   1.417   4.849 -0.1494  1.2440  0.3734
  137MOL   H11824870   4.749   1.729   4.977 -0.3666 -0.3866  0.4727
  137MOL   C11924871   4.692   1.329   4.977 -0.1978 -0.0769 -0.6966
  137MOL   C12024872   4.569   1.368   4.886  0.4951  0.4906 -0.1828
  137MOL   C12124873   4.451   1.401   4.977 -0.6244  0.3788  0.3945
  137MOL   O12224874   4.415   1.325   5.066  0.1849  0.0776 -0.6269
  137MOL   O12324875   4.391   1.518   4.946 -0.3454 -0.0350 -0.0200
  137MOL   H12424876   4.664   1.341   5.082 -0.2692  1.9702 -0.9231
  137MOL   H12524877   4.714   1.222   4.979  1.5852  0.2940  2.4766
  137MOL   H12624878   4.592   1.465   4.841  0.0009  0.6574 -0.0864
  137MOL   H12724879   4.307   1.521   4.989 -0.2630 -1.1243  0.2399
  137MOL   C12824880   4.547   1.257   4.780 -0.7787  0.1921 -0.9299
  137MOL   C12924881   4.445   1.303   4.674 -0.1953 -0.4692 -0.4147
  137MOL   C13024882   4.309   1.239   4.682  0.1288  0.6840  0.3526
  137MOL   O13124883   4.264   1.140   4.616  0.1419 -0.5340  0.2966
  137MOL   O13224884   4.236   1.311   4.766  0.5795 -0.7029 -0.0226
  137MOL   H13324885   4.509   1.169   4.831  0.5256  0.0010 -0.2886
  137MOL   H13424886   4.636   1.224   4.727 -0.7773 -1.7728  0.2742
  137MOL   H13524887   4.431   1.410   4.690 -1.7572 -0.5602 -1.0800
  137MOL   H13624888   4.147   1.280   4.770  0.3658  0.0204  1.1023
  137MOL   C13724889   4.492   1.287   4.527  0.0905 -0.3182  0.2845
  137MOL   C13824890   4.414   1.390   4.435  0.7073 -0.3311  0.4113
  137MOL   C13924891   4.330   1.314   4.335 -0.1629 -0.1622 -0.0766
  137MOL   O14024892   4.366   1.218   4.272 -0.2210  0.4363 -0.2033
  137MOL   O14124893   4.207   1.362   4.326  0.0235  0.4658  0.3705
  137MOL   H14224894   4.482   1.183   4.496 -0.9417 -0.2906  0.4945
  137MOL   H14324895   4.600   1.290   4.518  0.0391  0.0603 -0.2292
  137MOL   H14424896   4.351   1.457   4.494  0.8980  0.1269  0.1015
  137MOL   H14524897   4.173   1.295   4.269 -0.1258  0.7392  0.1300
  137MOL   C14624898   4.512   1.492   4.360  0.1596  1.0270  0.0617
  137MOL   C14724899   4.468   1.637   4.336 -0.0380 -0.6692 -0.5646
  137MOL   C14824900   4.429   1.708   4.463  0.1081 -0.3906 -0.6867
  137MOL   O14924901   4.321   1.720   4.510 -0.2202 -0.2075 -0.3006
  137MOL   O15024902   4.533   1.761   4.524 -0.1194 -0.0128 -0.2311
  137MOL   H15124903   4.546   1.447   4.267 -0.4967 -1.2716  0.9120
  137MOL   H15224904   4.597   1.494   4.428 -0.6041  0.8888  1.0266
  137MOL   H15324905   4.557   1.692   4.308  0.2116 -1.1945 -0.8011
  137MOL   H15424906   4.513   1.806   4.605 -1.0517 -1.0812  0.1363
  137MOL   C15524907   4.369   1.662   4.217  0.6602  0.0006  0.2097
  137MOL   C15624908   4.401   1.603   4.074  0.3692  0.2325  0.4320
  137MOL   C15724909   4.516   1.671   4.001  0.0539  0.2733 -0.4067
  137MOL   O15824910   4.618   1.707   4.052  0.3694  0.3597 -0.3349
  137MOL   O15924911   4.492   1.696   3.870  0.2177 -0.0088  0.1158
  137MOL   H16024912   4.350   1.769   4.222 -1.2419 -0.3676  1.0795
  137MOL   H16124913   4.274   1.616   4.244  1.0356 -0.2494  1.1210
  137MOL   H16224914   4.430   1.498   4.079 -2.9495 -0.7628  0.0146
  137MOL   H16324915   4.568   1.746   3.846 -0.2436 -0.0010 -1.3641
  137MOL   C16424916   4.266   1.609   3.993 -0.2480  0.4882 -0.3137
  137MOL   C16524917   4.244   1.501   3.893  0.1832  0.1803 -0.0632
  137MOL   C16624918   4.148   1.548   3.778  1.2032  0.1588 -0.6754
  137MOL   O16724919   4.079   1.653   3.786  0.2592  0.2683 -0.3347
  137MOL   O16824920   4.137   1.454   3.682  0.1872  0.0354  0.0496
  137MOL   H16924921   4.256   1.708   3.950  1.2740  0.3652 -0.9563
  137MOL   H17024922   4.181   1.602   4.061  0.1890  1.3593  0.3271
  137MOL   H17124923   4.341   1.479   3.848  0.6429  0.5842  0.7378
  137MOL   H17224924   4.081   1.482   3.612  1.1710  0.3789 -0.6064
  137MOL   C17324925   4.209   1.367   3.952 -0.2465  0.3341  0.3158
  137MOL   C17424926   4.057   1.354   3.987  1.5541  0.2703 -0.0174
  137MOL   C17524927   4.025   1.230   4.070  0.4791 -0.0667 -0.3769
  137MOL   O17624928   4.095   1.188   4.162  0.9936 -0.1308 -0.0558
  137MOL   O17724929   3.904   1.178   4.030 -0.2192 -0.6226  0.2531
  137MOL   H17824930   4.265   1.344   4.043  0.5092  2.1175  0.3186
  137MOL   H17924931   4.241   1.288   3.883 -1.1729  0.0473  0.2045
  137MOL   H18024932   4.028   1.440   4.047  1.5423 -0.7757  1.5262
  137MOL   H18124933   3.887   1.106   4.089  0.8007 -0.6260  0.5563
  137MOL   H18224934   3.994   1.356   3.899  1.2705 -1.6225  0.1230
  138MOL     C124935   3.266   5.848   3.740  0.5577  0.0133 -0.5421
  138MOL     C224936   3.285   5.993   3.697 -0.4976 -0.1188  0.5891
  138MOL     C324937   3.239   6.090   3.809  0.5834  0.6052  0.5008
  138MOL     O424938   3.126   6.128   3.822 -0.1609 -0.6118 -0.6522
  138MOL     O524939   3.335   6.120   3.896  0.1128 -0.4557 -0.8243
  138MOL     H624940   3.332   5.828   3.824 -1.4971  0.0485  1.1056
  138MOL     H724941   3.165   5.821   3.771  0.4914  1.4696  0.5526
  138MOL     H824942   3.392   6.011   3.680 -0.1822 -0.2695  2.3999
  138MOL     H924943   3.421   6.089   3.872  1.3102  1.3191  1.0124
  138MOL    H1024944   3.295   5.778   3.662  0.8453  0.7442 -1.1063
  138MOL    C1124945   3.203   6.019   3.565  0.0517 -0.2488 -0.0651
  138MOL    C1224946   3.265   6.132   3.474  0.0570 -0.0694 -0.6584
  138MOL    C1324947   3.185   6.266   3.478  0.2870  0.0294 -0.1632
  138MOL    O1424948   3.102   6.309   3.392 -0.1137 -0.6432 -0.2635
  138MOL    O1524949   3.213   6.334   3.591  0.5245 -0.0001 -0.5808
  138MOL    H1624950   3.097   6.038   3.582  0.2427  1.8137 -1.0637
  138MOL    H1724951   3.189   5.926   3.509 -4.4223 -0.5038  1.2440
  138MOL    H1824952   3.363   6.148   3.518  0.9619  0.1594 -2.7117
  138MOL    H1924953   3.168   6.415   3.610 -0.3320 -0.6344  0.0970
  138MOL    C2024954   3.297   6.083   3.335 -0.4449  0.3154  0.1111
  138MOL    C2124955   3.405   6.159   3.250  0.9573 -0.6035  0.0857
  138MOL    C2224956   3.544   6.164   3.324 -0.1130 -0.3530  0.5494
  138MOL    O2324957   3.575   6.245   3.409  0.4449  0.0210 -0.0248
  138MOL    O2424958   3.627   6.062   3.289  0.0668 -0.1317  0.5124
  138MOL    H2524959   3.210   6.074   3.269 -0.0066 -0.9679 -0.2981
  138MOL    H2624960   3.336   5.981   3.338  2.5397  1.3328 -1.5095
  138MOL    H2724961   3.433   6.103   3.160  0.9903  0.2206 -0.4252
  138MOL    H2824962   3.717   6.064   3.317  0.7297 -2.6995 -1.1638
  138MOL    C2924963   3.373   6.300   3.202  0.0459 -0.6316  0.1083
  138MOL    C3024964   3.475   6.372   3.102 -0.1301 -0.1639  0.2432
  138MOL    C3124965   3.437   6.519   3.094 -0.0207  0.3797 -0.6569
  138MOL    O3224966   3.385   6.580   2.999 -0.4000  0.0742 -0.5085
  138MOL    O3324967   3.451   6.576   3.216 -0.5894  0.0608 -0.4550
  138MOL    H3424968   3.362   6.364   3.289 -1.4222 -1.3202  0.4488
  138MOL    H3524969   3.272   6.302   3.160 -0.0690  3.2123  0.3694
  138MOL    H3624970   3.560   6.380   3.169  0.1139 -0.8250  0.0183
  138MOL    H3724971   3.425   6.667   3.219 -0.8608 -0.0655  1.8366
  138MOL    C3824972   3.520   6.302   2.966 -0.2784 -0.1413  0.4494
  138MOL    C3924973   3.644   6.370   2.892 -0.7370 -0.0173 -0.2234
  138MOL    C4024974   3.646   6.316   2.749  0.9682  0.6454 -0.2365
  138MOL    O4124975   3.600   6.372   2.655 -0.5942  0.3495  0.0231
  138MOL    O4224976   3.678   6.183   2.749 -0.3066 -0.6951  0.2301
  138MOL    H4324977   3.429   6.307   2.905  1.1270  0.7851 -1.6118
  138MOL    H4424978   3.546   6.199   2.990 -0.2802 -0.3540 -0.4277
  138MOL    H4524979   3.640   6.479   2.889  3.5949  0.2231 -0.0622
  138MOL    H4624980   3.676   6.163   2.657 -0.1929 -1.2170  0.3426
  138MOL    C4724981   3.779   6.328   2.973  0.5640  0.2537  0.0627
  138MOL    C4824982   3.865   6.450   3.011  0.4812  0.5382 -0.1378
  138MOL    C4924983   3.787   6.555   3.097 -0.2036 -0.2680  0.7629
  138MOL    O5024984   3.739   6.663   3.050  0.3136  0.3011  0.3720
  138MOL    O5124985   3.778   6.516   3.226  0.6700 -0.3074  0.4407
  138MOL    H5224986   3.823   6.244   2.920 -1.4054 -0.8405  0.0846
  138MOL    H5324987   3.754   6.291   3.072  0.4321  0.9906  0.3112
  138MOL    H5424988   3.945   6.411   3.073  0.2856 -0.9473 -0.8000
  138MOL    H5524989   3.742   6.590   3.273 -0.2812 -1.5807  1.7344
  138MOL    C5624990   3.937   6.524   2.893  0.8683  0.0224  0.3917
  138MOL    C5724991   4.031   6.645   2.928  0.2782  0.0569 -0.1871
  138MOL    C5824992   4.082   6.727   2.803 -0.4932  0.0102  0.1874
  138MOL    O5924993   4.134   6.839   2.805  0.0321 -0.0981  0.0589
  138MOL    O6024994   4.071   6.654   2.692 -0.2862 -0.1378  0.0870
  138MOL    H6124995   3.855   6.561   2.831 -1.4224  1.2272  3.9737
  138MOL    H6224996   3.999   6.453   2.839 -2.3835 -1.1612 -1.9028
  138MOL    H6324997   3.990   6.717   2.998  0.0229 -1.9920  1.8396
  138MOL    H6424998   4.097   6.711   2.621  0.8565  0.6756  1.1193
  138MOL    C6524999   4.152   6.592   3.008  0.0443 -0.0374 -0.3575
  138MOL    C6625000   4.240   6.698   3.080 -0.0348 -1.0127  0.6803
  138MOL    C6725001   4.350   6.614   3.152  0.5821 -0.3354  0.2496
  138MOL    O6825002   4.462   6.608   3.095 -0.5027  0.4176  0.1780
  138MOL    O6925003   4.314   6.560   3.279  0.1405  0.0506 -0.2178
  138MOL    H7025004   4.229   6.551   2.942  1.9375 -0.5052  2.0943
  138MOL    H7125005   4.123   6.519   3.084  0.1354  0.6662  0.3540
  138MOL    H7225006   4.303   6.759   3.015  1.5880 -1.0948  2.1054
  138MOL    H7325007   4.376   6.495   3.310  1.8431  0.3596 -2.8031
  138MOL    C7425008   4.163   6.793   3.182 -0.0605  0.3269 -0.3907
  138MOL    C7525009   4.147   6.940   3.137  0.4390 -0.2058  0.5094
  138MOL    C7625010   4.282   7.017   3.138 -0.5274 -0.8162  0.4158
  138MOL    O7725011   4.337   7.052   3.239 -0.0003 -0.3350  0.2403
  138MOL    O7825012   4.339   7.029   3.015  0.0062  0.0403  0.2528
  138MOL    H7925013   4.210   6.807   3.279  1.6680 -1.3183 -0.9626
  138MOL    H8025014   4.065   6.751   3.205  0.0397 -0.1619 -0.8160
  138MOL    H8125015   4.102   6.941   3.037 -1.2628  0.8544  1.2595
  138MOL    H8225016   4.428   7.055   3.036 -0.2358  0.3336  0.9079
  138MOL    C8325017   4.046   7.011   3.230 -0.3825  0.2914  0.2209
  138MOL    C8425018   3.936   7.095   3.157 -0.3921  0.0915 -0.1409
  138MOL    C8525019   3.848   7.010   3.067 -0.3784  0.3130 -0.6135
  138MOL    O8625020   3.828   7.032   2.950  0.3997  0.2652 -0.5923
  138MOL    O8725021   3.788   6.907   3.135 -0.2762 -0.3562 -0.2796
  138MOL    H8825022   4.102   7.067   3.305 -0.1829 -2.1250  1.9282
  138MOL    H8925023   3.993   6.944   3.298 -2.0599  1.9966  0.6698
  138MOL    H9025024   3.856   7.135   3.219 -0.0808 -0.6827  0.7752
  138MOL    H9125025   3.752   6.833   3.089  0.4382 -1.0966  0.3429
  138MOL    C9225026   4.008   7.211   3.083  0.3784  0.9676 -0.3421
  138MOL    C9325027   4.081   7.326   3.163  0.2223 -0.5880  0.0106
  138MOL    C9425028   3.990   7.399   3.264 -0.2191 -0.3089  0.4710
  138MOL    O9525029   3.872   7.370   3.281 -0.7076 -0.0036  0.1434
  138MOL    O9625030   4.055   7.500   3.329  0.0722 -0.5165 -0.9192
  138MOL    H9725031   3.939   7.264   3.017 -4.1715 -3.0068  0.9736
  138MOL    H9825032   4.088   7.175   3.017 -1.7340 -1.3432 -1.7536
  138MOL    H9925033   4.149   7.274   3.231  0.7991  0.6861  0.4219
  138MOL   H10025034   4.003   7.556   3.385  2.1962 -0.2072  0.8045
  138MOL   C10125035   4.152   7.434   3.070 -0.5582  0.6840  0.2718
  138MOL   C10225036   4.303   7.419   3.057  0.4305  0.0375 -0.0247
  138MOL   C10325037   4.386   7.440   3.190  0.4947 -0.4400  0.7019
  138MOL   O10425038   4.468   7.358   3.227  0.0042 -0.1120 -0.3753
  138MOL   O10525039   4.347   7.551   3.264  0.0863 -0.0002 -0.4376
  138MOL   H10625040   4.122   7.535   3.097 -4.0392 -0.7840  2.2000
  138MOL   H10725041   4.118   7.414   2.969  1.3738  1.2974 -0.5398
  138MOL   H10825042   4.321   7.315   3.028  1.2433  0.1688  0.0039
  138MOL   H10925043   4.286   7.603   3.214  0.8723 -1.8523 -3.5080
  138MOL   C11025044   4.357   7.518   2.947  0.1986  0.2182  0.2271
  138MOL   C11125045   4.504   7.511   2.908  0.2436  0.4216  0.4938
  138MOL   C11225046   4.594   7.597   3.002 -0.1944 -0.4507 -0.7573
  138MOL   O11325047   4.580   7.717   3.014  0.0243 -0.6062  0.2856
  138MOL   O11425048   4.688   7.532   3.069  0.3558 -0.4390  0.6652
  138MOL   H11525049   4.338   7.619   2.984 -1.6351  0.3051 -0.9179
  138MOL   H11625050   4.296   7.507   2.858  0.3848 -2.3555  0.3838
  138MOL   H11725051   4.534   7.406   2.911 -0.3356  0.1640 -1.5285
  138MOL   H11825052   4.749   7.591   3.110  0.6829  0.7702 -1.4742
  138MOL   C11925053   4.517   7.552   2.762 -0.0691  0.0775 -0.2218
  138MOL   C12025054   4.655   7.527   2.685  0.6337  0.1902  0.1885
  138MOL   C12125055   4.769   7.621   2.719 -0.2626  0.3954  0.2098
  138MOL   O12225056   4.876   7.580   2.770 -0.3161 -0.3244  0.4778
  138MOL   O12325057   4.736   7.750   2.692  0.1404 -0.2276 -0.4579
  138MOL   H12425058   4.490   7.657   2.746 -1.1662 -0.5794 -3.1168
  138MOL   H12525059   4.438   7.508   2.700  0.1879  0.5776 -0.9204
  138MOL   H12625060   4.683   7.427   2.718  0.3510  0.9372  2.7938
  138MOL   H12725061   4.811   7.804   2.714 -0.0611  0.6876 -1.9363
  138MOL   C12825062   4.648   7.516   2.528  0.3359 -0.2252 -0.1925
  138MOL   C12925063   4.740   7.410   2.470 -0.1487 -0.4642 -0.5447
  138MOL   C13025064   4.810   7.465   2.344  0.1541  0.2621  0.7526
  138MOL   O13125065   4.929   7.450   2.323 -0.1121  0.4921  0.0737
  138MOL   O13225066   4.725   7.524   2.257  0.0639  0.0009 -0.0840
  138MOL   H13325067   4.669   7.613   2.483 -0.1947  1.2615  2.6633
  138MOL   H13425068   4.548   7.481   2.504  0.6524 -1.1673 -0.1817
  138MOL   H13525069   4.816   7.391   2.547  0.9836  1.3256 -1.1724
  138MOL   H13625070   4.785   7.524   2.184 -0.2885 -0.4091 -0.3794
  138MOL   C13725071   4.668   7.279   2.450 -0.1302 -0.8432 -0.3774
  138MOL   C13825072   4.621   7.201   2.572 -0.5797 -0.0693 -0.0809
  138MOL   C13925073   4.737   7.149   2.671  0.2348  0.3515  0.0770
  138MOL   O14025074   4.857   7.149   2.650 -0.0086  1.0516 -0.3342
  138MOL   O14125075   4.688   7.099   2.784  0.5279  0.3075  0.0828
  138MOL   H14225076   4.748   7.219   2.409 -0.4761 -1.0407 -0.7665
  138MOL   H14325077   4.582   7.288   2.383 -0.3659 -1.6437 -0.1822
  138MOL   H14425078   4.571   7.277   2.631  1.5216  0.9587  0.4275
  138MOL   H14525079   4.758   7.056   2.830 -1.0885 -1.9724  0.4927
  138MOL   C14625080   4.527   7.083   2.530  0.6950 -1.1611 -0.0150
  138MOL   C14725081   4.379   7.129   2.521 -0.7985 -0.0712 -0.3465
  138MOL   C14825082   4.323   7.154   2.663  0.8532 -0.4968  0.0972
  138MOL   O14925083   4.304   7.265   2.702  0.3564 -0.4574  0.4557
  138MOL   O15025084   4.315   7.033   2.738  0.3255 -0.0552  0.8776
  138MOL   H15125085   4.532   7.005   2.606  1.2123  1.2117  2.4531
  138MOL   H15225086   4.562   7.047   2.434  0.8545 -0.9702 -0.0295
  138MOL   H15325087   4.388   7.225   2.471  2.1498 -0.0620  0.1472
  138MOL   H15425088   4.309   7.049   2.831 -1.1808 -0.3101  0.8319
  138MOL   C15525089   4.295   7.029   2.441 -0.1904 -1.1297  0.1202
  138MOL   C15625090   4.145   7.060   2.423  0.5194 -0.6045 -0.3136
  138MOL   C15725091   4.056   6.958   2.499 -0.7472 -0.6628 -0.4298
  138MOL   O15825092   4.081   6.839   2.508 -0.4643  0.1709 -0.1959
  138MOL   O15925093   3.951   7.019   2.558  0.0310 -0.5233  0.0004
  138MOL   H16025094   4.316   6.926   2.469 -2.3703 -1.1908  1.5943
  138MOL   H16125095   4.328   7.027   2.337  0.6289  1.4407  0.2996
  138MOL   H16225096   4.131   7.159   2.467 -0.7889 -0.5129 -0.9092
  138MOL   H16325097   3.905   6.949   2.601  0.0316 -0.6859 -0.2654
  138MOL   C16425098   4.100   7.059   2.270  0.2636  0.7239 -0.2076
  138MOL   C16525099   4.190   7.129   2.163 -0.2601 -0.6376 -0.1833
  138MOL   C16625100   4.244   7.272   2.198 -0.0207  0.5009 -0.2720
  138MOL   O16725101   4.357   7.300   2.175  0.0378  0.4152 -0.1085
  138MOL   O16825102   4.158   7.355   2.264  0.0744 -0.2506  0.0677
  138MOL   H16925103   3.994   7.077   2.253 -0.3422 -0.5703  1.9288
  138MOL   H17025104   4.115   6.957   2.234 -1.7999  0.2768  0.1505
  138MOL   H17125105   4.276   7.068   2.138 -0.0455  0.6641 -2.7881
  138MOL   H17225106   4.196   7.439   2.285 -2.1626  0.4417  1.6070
  138MOL   C17325107   4.108   7.138   2.029 -0.2801 -0.3174 -0.2865
  138MOL   C17425108   4.197   7.166   1.904 -0.2448 -0.3981  0.8636
  138MOL   C17525109   4.125   7.138   1.771 -0.3054 -0.2900 -0.0220
  138MOL   O17625110   4.021   7.197   1.736 -0.0085 -0.2027  0.3297
  138MOL   O17725111   4.183   7.036   1.699 -0.0131  0.3590 -0.2675
  138MOL   H17825112   4.017   7.197   2.043  0.2787  1.0643 -2.1893
  138MOL   H17925113   4.064   7.040   2.013 -2.8952  0.9632 -1.2883
  138MOL   H18025114   4.219   7.272   1.915 -1.5857  0.1483 -1.4837
  138MOL   H18125115   4.132   7.015   1.622 -0.5992  2.0782 -0.3761
  138MOL   H18225116   4.290   7.110   1.908 -0.3870 -0.8731 -1.6186
  139MOL     C125117   3.911   7.466   5.407 -0.4585 -0.1693  0.2270
  139MOL     C225118   3.894   7.612   5.465 -0.3401  0.4981 -0.3675
  139MOL     C325119   3.989   7.636   5.582 -0.6069  0.4154 -0.4514
  139MOL     O425120   3.958   7.693   5.684 -0.4928  0.3150 -0.0355
  139MOL     O525121   4.108   7.569   5.565 -0.1901  0.0789 -0.0758
  139MOL     H625122   4.010   7.450   5.363 -0.5215  0.9177 -0.3255
  139MOL     H725123   3.878   7.402   5.488 -1.5546  1.1812  0.8588
  139MOL     H825124   3.935   7.685   5.395  2.0048 -0.7717 -0.3732
  139MOL     H925125   4.166   7.564   5.640 -1.5873 -2.0660  0.8995
  139MOL    H1025126   3.846   7.449   5.322 -0.7404 -1.3514  0.6734
  139MOL    C1125127   3.738   7.658   5.478 -0.4150 -0.7089  0.5177
  139MOL    C1225128   3.659   7.599   5.593 -0.0732  0.4812 -0.3683
  139MOL    C1325129   3.625   7.442   5.587 -0.6113  0.7903  0.7125
  139MOL    O1425130   3.629   7.372   5.688  0.2038 -0.4862 -0.0214
  139MOL    O1525131   3.594   7.395   5.462  0.4851  0.3582 -0.1516
  139MOL    H1625132   3.688   7.640   5.383  1.7810  1.4926 -1.1287
  139MOL    H1725133   3.729   7.767   5.469 -0.8394 -0.7642  0.2911
  139MOL    H1825134   3.721   7.597   5.682  2.6942 -1.8582 -2.2562
  139MOL    H1925135   3.567   7.306   5.475 -1.0531  0.9327  0.7278
  139MOL    C2025136   3.529   7.684   5.608  0.2604 -0.3414  0.6464
  139MOL    C2125137   3.476   7.693   5.754  0.2009  0.5575  0.4893
  139MOL    C2225138   3.405   7.566   5.807  0.1632 -0.1388  0.1631
  139MOL    O2325139   3.354   7.478   5.737  0.4304  0.4702  0.4982
  139MOL    O2425140   3.399   7.565   5.945 -0.2226  0.3541 -0.5277
  139MOL    H2525141   3.448   7.647   5.546  1.0656  0.9686 -1.2280
  139MOL    H2625142   3.542   7.787   5.573  0.9585 -0.9667 -0.9712
  139MOL    H2725143   3.571   7.707   5.805  1.2933 -1.2939 -0.9645
  139MOL    H2825144   3.383   7.482   5.989  0.0417  1.0480  0.9084
  139MOL    C2925145   3.395   7.822   5.775 -0.0326  0.3770  0.0385
  139MOL    C3025146   3.250   7.833   5.724  0.4158 -0.5430 -0.6443
  139MOL    C3125147   3.233   0.003   5.572 -0.1598 -0.7610 -0.2578
  139MOL    O3225148   3.329   0.033   5.503  0.1629  0.0690 -0.9211
  139MOL    O3325149   3.109   7.825   5.528  0.8257  0.2152  0.2142
  139MOL    H3425150   3.450   0.050   5.727 -0.6675 -1.1947 -3.4553
  139MOL    H3525151   3.393   7.837   5.883  0.1010  3.5904 -0.3575
  139MOL    H3625152   3.199   7.738   5.736  1.1812 -0.9645 -0.6569
  139MOL    H3725153   3.106   7.834   5.434  2.5382  0.9312  0.2013
  139MOL    C3825154   3.153   0.082   5.801 -0.0630 -0.1531 -0.4838
  139MOL    C3925155   3.126   0.059   5.956 -0.6819 -0.3721 -0.5380
  139MOL    C4025156   3.085   7.770   5.985 -0.6229 -0.4146 -0.9015
  139MOL    O4125157   3.018   7.694   5.918 -0.4334  0.1610  0.6960
  139MOL    O4225158   3.127   7.741   6.114 -0.0254  0.0103 -0.3456
  139MOL    H4325159   3.054   0.081   5.755  0.1944  1.9229 -1.1610
  139MOL    H4425160   3.185   0.184   5.780  0.3031 -0.0019  0.7809
  139MOL    H4525161   3.224   0.075   6.002 -0.7810  0.3708 -0.5765
  139MOL    H4625162   3.080   7.661   6.131  4.3243 -3.0047 -1.6681
  139MOL    C4725163   3.021   0.149   6.028 -0.1526  0.0584 -0.4762
  139MOL    C4825164   3.025   0.299   5.999 -0.1004  0.0190  0.1841
  139MOL    C4925165   3.148   0.364   6.066 -0.1660 -0.3371 -0.2501
  139MOL    O5025166   3.211   0.460   6.012 -0.0358  0.2659 -0.2195
  139MOL    O5125167   3.184   0.303   6.177 -0.0557  0.0608  0.2692
  139MOL    H5225168   3.033   0.136   6.135  0.6832 -0.7070 -0.6558
  139MOL    H5325169   2.923   0.109   6.003 -0.8536  0.6625  1.2080
  139MOL    H5425170   3.034   0.315   5.892  0.5283  0.0289  0.2383
  139MOL    H5525171   3.263   0.343   6.212 -0.4238  0.5781  0.5160
  139MOL    C5625172   2.895   0.362   6.050 -1.2292 -0.0604  0.1751
  139MOL    C5725173   2.868   0.499   5.986 -0.2157  0.5968  0.4448
  139MOL    C5825174   2.762   0.572   6.067  0.5078 -0.5438  0.5122
  139MOL    O5925175   2.792   0.667   6.140 -0.0081  0.5393  0.4766
  139MOL    O6025176   2.640   0.529   6.038 -0.2428  0.0514 -0.3892
  139MOL    H6125177   2.899   0.375   6.158  3.3728 -0.7076  0.1848
  139MOL    H6225178   2.814   0.291   6.031 -1.9380  0.9756 -0.7297
  139MOL    H6325179   2.958   0.559   6.001 -0.1713  0.7878 -0.5807
  139MOL    H6425180   2.575   0.582   6.083 -1.2407 -1.6247  0.1861
  139MOL    C6525181   2.837   0.508   5.839  0.0844 -0.5279  0.4343
  139MOL    C6625182   2.865   0.651   5.762 -0.9050  0.6726  0.3764
  139MOL    C6725183   2.827   0.653   5.612  0.4632  0.7961  0.2295
  139MOL    O6825184   2.753   0.732   5.553  0.1643  0.7355 -0.8297
  139MOL    O6925185   2.888   0.543   5.553 -0.0830 -0.4378 -0.3969
  139MOL    H7025186   2.738   0.471   5.812  0.9363 -2.0927 -0.6411
  139MOL    H7125187   2.904   0.439   5.788  0.5472  0.6969 -0.6479
  139MOL    H7225188   2.795   0.724   5.802 -1.0437  1.1930 -0.8072
  139MOL    H7325189   2.860   0.542   5.463  2.1808  2.2525 -1.2141
  139MOL    C7425190   3.006   0.706   5.772  0.4545  0.0107 -0.8709
  139MOL    C7525191   3.036   0.813   5.881  0.7346  0.1251  0.0592
  139MOL    C7625192   2.956   0.938   5.861 -0.2125 -0.9202  0.6578
  139MOL    O7725193   2.870   0.952   5.775 -0.8886  0.1004  0.4198
  139MOL    O7825194   2.985   1.036   5.952 -0.3281 -0.0990 -1.0795
  139MOL    H7925195   3.047   0.732   5.674 -0.9380 -3.2070 -2.3668
  139MOL    H8025196   3.069   0.619   5.791  2.5743  1.4745 -0.9296
  139MOL    H8125197   3.010   0.774   5.979 -0.1550  4.0247  1.4408
  139MOL    H8225198   2.940   1.119   5.944  1.1011  0.8483  0.4343
  139MOL    C8325199   3.186   0.841   5.879 -0.3432 -0.2586 -0.0964
  139MOL    C8425200   3.257   0.929   5.990 -0.1677 -0.1478 -0.1398
  139MOL    C8525201   3.412   0.939   5.959  0.4882 -0.3309  0.8846
  139MOL    O8625202   3.507   0.890   6.023 -0.5243  0.3681  0.7492
  139MOL    O8725203   3.438   0.994   5.838  0.8897 -0.1696  0.6042
  139MOL    H8825204   3.210   0.870   5.776 -1.2648 -0.0047 -0.2478
  139MOL    H8925205   3.234   0.744   5.892  0.4048  0.3763  1.9867
  139MOL    H9025206   3.216   1.029   5.978 -1.2112 -0.9133 -3.3479
  139MOL    H9125207   3.527   0.984   5.809 -0.3052 -3.2470 -2.3782
  139MOL    C9225208   3.231   0.870   6.121  0.3791 -0.1097  0.1751
  139MOL    C9325209   3.246   0.972   6.240 -0.3557 -0.4253  0.6494
  139MOL    C9425210   3.283   0.908   6.376  0.1418  0.3200 -0.3512
  139MOL    O9525211   3.216   0.915   6.481 -1.0564  0.1215  0.0366
  139MOL    O9625212   3.393   0.838   6.365 -0.4218  0.3770  0.5127
  139MOL    H9725213   3.314   0.802   6.141  1.0766  0.6096 -0.2238
  139MOL    H9825214   3.143   0.806   6.126  1.1136 -1.0757  0.9491
  139MOL    H9925215   3.334   1.032   6.219 -0.1037 -1.3306 -0.8945
  139MOL   H10025216   3.428   0.800   6.444  0.4799 -0.3115 -0.2000
  139MOL   C10125217   3.134   1.081   6.262  0.1401  0.3531 -0.3576
  139MOL   C10225218   3.001   1.054   6.341 -0.2089  0.7775 -0.5188
  139MOL   C10325219   2.905   0.959   6.278  0.5654 -0.4946 -0.2529
  139MOL   O10425220   2.803   0.990   6.218  0.6245  0.0525  0.4482
  139MOL   O10525221   2.953   0.830   6.278 -0.0598  0.2799 -0.1467
  139MOL   H10625222   3.112   1.147   6.178 -1.7304  0.4077  0.1509
  139MOL   H10725223   3.191   1.149   6.325  0.2249 -0.8097  0.8650
  139MOL   H10825224   3.024   1.013   6.439  0.2414 -0.5070 -1.1458
  139MOL   H10925225   2.896   0.778   6.223  1.3851  0.6689 -2.0779
  139MOL   C11025226   2.932   1.184   6.383 -1.0479 -0.0004  0.2248
  139MOL   C11125227   2.883   1.273   6.269  0.0011  0.2984  0.5930
  139MOL   C11225228   2.986   1.369   6.218  0.2403 -0.0168  0.9702
  139MOL   O11325229   3.038   1.449   6.295 -0.0571  0.3212 -0.3559
  139MOL   O11425230   3.006   1.362   6.084 -0.2220 -0.0593  0.0564
  139MOL   H11525231   2.993   1.246   6.448 -0.9757  0.2193 -0.0502
  139MOL   H11625232   2.844   1.161   6.443 -1.0126 -1.4658 -0.2696
  139MOL   H11725233   2.861   1.208   6.184  1.5183 -0.8695  1.0694
  139MOL   H11825234   3.053   1.438   6.052  0.4053  0.4321  2.0327
  139MOL   C11925235   2.753   1.356   6.306  0.2200  0.1848  0.0408
  139MOL   C12025236   2.689   1.414   6.171 -0.0888 -0.4630  0.4503
  139MOL   C12125237   2.630   1.555   6.198 -0.5583  0.0121 -0.2537
  139MOL   O12225238   2.520   1.581   6.245  0.1866  0.4171  0.8981
  139MOL   O12325239   2.732   1.646   6.178  0.2687 -0.2290 -0.4394
  139MOL   H12425240   2.773   1.435   6.378  0.2364 -0.0381  0.2799
  139MOL   H12525241   2.683   1.296   6.365 -0.0061  0.4521  0.0432
  139MOL   H12625242   2.765   1.428   6.094 -0.0791  2.1087  0.8708
  139MOL   H12725243   2.701   1.729   6.211 -3.2225 -1.3461 -0.7390
  139MOL   C12825244   2.571   1.322   6.124 -0.6208 -0.5943  0.1680
  139MOL   C12925245   2.537   1.309   5.971  0.0090 -0.3901  0.3074
  139MOL   C13025246   2.649   1.237   5.890  0.2252 -0.0636 -0.1836
  139MOL   O13125247   2.757   1.206   5.943 -0.0148 -0.1429  0.1681
  139MOL   O13225248   2.616   1.203   5.759  0.6585 -0.2956 -0.0426
  139MOL   H13325249   2.483   1.328   6.188 -1.7069  0.0723 -1.3635
  139MOL   H13425250   2.610   1.227   6.161 -1.0865 -1.5270 -1.6937
  139MOL   H13525251   2.454   1.238   5.971  0.2867 -0.7689 -2.2668
  139MOL   H13625252   2.682   1.143   5.730 -0.8468 -1.6232 -0.8238
  139MOL   C13725253   2.502   1.447   5.904  0.3485 -0.5239 -0.1149
  139MOL   C13825254   2.354   1.498   5.942  0.1450  0.0730  0.9607
  139MOL   C13925255   2.248   1.420   5.852 -0.8070 -1.1799 -0.7378
  139MOL   O14025256   2.205   1.462   5.745 -0.3920 -0.6043  0.2014
  139MOL   O14125257   2.220   1.301   5.904  0.2450 -0.0949  0.2731
  139MOL   H14225258   2.518   1.450   5.796 -1.8918  0.4006 -0.4432
  139MOL   H14325259   2.568   1.525   5.943 -2.0773  1.1355  0.7937
  139MOL   H14425260   2.332   1.475   6.047 -1.9120 -0.0458  0.5184
  139MOL   H14525261   2.154   1.255   5.854  3.4763 -1.3886 -3.0110
  139MOL   C14625262   2.343   1.654   5.916 -0.1275 -0.1419  0.4450
  139MOL   C14725263   2.211   1.718   5.939  0.9549 -0.4937 -0.9554
  139MOL   C14825264   2.217   1.869   5.903 -0.6347 -0.1348 -0.1546
  139MOL   O14925265   2.316   1.936   5.923 -0.4892 -0.3019 -0.3679
  139MOL   O15025266   2.092   1.913   5.880  0.0904  0.1544  0.1689
  139MOL   H15125267   2.360   1.654   5.808 -1.9841 -3.0485  0.0797
  139MOL   H15225268   2.426   1.705   5.964  2.0662 -1.7070 -1.5325
  139MOL   H15325269   2.136   1.678   5.870 -0.1702  0.2019 -0.1461
  139MOL   H15425270   2.088   2.007   5.890 -1.4293  0.0365  0.8779
  139MOL   C15525271   2.169   1.717   6.098  0.8915  0.3742 -0.4720
  139MOL   C15625272   2.084   1.587   6.140  0.3838 -0.5322  0.1158
  139MOL   C15725273   1.933   1.613   6.103 -0.2631  0.4387 -0.1691
  139MOL   O15825274   1.868   1.710   6.139  0.0575  0.5068 -0.1367
  139MOL   O15925275   1.888   1.515   6.016 -0.3948  0.2728  0.1846
  139MOL   H16025276   2.105   1.804   6.117  1.5096  0.5990  0.6283
  139MOL   H16125277   2.258   1.736   6.157  1.1559 -1.5844 -0.2181
  139MOL   H16225278   2.114   1.495   6.090 -1.9853 -0.4412 -1.5569
  139MOL   H16325279   1.802   1.534   5.983 -0.4945 -2.4377 -1.2613
  139MOL   C16425280   2.096   1.575   6.297  0.2563 -0.1433 -0.2603
  139MOL   C16525281   2.030   1.466   6.385  0.5829 -0.0486  0.4387
  139MOL   C16625282   2.032   1.327   6.314  0.0377 -0.6459  0.9511
  139MOL   O16725283   1.934   1.262   6.270 -0.0262  0.1836  0.3766
  139MOL   O16825284   2.161   1.288   6.306  0.7867  0.0692 -0.0384
  139MOL   H16925285   2.085   1.669   6.351  2.1209 -0.3962  0.5943
  139MOL   H17025286   2.200   1.564   6.325 -0.3127 -2.0946  1.1555
  139MOL   H17125287   2.088   1.446   6.475 -1.4085 -3.1850  1.1054
  139MOL   H17225288   2.157   1.211   6.251 -3.0632  1.1312 -1.3705
  139MOL   C17325289   1.883   1.513   6.412  0.5064 -0.3391  0.2860
  139MOL   C17425290   1.819   1.428   6.533 -0.4180  0.4974 -0.1685
  139MOL   C17525291   1.872   1.470   6.673 -0.0988 -0.1624  0.3279
  139MOL   O17625292   1.978   1.453   6.724  0.0007 -0.2548 -0.0875
  139MOL   O17725293   1.781   1.543   6.739  0.1876 -0.0130  0.4072
  139MOL   H17825294   1.825   1.493   6.322  0.7374  1.3221 -0.2539
  139MOL   H17925295   1.872   1.621   6.423  2.6348  0.0146 -0.7545
  139MOL   H18025296   1.711   1.416   6.523 -0.5183  0.3085  1.0307
  139MOL   H18125297   1.819   1.573   6.820  1.9067 -1.9782  0.3716
  139MOL   H18225298   1.849   1.324   6.527  0.2150  0.6636  0.1062
  140MOL     C125299   6.054   1.422   1.814 -0.0754 -0.6706  0.1897
  140MOL     C225300   6.038   1.474   1.957  0.0386 -0.2332  0.1137
  140MOL     C325301   5.898   1.457   2.015 -0.2546  0.4029 -0.0726
  140MOL     O425302   5.797   1.493   1.954 -0.2812  0.2068 -0.2610
  140MOL     O525303   5.899   1.382   2.127 -0.3817 -0.0701 -0.0973
  140MOL     H625304   6.159   1.398   1.801  0.0106 -0.5315  0.6383
  140MOL     H725305   5.994   1.332   1.807 -2.3155  0.8528 -0.8256
  140MOL     H825306   6.089   1.407   2.026 -0.5479 -0.0256  0.7550
  140MOL     H925307   5.812   1.364   2.161 -0.3107 -2.0655 -0.9012
  140MOL    H1025308   6.015   1.483   1.732  0.4628 -1.0612 -0.3644
  140MOL    C1125309   6.073   1.625   1.960 -0.1568 -0.8786 -0.4934
  140MOL    C1225310   6.222   1.660   1.937 -0.7123  0.7085 -0.0239
  140MOL    C1325311   6.319   1.604   2.049  0.6326 -0.0163  0.2105
  140MOL    O1425312   6.376   1.494   2.044  0.0668  0.3956  0.1881
  140MOL    O1525313   6.311   1.680   2.163  0.0523 -0.5719 -0.6105
  140MOL    H1625314   6.042   1.661   2.058 -0.8979  0.5783 -1.2355
  140MOL    H1725315   6.024   1.691   1.888  1.1534  0.0300 -0.5656
  140MOL    H1825316   6.248   1.618   1.841  0.1499  1.0204  0.0678
  140MOL    H1925317   6.379   1.651   2.222  1.1926  1.8047 -0.7152
  140MOL    C2025318   6.250   1.810   1.920  1.0535 -0.3860 -0.1374
  140MOL    C2125319   6.392   1.843   1.865 -0.6277 -0.5737 -0.2316
  140MOL    C2225320   6.428   1.977   1.932 -0.1343 -0.2614 -0.1240
  140MOL    O2325321   6.412   2.083   1.870  0.2123 -0.1330 -0.1080
  140MOL    O2425322   6.474   1.966   2.059  0.4334 -0.0374 -0.3027
  140MOL    H2525323   6.224   1.857   2.015  0.8420 -0.4159 -0.1789
  140MOL    H2625324   6.182   1.858   1.849 -1.0220 -1.9291  0.7674
  140MOL    H2725325   6.459   1.770   1.910 -1.7823 -1.4942  0.0235
  140MOL    H2825326   6.495   2.056   2.080  1.0920 -0.5579  1.3420
  140MOL    C2925327   6.403   1.835   1.709  0.4011 -0.2768  0.4226
  140MOL    C3025328   6.545   1.811   1.652  0.1209 -0.2974 -0.5752
  140MOL    C3125329   6.613   1.943   1.628  0.6575 -0.2562  0.2794
  140MOL    O3225330   6.598   2.014   1.527 -0.4092  0.4130 -0.3500
  140MOL    O3325331   6.681   1.975   1.734  0.0148  0.1413 -0.3761
  140MOL    H3425332   6.349   1.919   1.665 -1.2907 -1.3622  0.4046
  140MOL    H3525333   6.353   1.747   1.669  0.6114 -0.4088  0.4485
  140MOL    H3625334   6.612   1.753   1.715  1.7158  0.6846 -1.3414
  140MOL    H3725335   6.716   2.063   1.729 -2.7288  1.3126  0.2608
  140MOL    C3825336   6.560   1.715   1.527 -1.1188  0.2908  0.3907
  140MOL    C3925337   6.708   1.672   1.499 -0.1111 -0.3112  0.2105
  140MOL    C4025338   6.784   1.784   1.420 -0.5210  0.1297 -0.5207
  140MOL    O4125339   6.865   1.859   1.471  0.1743  0.8050 -0.0583
  140MOL    O4225340   6.742   1.799   1.292 -0.2770 -0.0095 -0.2564
  140MOL    H4325341   6.512   1.755   1.438 -0.5440 -3.1167 -1.5129
  140MOL    H4425342   6.498   1.626   1.538 -0.2430 -0.3588  0.0650
  140MOL    H4525343   6.760   1.650   1.592 -0.4868 -3.1108 -0.2024
  140MOL    H4625344   6.798   1.874   1.283 -0.5190  0.4042  1.4881
  140MOL    C4725345   6.716   1.535   1.414 -0.8577  0.1569 -1.0809
  140MOL    C4825346   6.687   1.392   1.476  0.7764 -0.0612  0.1544
  140MOL    C4925347   6.778   1.369   1.600  0.1503 -0.4112  0.4237
  140MOL    O5025348   6.883   1.433   1.627 -0.2299  1.2987 -0.2425
  140MOL    O5125349   6.735   1.272   1.689 -0.1560 -0.2460  0.4279
  140MOL    H5225350   6.816   1.544   1.371 -0.8968  1.2433 -0.9672
  140MOL    H5325351   6.648   1.539   1.330 -3.6924  2.6311  1.2127
  140MOL    H5425352   6.583   1.393   1.508  1.4319 -0.8076  2.4336
  140MOL    H5525353   6.803   1.248   1.750  2.6715  2.5253 -1.4863
  140MOL    C5625354   6.696   1.279   1.368  0.1232 -0.5817 -0.1918
  140MOL    C5725355   6.614   1.150   1.394  0.4961 -0.8890  0.7895
  140MOL    C5825356   6.668   1.014   1.343 -0.1340 -0.7226 -0.2820
  140MOL    O5925357   6.632   0.902   1.387 -0.1965  0.2060 -0.3608
  140MOL    O6025358   6.765   1.033   1.250  0.6020  0.0565 -0.1954
  140MOL    H6125359   6.801   1.248   1.372  0.7243  1.0658 -2.4170
  140MOL    H6225360   6.665   1.314   1.270 -2.0372  0.9568  1.0105
  140MOL    H6325361   6.621   1.137   1.502  1.6454  0.3414  0.8745
  140MOL    H6425362   6.785   0.952   1.206 -2.9801 -0.1641 -1.5669
  140MOL    C6525363   6.464   1.161   1.357 -1.0370 -0.1051  0.0724
  140MOL    C6625364   6.408   1.218   1.220 -0.2478 -0.3436 -0.4409
  140MOL    C6725365   6.263   1.264   1.246 -0.0126 -0.0547 -0.0768
  140MOL    O6825366   6.159   1.208   1.196 -0.4206  0.4821 -0.4390
  140MOL    O6925367   6.255   1.355   1.347 -0.4311 -0.3258  0.3794
  140MOL    H7025368   6.415   1.205   1.444 -1.2179  0.8420 -0.4999
  140MOL    H7125369   6.425   1.060   1.368 -1.4853 -0.1809 -1.9037
  140MOL    H7225370   6.461   1.313   1.212  0.2236 -0.2846  2.6005
  140MOL    H7325371   6.169   1.352   1.385 -1.0814 -1.1624 -1.1078
  140MOL    C7425372   6.430   1.122   1.091  0.1031 -0.0505 -0.1385
  140MOL    C7525373   6.453   1.196   0.952  0.2671 -0.2772 -0.1513
  140MOL    C7625374   6.357   1.125   0.855  0.5314  0.8765  0.1422
  140MOL    O7725375   6.384   1.012   0.809 -0.1520  0.7777  0.1454
  140MOL    O7825376   6.241   1.195   0.833  0.5766 -1.0155  0.1303
  140MOL    H7925377   6.358   1.040   1.090  0.4260 -0.3596  1.3155
  140MOL    H8025378   6.522   1.071   1.115 -0.9437 -0.6230  2.9081
  140MOL    H8125379   6.427   1.299   0.975  0.0671  0.2620 -2.6912
  140MOL    H8225380   6.192   1.154   0.764  1.1392 -0.3668 -0.6598
  140MOL    C8325381   6.593   1.189   0.889  0.4811 -0.2004  0.2212
  140MOL    C8425382   6.714   1.252   0.969 -0.2187 -0.2415  0.2493
  140MOL    C8525383   6.721   1.403   0.935  0.4703 -0.3139  0.3522
  140MOL    O8625384   6.772   1.453   0.838 -0.3194  0.3905 -0.8390
  140MOL    O8725385   6.658   1.473   1.039 -0.2255  0.0678 -0.9069
  140MOL    H8825386   6.592   1.251   0.799 -1.3545  1.4018  1.3165
  140MOL    H8925387   6.617   1.091   0.850 -0.4075 -0.0987 -0.6093
  140MOL    H9025388   6.705   1.237   1.076  0.6359 -2.8955 -0.0267
  140MOL    H9125389   6.666   1.567   1.026 -1.6141  0.4480  0.8577
  140MOL    C9225390   6.844   1.176   0.931  0.0598 -0.7927  0.1329
  140MOL    C9325391   6.974   1.247   0.952 -0.5889 -0.1597 -0.0295
  140MOL    C9425392   7.088   1.163   0.896 -0.5813 -0.4209  0.1701
  140MOL    O9525393   7.098   1.046   0.932  0.2365 -0.2078 -0.5546
  140MOL    O9625394   7.165   1.228   0.807  0.1368  0.6876  0.1529
  140MOL    H9725395   6.838   1.156   0.824  0.0945 -3.0232  0.5218
  140MOL    H9825396   6.862   1.076   0.970 -1.6715 -0.4513  1.8771
  140MOL    H9925397   6.980   1.347   0.910  0.3812  1.3172  3.3855
  140MOL   H10025398   7.240   1.173   0.789 -1.8065 -2.6381  1.6652
  140MOL   C10125399   6.999   1.275   1.105  0.0052 -0.3880 -0.4216
  140MOL   C10225400   7.128   1.359   1.140  0.4614 -0.5207  0.1967
  140MOL   C10325401   7.156   1.368   1.289 -0.4772  0.3782  0.0469
  140MOL   O10425402   7.249   1.319   1.344 -0.3089 -0.4820  1.3092
  140MOL   O10525403   7.054   1.426   1.357 -0.0739 -0.3588 -0.1131
  140MOL   H10625404   7.021   1.183   1.160 -1.9445  0.5376  2.0212
  140MOL   H10725405   6.916   1.321   1.158  0.1587 -0.2526 -0.2997
  140MOL   H10825406   7.218   1.321   1.091  1.2716  2.3601 -0.7043
  140MOL   H10925407   7.080   1.403   1.445  1.3499 -2.2184 -0.9706
  140MOL   C11025408   7.136   1.500   1.080 -0.7913  0.7414  0.2230
  140MOL   C11125409   7.243   1.596   1.130  0.1452 -0.3080 -0.7527
  140MOL   C11225410   7.206   1.743   1.097 -0.5974  0.1724  0.0817
  140MOL   O11325411   7.265   1.814   1.014  0.0968 -0.1026 -0.0822
  140MOL   O11425412   7.093   1.793   1.167 -0.2295  0.3666 -0.1386
  140MOL   H11525413   7.042   1.553   1.093 -0.1497  1.3597  2.5990
  140MOL   H11625414   7.147   1.493   0.971 -0.1239  4.4970 -0.0017
  140MOL   H11725415   7.236   1.604   1.239  1.1280 -1.0068 -0.6297
  140MOL   H11825416   7.091   1.887   1.179  0.4854 -0.0024  3.4546
  140MOL   C11925417   7.382   1.549   1.075 -0.4475  0.0822  0.1868
  140MOL   C12025418   7.507   1.622   1.132 -0.5483 -0.1719 -0.5701
  140MOL   C12125419   7.595   1.679   1.022  0.3210  0.5505  0.0768
  140MOL   O12225420   7.706   1.643   0.991 -0.4476  0.3301  0.0255
  140MOL   O12325421   7.529   1.774   0.954 -0.6372 -0.2206 -0.1328
  140MOL   H12425422   7.381   1.563   0.967  3.3501  1.7868  0.2827
  140MOL   H12525423   7.389   1.441   1.085 -0.0645  0.1370  0.5584
  140MOL   H12625424   7.467   1.707   1.187  0.2870 -0.0713 -0.1067
  140MOL   H12725425   7.439   1.795   0.973 -0.1804  1.0420  0.7245
  140MOL   C12825426   7.586   1.548   1.237 -0.3932  0.0802 -0.3611
  140MOL   C12925427   7.599   1.603   1.383  0.0153 -0.0131 -0.3016
  140MOL   C13025428   7.461   1.617   1.443  0.6949  0.0381  0.2633
  140MOL   O13125429   7.391   1.717   1.437 -0.5600 -0.0503  0.5744
  140MOL   O13225430   7.411   1.499   1.503 -0.2169  0.3780 -0.0857
  140MOL   H13325431   7.689   1.528   1.208 -0.0105  0.7036  0.5266
  140MOL   H13425432   7.551   1.445   1.240  0.7699 -0.2997  0.7859
  140MOL   H13525433   7.652   1.527   1.441 -0.5795  0.5946  1.0637
  140MOL   H13625434   7.320   1.512   1.527  0.2473  0.0410  1.9752
  140MOL   C13725435   7.667   1.735   1.381 -0.0852 -0.4764 -0.5875
  140MOL   C13825436   7.759   1.762   1.507  0.0982 -0.2083  0.3457
  140MOL   C13925437   0.013   1.649   1.540  0.1943 -0.1523  0.1872
  140MOL   O14025438   0.018   1.598   1.652 -0.1415  0.2482  0.1279
  140MOL   O14125439   0.092   1.618   1.430  0.4322 -0.0878  0.0517
  140MOL   H14225440   7.602   1.819   1.355 -1.7037 -1.6839 -0.4955
  140MOL   H14325441   7.730   1.752   1.294 -0.8988  1.0645 -0.8929
  140MOL   H14425442   7.815   1.852   1.481 -0.3607 -0.5230 -1.8160
  140MOL   H14525443   0.166   1.566   1.460 -0.3923  0.6971  3.7326
  140MOL   C14625444   7.678   1.799   1.632 -0.0193 -0.3354  0.6990
  140MOL   C14725445   7.765   1.874   1.743 -0.0651 -0.1120 -0.7041
  140MOL   C14825446   7.700   1.858   1.876 -0.1453  0.0382 -0.4852
  140MOL   O14925447   7.670   1.951   1.951  0.5764  0.5470  0.3981
  140MOL   O15025448   7.696   1.725   1.921  0.0584 -0.4036  0.1691
  140MOL   H15125449   7.632   1.711   1.676 -1.9238 -1.3863 -3.2452
  140MOL   H15225450   7.605   1.870   1.593  3.0117  3.0077  0.7858
  140MOL   H15325451   7.852   1.813   1.766  0.2436  0.8484  0.7502
  140MOL   H15425452   7.665   1.732   2.010 -1.5195 -2.0183 -0.2325
  140MOL   C15525453   7.803   2.023   1.703  0.2607 -0.3837 -0.3546
  140MOL   C15625454   0.062   2.093   1.792 -0.4408  0.2120  0.3088
  140MOL   C15725455   0.070   2.250   1.788  0.3250 -0.7785 -0.2857
  140MOL   O15825456   0.052   2.322   1.882  0.5893  0.0015 -0.0002
  140MOL   O15925457   0.120   2.290   1.668  0.7065 -0.2844 -0.7514
  140MOL   H16025458   7.723   2.090   1.733  0.3426 -0.4307 -0.0355
  140MOL   H16125459   7.829   2.040   1.598 -0.2265 -0.0691 -0.4220
  140MOL   H16225460   0.031   2.077   1.895 -0.2921  0.7544  0.4393
  140MOL   H16325461   0.164   2.373   1.672 -0.3402  0.2020  1.2594
  140MOL   C16425462   0.201   2.024   1.774  0.9023 -0.0242  0.0579
  140MOL   C16525463   0.291   2.042   1.644 -0.2000  0.3507  0.0771
  140MOL   C16625464   0.231   1.966   1.521 -0.0526  0.4666 -0.2345
  140MOL   O16725465   0.265   1.847   1.495  0.2125 -0.4073  0.3324
  140MOL   O16825466   0.157   2.048   1.436 -0.2715  0.2389  0.6982
  140MOL   H16925467   0.196   1.917   1.792  4.0815 -0.1828  0.2619
  140MOL   H17025468   0.265   2.052   1.858  2.7759 -1.2145 -0.9234
  140MOL   H17125469   0.299   2.149   1.623 -0.2661 -0.0297 -1.9711
  140MOL   H17225470   0.134   2.009   1.353  0.7153 -0.0140  0.5383
  140MOL   C17325471   0.434   1.977   1.676  0.1459  0.3385 -0.1772
  140MOL   C17425472   0.544   1.998   1.569 -0.0644  0.3880  0.2302
  140MOL   C17525473   0.565   2.137   1.509 -0.3340  0.0346 -0.2569
  140MOL   O17625474   0.574   2.158   1.386 -0.1232  0.5320  0.2800
  140MOL   O17725475   0.557   2.231   1.608  0.4651  0.2039  0.2768
  140MOL   H17825476   0.431   1.869   1.694  2.0564  0.5008  1.3073
  140MOL   H17925477   0.483   2.021   1.762 -0.6403 -0.5767  0.7524
  140MOL   H18025478   0.638   1.968   1.613  0.8975  1.2875 -1.1669
  140MOL   H18125479   0.544   2.317   1.572 -3.5835 -0.3011  0.2189
  140MOL   H18225480   0.535   1.933   1.481 -2.4690  1.1803 -0.1589
  141MOL     C125481   7.116   6.237   3.559 -0.0869 -0.5149  0.4045
  141MOL     C225482   7.001   6.148   3.505 -0.6730 -0.3508 -0.6247
  141MOL     C325483   6.896   6.120   3.620  0.4087  0.0200 -0.2985
  141MOL     O425484   6.907   6.155   3.736 -0.2002 -0.0919  0.1002
  141MOL     O525485   6.792   6.049   3.570  0.0352  0.3614 -0.2484
  141MOL     H625486   7.148   6.296   3.473  0.8491 -0.9913  0.4219
  141MOL     H725487   7.082   6.307   3.635  1.3565 -0.3557  0.9106
  141MOL     H825488   6.948   6.212   3.435 -0.6045 -0.4329 -0.7519
  141MOL     H925489   6.726   6.029   3.635 -0.2582 -0.2225 -0.7142
  141MOL    H1025490   7.208   6.184   3.586  0.1876 -0.3086 -0.1266
  141MOL    C1125491   7.041   6.010   3.438  0.7813 -0.4760 -0.1915
  141MOL    C1225492   6.983   5.994   3.293  0.8225 -0.2554 -1.0050
  141MOL    C1325493   6.978   5.850   3.238 -0.1604 -0.5353  0.0059
  141MOL    O1425494   6.986   5.750   3.309 -0.9722  0.0604  0.4458
  141MOL    O1525495   6.968   5.843   3.101 -0.6251  0.2943 -0.1408
  141MOL    H1625496   7.000   5.932   3.502 -1.1554 -0.6660 -1.6430
  141MOL    H1725497   7.150   6.000   3.444  1.1220  1.9167 -1.4964
  141MOL    H1825498   6.877   6.020   3.301  0.9079 -0.1650 -0.1822
  141MOL    H1925499   6.982   5.753   3.074  0.0151 -0.4959  2.6348
  141MOL    C2025500   7.041   6.105   3.193  0.0372 -0.0122  0.1072
  141MOL    C2125501   7.180   6.087   3.127  0.7875  0.0982  0.3466
  141MOL    C2225502   7.296   6.102   3.233 -0.1202  0.2273 -0.1194
  141MOL    O2325503   7.331   6.211   3.288  0.0296  0.6194 -0.6307
  141MOL    O2425504   7.355   5.983   3.259 -0.4123 -0.2620  0.1868
  141MOL    H2525505   7.059   6.196   3.250  2.2902  0.8791 -1.9540
  141MOL    H2625506   6.970   6.122   3.112 -0.8974 -0.8958  0.7218
  141MOL    H2725507   7.186   5.993   3.072  0.0782  1.2480 -1.7047
  141MOL    H2825508   7.435   5.997   3.308 -1.4453  1.0054  1.5644
  141MOL    C2925509   7.204   6.200   3.026 -0.2834 -0.6283  0.0404
  141MOL    C3025510   7.144   6.172   2.889  0.2228  1.2211 -0.5560
  141MOL    C3125511   7.190   6.058   2.809  0.2555  0.5186  0.3046
  141MOL    O3225512   7.295   6.001   2.837 -0.4668 -0.3690 -0.5446
  141MOL    O3325513   7.100   6.023   2.712 -0.0259  0.3826 -0.3167
  141MOL    H3425514   7.312   6.202   3.007 -0.0031 -3.1242  1.1113
  141MOL    H3525515   7.172   6.295   3.068  1.1360 -0.2844  0.3722
  141MOL    H3625516   7.042   6.140   2.913  0.2410  0.8086 -1.0157
  141MOL    H3725517   7.142   5.948   2.674 -0.2855 -0.4534  0.9878
  141MOL    C3825518   7.122   6.292   2.793  0.3157  0.2672 -0.0499
  141MOL    C3925519   6.996   6.374   2.811  0.0028 -0.3961  0.4098
  141MOL    C4025520   6.873   6.302   2.765  0.5597  0.2386 -0.1606
  141MOL    O4125521   6.807   6.250   2.852  0.1978 -0.0587  0.0628
  141MOL    O4225522   6.849   6.298   2.627 -0.1044 -0.0812  0.3863
  141MOL    H4325523   7.126   6.261   2.688 -0.4080  2.0145 -0.6114
  141MOL    H4425524   7.211   6.353   2.787 -0.5111  1.3130 -2.9530
  141MOL    H4525525   6.983   6.401   2.915 -0.8507  1.3294 -0.1250
  141MOL    H4625526   6.769   6.255   2.600 -0.3211  0.2782  0.4529
  141MOL    C4725527   7.004   6.500   2.725 -0.1076  0.2608 -0.4417
  141MOL    C4825528   7.080   6.620   2.802  0.3007 -0.4940 -0.2084
  141MOL    C4925529   6.980   6.712   2.873  0.6951  0.0282  0.0012
  141MOL    O5025530   6.875   6.671   2.927  0.2749 -0.8567  0.2967
  141MOL    O5125531   7.021   6.840   2.879  0.8859  0.5163 -0.4166
  141MOL    H5225532   6.910   6.532   2.681  0.5378  0.1219 -1.9529
  141MOL    H5325533   7.078   6.476   2.648  1.4365 -1.1106  1.4281
  141MOL    H5425534   7.129   6.573   2.887 -1.1288 -1.4435  0.1205
  141MOL    H5525535   6.951   6.891   2.916 -0.9899 -1.7384 -0.7305
  141MOL    C5625536   7.187   6.703   2.719 -0.7325 -0.8735 -0.3562
  141MOL    C5725537   7.277   6.621   2.619 -0.3814 -0.4702  0.4500
  141MOL    C5825538   7.418   6.684   2.632 -1.0824  0.8714 -0.4973
  141MOL    O5925539   7.472   6.746   2.539  0.1096 -0.6205  0.2498
  141MOL    O6025540   7.478   6.651   2.747 -0.1919  0.2405 -0.0709
  141MOL    H6125541   7.245   6.754   2.796 -0.3002 -1.7549 -0.0835
  141MOL    H6225542   7.146   6.789   2.666 -0.2526 -0.1840  0.3721
  141MOL    H6325543   7.283   6.518   2.656  0.4841 -0.5249  0.1768
  141MOL    H6425544   7.564   6.688   2.759  0.5885 -1.4651 -0.3083
  141MOL    C6525545   7.224   6.619   2.474  0.1749  0.2963 -0.1938
  141MOL    C6625546   7.290   6.528   2.363  0.6695 -0.0068 -0.1676
  141MOL    C6725547   7.270   6.596   2.225 -0.3621 -0.1931 -0.3953
  141MOL    O6825548   7.189   6.557   2.142 -0.1654  0.0270  0.3374
  141MOL    O6925549   7.347   6.707   2.210 -0.3044  0.2148  0.2718
  141MOL    H7025550   7.224   6.726   2.453 -0.9746  0.3044 -0.2201
  141MOL    H7125551   7.119   6.590   2.475  0.4889 -0.8875 -0.9385
  141MOL    H7225552   7.399   6.522   2.375  0.7099 -2.8489 -1.4786
  141MOL    H7325553   7.335   6.744   2.124  1.2295 -0.7571 -0.3804
  141MOL    C7425554   7.245   6.385   2.379 -0.3085  0.2011  0.1734
  141MOL    C7525555   7.343   6.278   2.334 -0.2908 -0.2182 -0.3415
  141MOL    C7625556   7.303   6.223   2.192  1.7783  0.4263  0.3093
  141MOL    O7725557   7.210   6.144   2.167 -0.3739  0.8111  0.3870
  141MOL    O7825558   7.390   6.273   2.101 -0.6397 -0.1952  0.2230
  141MOL    H7925559   7.145   6.377   2.338 -0.6048  0.1209  0.8999
  141MOL    H8025560   7.226   6.370   2.485 -2.3783  2.8227  0.2440
  141MOL    H8125561   7.440   6.326   2.324  0.0063 -0.9604 -1.0824
  141MOL    H8225562   7.382   6.239   2.013 -1.8700 -1.3498  0.7752
  141MOL    C8325563   7.364   6.165   2.439 -0.2618  0.5717  0.2697
  141MOL    C8425564   7.452   6.048   2.394 -0.0504  0.1037  0.0710
  141MOL    C8525565   7.462   5.955   2.516  0.5849 -0.7503 -0.3571
  141MOL    O8625566   7.499   5.995   2.620 -0.1960  0.1360 -0.1036
  141MOL    O8725567   7.430   5.830   2.484  0.0421  0.3516  0.6112
  141MOL    H8825568   7.262   6.128   2.453  0.9041 -1.7595  2.9020
  141MOL    H8925569   7.387   6.212   2.534  0.2614  2.7680 -0.9033
  141MOL    H9025570   7.404   5.995   2.311 -0.1414 -0.0473  0.2212
  141MOL    H9125571   7.435   5.767   2.554 -0.8052 -0.6630 -0.2151
  141MOL    C9225572   7.588   6.102   2.347  0.4942  0.1878  0.4668
  141MOL    C9325573   7.713   6.004   2.348  0.1421  0.1224  0.6023
  141MOL    C9425574   7.840   6.086   2.321  0.6935 -0.6994 -0.0163
  141MOL    O9525575   0.072   6.070   2.235 -0.1397 -0.6437 -0.1830
  141MOL    O9625576   0.002   6.180   2.412 -0.4647 -0.3641 -0.4685
  141MOL    H9725577   7.610   6.195   2.398  0.9720  0.0378  0.5340
  141MOL    H9825578   7.573   6.133   2.243 -2.3779 -1.3972  0.3558
  141MOL    H9925579   7.722   5.982   2.455 -0.2023  2.1487  1.0778
  141MOL   H10025580   0.066   6.245   2.385 -0.8478  0.1216 -0.2224
  141MOL   C10125581   7.694   5.870   2.268  1.1543 -0.2639 -0.3045
  141MOL   C10225582   7.710   5.882   2.113  0.4074  0.6999  0.1764
  141MOL   C10325583   7.578   5.831   2.044 -0.7562  0.3352  0.4354
  141MOL   O10425584   7.585   5.732   1.970  0.5049  0.3139  0.2008
  141MOL   O10525585   7.471   5.910   2.069 -0.2345 -0.2565 -0.0658
  141MOL   H10625586   7.606   5.814   2.299  0.8132  0.3356 -0.1963
  141MOL   H10725587   7.760   5.798   2.317  2.8071  1.3956 -0.0644
  141MOL   H10825588   7.717   5.988   2.088 -3.5619  0.2676 -3.3976
  141MOL   H10925589   7.404   5.868   2.019  0.5826  0.6464 -1.9599
  141MOL   C11025590   7.838   5.809   2.067 -0.8058 -0.0009  0.2189
  141MOL   C11125591   0.034   5.823   1.924 -0.6937  0.0498  0.1515
  141MOL   C11225592   0.146   5.731   1.885 -0.3018  0.3610 -0.9486
  141MOL   O11325593   0.164   5.692   1.771 -0.0725  0.3131  0.1593
  141MOL   O11425594   0.239   5.710   1.987  0.0520  0.4240 -0.3651
  141MOL   H11525595   7.831   5.702   2.086  1.1806  0.4050  3.6853
  141MOL   H11625596   0.063   5.840   2.137  0.1002  1.1386 -1.2464
  141MOL   H11725597   7.805   5.803   1.854 -1.5275 -1.2550  1.4850
  141MOL   H11825598   0.308   5.654   1.957  0.6461 -0.0698  1.8481
  141MOL   C11925599   0.086   5.964   1.890 -1.0176 -0.7955  0.0620
  141MOL   C12025600   0.101   5.993   1.736  1.2822  0.4606 -0.2227
  141MOL   C12125601   0.202   6.112   1.717  0.4902 -0.6624  0.1613
  141MOL   O12225602   0.304   6.101   1.655 -0.1089 -0.0315  0.1790
  141MOL   O12325603   0.159   6.219   1.784  0.1970 -0.0430  0.1578
  141MOL   H12425604   0.173   5.980   1.955 -0.6218 -0.3914 -0.5619
  141MOL   H12525605   0.021   6.044   1.924  0.1719 -0.2365  1.0642
  141MOL   H12625606   0.139   5.908   1.680 -1.0020  0.4271 -1.7833
  141MOL   H12725607   0.220   6.291   1.773  1.3614 -1.0078  0.1545
  141MOL   C12825608   7.812   6.021   1.678 -0.5772 -0.4893  0.1809
  141MOL   C12925609   7.803   6.031   1.523  0.7160  0.1044  0.1232
  141MOL   C13025610   7.658   6.015   1.487  0.5731  0.2041  0.2977
  141MOL   O13125611   7.606   5.907   1.457 -1.2443 -0.4344 -0.5274
  141MOL   O13225612   7.591   6.140   1.470  0.1085 -0.0812 -0.3927
  141MOL   H13325613   7.764   6.108   1.721 -0.1150  0.1627 -0.6035
  141MOL   H13425614   7.736   5.947   1.704 -1.1876 -0.2556 -0.8922
  141MOL   H13525615   7.831   6.132   1.492  1.3704 -0.6099 -1.6420
  141MOL   H13625616   7.507   6.143   1.425  0.3878  2.3235 -0.8464
  141MOL   C13725617   0.042   5.943   1.432 -0.1159 -0.1019 -0.6350
  141MOL   C13825618   0.065   5.984   1.283 -0.3911  0.1004  0.6085
  141MOL   C13925619   7.799   5.983   1.198  0.7624 -0.3150 -0.8718
  141MOL   O14025620   7.734   6.082   1.160  0.7698  0.3085  0.3596
  141MOL   O14125621   7.744   5.858   1.194 -0.2164 -0.1958 -0.1233
  141MOL   H14225622   0.001   5.842   1.430  1.1681 -0.6094 -1.5984
  141MOL   H14325623   0.143   5.925   1.469 -0.2153 -2.2640 -1.3566
  141MOL   H14425624   0.119   6.077   1.293  1.5746 -1.1444  1.7530
  141MOL   H14525625   7.790   5.788   1.239 -1.5145 -1.0847 -0.1454
  141MOL   C14625626   0.172   5.889   1.215  0.4823  0.2203 -0.2140
  141MOL   C14725627   0.230   5.940   1.070  0.1969 -0.4126  0.0287
  141MOL   C14825628   0.244   5.814   0.984 -0.0473  0.8067  0.3611
  141MOL   O14925629   0.352   5.767   0.951 -0.6349  0.9131 -0.8095
  141MOL   O15025630   0.124   5.758   0.957 -0.3988 -0.3742  0.9435
  141MOL   H15125631   0.134   5.787   1.212  0.2100  0.2243  2.4133
  141MOL   H15225632   0.258   5.887   1.280  0.7490 -1.0094 -0.5997
  141MOL   H15325633   0.151   5.996   1.020 -0.1601 -1.7645 -0.9634
  141MOL   H15425634   0.145   5.671   0.927  3.6955  1.1274 -1.0347
  141MOL   C15525635   0.360   6.020   1.088  0.1157 -0.5543  0.4648
  141MOL   C15625636   0.347   6.170   1.130 -0.9197  0.2696 -0.5015
  141MOL   C15725637   0.267   6.230   1.015 -1.3372  0.6559  0.1321
  141MOL   O15825638   0.303   6.226   0.900 -0.4431 -0.2542 -0.1556
  141MOL   O15925639   0.151   6.286   1.062  0.4013  0.3056  0.6717
  141MOL   H16025640   0.416   6.014   0.995 -1.0705  0.5061 -0.3307
  141MOL   H16125641   0.430   5.971   1.156 -2.9860 -2.5528  2.3053
  141MOL   H16225642   0.286   6.180   1.219 -2.7786 -0.8297 -1.6055
  141MOL   H16325643   0.086   6.314   0.999  0.6922 -0.5016  0.0018
  141MOL   C16425644   0.483   6.239   1.155 -1.4049  0.6000  0.2399
  141MOL   C16525645   0.577   6.195   1.268 -0.1582  0.3235 -0.1137
  141MOL   C16625646   0.501   6.198   1.400 -0.1551 -0.8370  0.2227
  141MOL   O16725647   0.526   6.282   1.486 -0.3097 -0.4134 -0.7091
  141MOL   O16825648   0.413   6.091   1.415  0.5645  0.0037 -0.3913
  141MOL   H16925649   0.463   6.346   1.160  0.4701  1.2695 -4.1337
  141MOL   H17025650   0.542   6.235   1.063  0.5544  1.5026  1.4428
  141MOL   H17125651   0.603   6.089   1.266 -1.0217  0.1087  0.2118
  141MOL   H17225652   0.370   6.091   1.499 -0.8301 -2.3584 -1.0432
  141MOL   C17325653   0.710   6.267   1.263 -0.0535 -0.0054 -0.0819
  141MOL   C17425654   0.810   6.220   1.377  0.1205 -0.4533 -0.5602
  141MOL   C17525655   0.880   6.089   1.350 -0.1566 -0.0864 -0.2571
  141MOL   O17625656   0.998   6.081   1.331 -0.2330 -0.1984  0.1260
  141MOL   O17725657   0.795   5.985   1.345  0.1271 -0.0546 -0.0431
  141MOL   H17825658   0.692   6.374   1.270 -1.0031 -0.2209  1.0406
  141MOL   H17925659   0.758   6.255   1.166  0.7380  0.0283  0.3085
  141MOL   H18025660   0.884   6.301   1.377 -2.8573  2.3829 -1.0898
  141MOL   H18125661   0.838   5.903   1.327  0.9407  0.0445  1.4022
  141MOL   H18225662   0.760   6.218   1.474 -0.4077 -0.6392 -0.8360
  142MOL     C125663   2.325   5.518   3.438  0.4838 -0.2603  0.1800
  142MOL     C225664   2.383   5.537   3.574 -0.6352 -0.0739 -0.3106
  142MOL     C325665   2.444   5.397   3.620 -0.2686  0.0430 -0.5448
  142MOL     O425666   2.566   5.381   3.623  0.3020  0.4141  0.4422
  142MOL     O525667   2.358   5.302   3.665 -0.6949 -0.1447  0.4730
  142MOL     H625668   2.247   5.442   3.428  0.6172 -0.1992 -1.5743
  142MOL     H725669   2.272   5.609   3.410 -2.8044 -2.0189  0.3128
  142MOL     H825670   2.467   5.607   3.578 -0.5377 -0.2039 -0.0099
  142MOL     H925671   2.268   5.329   3.667 -1.1773 -1.6395 -0.4593
  142MOL    H1025672   2.406   5.497   3.369  1.0592  1.3581  0.3522
  142MOL    C1125673   2.275   5.578   3.668  0.0957 -0.0501 -0.0986
  142MOL    C1225674   2.276   5.730   3.701 -0.0262 -0.2706  0.2834
  142MOL    C1325675   2.384   5.779   3.803 -1.1091 -0.6305  0.1013
  142MOL    O1425676   2.412   5.900   3.827 -0.0019  0.2541  0.5244
  142MOL    O1525677   2.457   5.682   3.861 -0.0359  1.0373 -0.0414
  142MOL    H1625678   2.286   5.534   3.767 -0.4972 -2.0170 -0.8894
  142MOL    H1725679   2.174   5.564   3.630  0.4160  1.7183 -1.6637
  142MOL    H1825680   2.316   5.778   3.611 -0.3505 -1.5360 -0.5615
  142MOL    H1925681   2.531   5.711   3.911  0.7014 -0.4605 -0.2356
  142MOL    C2025682   2.138   5.800   3.715 -0.0046  0.0957  0.5088
  142MOL    C2125683   2.028   5.764   3.822 -0.1960 -0.4725  0.5241
  142MOL    C2225684   2.079   5.780   3.962 -0.0879  0.6857  0.2625
  142MOL    O2325685   2.121   5.688   4.036 -0.4236 -0.0505  0.5994
  142MOL    O2425686   2.057   5.905   4.014 -0.4564 -0.1218 -0.4450
  142MOL    H2525687   2.096   5.797   3.615  0.3214  0.4001  0.3639
  142MOL    H2625688   2.153   5.907   3.729 -1.1604  0.3080  0.1429
  142MOL    H2725689   1.944   5.832   3.809  0.5534  0.3237 -0.2930
  142MOL    H2825690   2.082   5.901   4.105  1.0465 -0.0310 -0.8394
  142MOL    C2925691   1.950   5.638   3.794 -0.2981 -0.3953  0.3463
  142MOL    C3025692   1.810   5.620   3.863  0.6101  0.1084 -0.1869
  142MOL    C3125693   1.810   5.579   4.010  0.0862 -0.5224 -0.0213
  142MOL    O3225694   1.871   5.482   4.051 -0.1350 -0.0696  0.2610
  142MOL    O3325695   1.710   5.643   4.073  0.1040 -0.0385 -0.1425
  142MOL    H3425696   2.016   5.556   3.821  0.7776 -0.4188 -2.1665
  142MOL    H3525697   1.945   5.631   3.685  3.1258  0.2647  0.0738
  142MOL    H3625698   1.758   5.716   3.870  0.7235  0.0380  1.9473
  142MOL    H3725699   1.699   5.614   4.162 -0.3794 -0.2273 -0.2639
  142MOL    C3825700   1.713   5.528   3.784  0.2235 -0.1529 -0.0374
  142MOL    C3925701   1.557   5.527   3.826  0.3215  0.1412  0.6553
  142MOL    C4025702   1.492   5.402   3.764  0.1403  0.1770 -0.7598
  142MOL    O4125703   1.438   5.316   3.830  0.0738 -0.1811 -0.0993
  142MOL    O4225704   1.499   5.407   3.628 -0.4477  0.9830 -0.0579
  142MOL    H4325705   1.754   5.428   3.792  1.4772  0.4609  1.3661
  142MOL    H4425706   1.725   5.547   3.677 -1.5813 -2.6418 -0.7237
  142MOL    H4525707   1.552   5.513   3.934  2.3045 -0.4062  0.6840
  142MOL    H4625708   1.451   5.331   3.600 -0.7335  0.4273  1.8980
  142MOL    C4725709   1.486   5.662   3.808  0.6665 -0.5847 -0.1438
  142MOL    C4825710   1.343   5.670   3.870 -0.7079  0.3258 -0.1677
  142MOL    C4925711   1.237   5.667   3.759  0.6866  0.2249  0.3712
  142MOL    O5025712   1.159   5.580   3.731 -0.5778 -0.5755 -0.2914
  142MOL    O5125713   1.254   5.782   3.686  0.4095 -0.1340 -0.2523
  142MOL    H5225714   1.487   5.697   3.705 -2.5846  1.4171  0.4559
  142MOL    H5325715   1.547   5.735   3.860  0.5674 -0.5323 -0.1024
  142MOL    H5425716   1.326   5.576   3.923 -1.9527 -0.0992 -1.3019
  142MOL    H5525717   1.178   5.787   3.629  0.5058  2.6478 -0.1917
  142MOL    C5625718   1.334   5.777   3.976  0.5168  0.5251  0.4690
  142MOL    C5725719   1.206   5.781   4.075 -0.1730 -0.3929 -0.4148
  142MOL    C5825720   1.205   5.659   4.165  0.4002  1.0434 -0.1458
  142MOL    O5925721   1.122   5.569   4.158 -0.2236 -0.5091 -0.3493
  142MOL    O6025722   1.303   5.667   4.256 -0.4812  0.0106  1.3970
  142MOL    H6125723   1.346   5.870   3.921 -2.7515  1.1539  0.7192
  142MOL    H6225724   1.427   5.776   4.033  1.1564 -2.5461 -0.5255
  142MOL    H6325725   1.220   5.866   4.142 -0.8938 -2.5650  2.6182
  142MOL    H6425726   1.299   5.589   4.309  0.3149  0.3656  1.9861
  142MOL    C6525727   1.067   5.806   4.006 -0.2834 -0.5211 -0.4431
  142MOL    C6625728   1.054   5.933   3.909  0.3274 -0.1869 -0.6356
  142MOL    C6725729   1.065   6.059   3.999  0.4602  0.4217 -0.6002
  142MOL    O6825730   0.978   6.121   4.048  0.0267 -0.3681 -0.7382
  142MOL    O6925731   1.198   6.094   4.015 -0.3002 -0.7345 -0.2035
  142MOL    H7025732   0.999   5.826   4.089  0.1688  1.0242 -0.4321
  142MOL    H7125733   1.019   5.715   3.969  0.2084 -0.8202 -0.3545
  142MOL    H7225734   1.136   5.943   3.838 -0.3004 -2.8516 -1.7938
  142MOL    H7325735   1.219   6.144   4.092 -0.5192  0.8592 -1.1605
  142MOL    C7425736   0.914   5.946   3.842 -0.0948 -0.3354  0.3863
  142MOL    C7525737   0.874   5.845   3.738 -0.3252 -0.0037  0.0896
  142MOL    C7625738   0.936   5.874   3.603  0.3053 -0.5833  0.2248
  142MOL    O7725739   1.024   5.803   3.555 -0.1050  0.1431 -0.0453
  142MOL    O7825740   0.871   5.977   3.539  0.1493  0.4036  0.6482
  142MOL    H7925741   0.901   6.045   3.798  2.2558 -0.2263 -0.1230
  142MOL    H8025742   0.844   5.949   3.925  0.2443 -1.0255  0.7073
  142MOL    H8125743   0.913   5.747   3.767 -0.1238 -0.2938 -1.1662
  142MOL    H8225744   0.910   5.984   3.453  0.8088 -4.7578  0.3738
  142MOL    C8325745   0.718   5.830   3.727 -0.2022  0.1788 -0.3009
  142MOL    C8425746   0.667   5.712   3.633  0.1984  0.5285  0.6091
  142MOL    C8525747   0.521   5.751   3.584 -0.3218 -0.9144  0.2480
  142MOL    O8625748   0.499   5.781   3.465  0.6687 -0.3843  0.0158
  142MOL    O8725749   0.427   5.753   3.684 -0.0013  0.3366 -0.3380
  142MOL    H8825750   0.682   5.929   3.701  1.0962  1.3533  2.2133
  142MOL    H8925751   0.682   5.818   3.829  4.1684  0.6282  1.4031
  142MOL    H9025752   0.722   5.686   3.542  0.6407  0.3763  0.9210
  142MOL    H9125753   0.340   5.756   3.648 -0.3613  1.4211  0.6167
  142MOL    C9225754   0.654   5.582   3.718 -0.8331  0.4494  1.0385
  142MOL    C9325755   0.601   5.455   3.650 -0.6726  0.3205  0.6829
  142MOL    C9425756   0.603   5.337   3.751 -0.0508  0.3792 -0.9530
  142MOL    O9525757   0.501   5.312   3.814  0.2554  0.1922  0.0321
  142MOL    O9625758   0.727   5.283   3.766  0.3874  0.1047  0.3565
  142MOL    H9725759   0.594   5.598   3.808 -0.7056 -0.9460  1.3682
  142MOL    H9825760   0.756   5.558   3.748 -0.5463 -1.3261 -1.2743
  142MOL    H9925761   0.493   5.470   3.638 -0.5710 -0.2341 -1.0821
  142MOL   H10025762   0.728   5.207   3.823  1.4629  1.7380  2.5911
  142MOL   C10125763   0.644   5.419   3.509  0.1748  0.0104  0.5940
  142MOL   C10225764   0.780   5.347   3.468  0.5587 -0.8788  0.0038
  142MOL   C10325765   0.893   5.457   3.496 -0.4633  0.4366  0.0489
  142MOL   O10425766   0.907   5.562   3.445  0.5683 -0.1912 -0.4500
  142MOL   O10525767   0.979   5.417   3.594 -0.3814  0.2139  0.2760
  142MOL   H10625768   0.613   5.500   3.443 -2.3988  0.0380  1.8144
  142MOL   H10725769   0.568   5.345   3.487 -2.0929  2.0535  1.3859
  142MOL   H10825770   0.803   5.259   3.527  0.4502 -2.0183 -1.6093
  142MOL   H10925771   1.052   5.476   3.604 -1.2759  1.3066  0.5061
  142MOL   C11025772   0.780   5.309   3.318 -0.5318  0.1338 -0.5900
  142MOL   C11125773   0.911   5.252   3.252  0.5326  0.1916  0.0672
  142MOL   C11225774   0.901   5.266   3.100 -0.4391  0.7854 -0.6874
  142MOL   O11325775   0.798   5.276   3.041  0.7096  0.1669 -0.1662
  142MOL   O11425776   1.019   5.262   3.037 -0.1455 -0.5128  0.2458
  142MOL   H11525777   0.759   5.398   3.259  1.3329 -0.4997 -2.2535
  142MOL   H11625778   0.702   5.236   3.296 -1.0699  0.2004  1.0546
  142MOL   H11725779   0.991   5.317   3.289 -0.8856  0.1889  3.2519
  142MOL   H11825780   1.022   5.278   2.944  1.1479 -0.0847  0.3556
  142MOL   C11925781   0.939   5.100   3.290  0.4747 -0.0011  0.1911
  142MOL   C12025782   1.085   5.053   3.263 -0.2969  0.8891 -0.0440
  142MOL   C12125783   1.101   4.958   3.142 -1.1200  0.2600  0.7519
  142MOL   O12225784   1.015   4.919   3.070 -0.2612 -0.2447 -0.0453
  142MOL   O12325785   1.232   4.929   3.116 -0.4496 -0.0324 -0.3463
  142MOL   H12425786   0.872   5.036   3.232  2.2561 -0.8257 -0.9901
  142MOL   H12525787   0.904   5.083   3.392 -0.6497  2.6387  0.2866
  142MOL   H12625788   1.143   5.139   3.231  0.1154  0.6892  0.1584
  142MOL   H12725789   1.235   4.867   3.045  1.7172 -2.1814  1.5119
  142MOL   C12825790   1.141   4.988   3.393 -0.1263 -0.1400  0.1123
  142MOL   C12925791   1.144   5.078   3.523  0.4098  0.2758  0.5304
  142MOL   C13025792   1.235   5.199   3.510  0.1836  0.1711 -0.4953
  142MOL   O13125793   1.344   5.201   3.557  0.3358  0.0318 -0.0894
  142MOL   O13225794   1.188   5.300   3.433  0.0035  0.2631  0.1849
  142MOL   H13325795   1.242   4.958   3.365  0.0230  0.7034 -0.2677
  142MOL   H13425796   1.090   4.893   3.410  1.0643 -0.6432  0.9029
  142MOL   H13525797   1.042   5.114   3.537 -0.1008 -0.7755 -0.4411
  142MOL   H13625798   1.252   5.368   3.420 -0.4061  0.1707 -2.7060
  142MOL   C13725799   1.166   4.984   3.648  0.7363  0.4690  0.3251
  142MOL   C13825800   1.160   5.037   3.789 -0.6810 -0.3264  0.5336
  142MOL   C13925801   1.201   4.932   3.893 -0.3152  0.2212  0.0296
  142MOL   O14025802   1.140   4.823   3.902  0.2385  0.3660 -1.1683
  142MOL   O14125803   1.316   4.956   3.941  0.2890  0.3020  0.3571
  142MOL   H14225804   1.264   4.939   3.629  0.7090  0.8549 -0.7777
  142MOL   H14325805   1.092   4.905   3.655  1.1938 -0.1358 -1.3198
  142MOL   H14425806   1.241   5.109   3.801 -1.3461  0.0499  2.9555
  142MOL   H14525807   1.350   4.881   3.988 -0.3298 -2.1211 -2.9484
  142MOL   C14625808   1.028   5.102   3.820  0.5389 -0.9195 -1.0189
  142MOL   C14725809   0.991   5.149   3.962  0.6638  0.4035 -0.5158
  142MOL   C14825810   1.099   5.241   4.007 -0.3748  0.0589 -0.8057
  142MOL   O14925811   1.201   5.210   4.073 -0.9517 -0.1548  0.0812
  142MOL   O15025812   1.083   5.366   3.949 -0.3851  0.1320 -0.1232
  142MOL   H15125813   0.945   5.040   3.785  0.3576  0.6043 -3.4458
  142MOL   H15225814   1.011   5.192   3.762  1.1763 -0.0952  0.0514
  142MOL   H15325815   0.906   5.217   3.954  1.2501  1.7771  3.6971
  142MOL   H15425816   1.155   5.427   3.956  0.1001 -0.3355 -0.9732
  142MOL   C15525817   0.949   5.033   4.060 -0.1399  0.3660 -0.2933
  142MOL   C15625818   0.829   5.051   4.145  0.6012 -0.1538  0.8472
  142MOL   C15725819   0.704   5.060   4.060 -0.0137  0.2727  0.0197
  142MOL   O15825820   0.700   5.090   3.937 -0.1562  0.3604 -0.8467
  142MOL   O15925821   0.594   5.026   4.132 -0.5041 -0.4073  0.3298
  142MOL   H16025822   1.036   5.020   4.124 -1.5991 -0.4270  1.5789
  142MOL   H16125823   0.921   4.941   4.009 -2.4535  1.3777 -0.9047
  142MOL   H16225824   0.808   4.953   4.187 -0.4551  0.3229  1.4348
  142MOL   H16325825   0.519   5.053   4.082  0.2674 -2.1812 -1.8829
  142MOL   C16425826   0.829   5.157   4.255  0.0807  0.2639 -0.6424
  142MOL   C16525827   0.940   5.153   4.363 -0.1256  0.3467 -0.5365
  142MOL   C16625828   0.915   5.042   4.472  0.0264 -0.1154  0.4519
  142MOL   O16725829   0.800   5.022   4.497  0.1889  0.1679  0.0296
  142MOL   O16825830   1.028   4.979   4.515 -0.6571  0.5878 -0.3469
  142MOL   H16925831   0.732   5.174   4.303 -0.1383 -0.6900 -0.7403
  142MOL   H17025832   0.846   5.252   4.203  0.0546 -0.1451 -1.3952
  142MOL   H17125833   1.031   5.140   4.305  0.9421  1.4286  0.8525
  142MOL   H17225834   0.998   4.901   4.558 -0.6283  1.4839  1.3347
  142MOL   C17325835   0.951   5.295   4.434  0.3739  0.1145  1.1452
  142MOL   C17425836   0.824   5.357   4.515  0.2478  0.0826 -0.0987
  142MOL   C17525837   0.866   5.483   4.591 -0.5063  0.0607  0.2518
  142MOL   O17625838   0.986   5.513   4.619 -0.2591 -0.5009 -0.1922
  142MOL   O17725839   0.763   5.559   4.629 -0.0380  0.1702 -1.0294
  142MOL   H17825840   0.974   5.356   4.348 -1.0515 -0.7729  0.1086
  142MOL   H17925841   1.043   5.292   4.493  1.0912 -0.1718  0.0308
  142MOL   H18025842   0.741   5.383   4.449 -0.5051 -1.5718  0.1841
  142MOL   H18125843   0.790   5.625   4.692  0.7483 -1.6682  0.6244
  142MOL   H18225844   0.794   5.288   4.594  1.8204  0.4723  0.8522
  143MOL     C125845   4.963   5.902   1.060 -1.0362 -0.3142  0.2820
  143MOL     C225846   4.908   5.928   0.923  0.4799 -0.8837  0.1030
  143MOL     C325847   5.002   5.857   0.819 -0.6879 -0.8057  0.9166
  143MOL     O425848   5.124   5.875   0.818  0.0827  0.0070 -0.0279
  143MOL     O525849   4.935   5.775   0.736 -0.2343  0.5332 -0.8447
  143MOL     H625850   4.998   5.800   1.076 -1.3299 -0.2478  1.4498
  143MOL     H725851   5.043   5.971   1.089 -0.7608 -0.7669  0.6103
  143MOL     H825852   4.810   5.882   0.926 -0.9108  1.9957  0.4419
  143MOL     H925853   4.999   5.749   0.672  0.0836 -0.2018 -0.2266
  143MOL    H1025854   4.882   5.921   1.131 -1.0167  0.2764  0.1482
  143MOL    C1125855   4.883   6.078   0.906 -0.0267  0.7187  0.0013
  143MOL    C1225856   4.799   6.101   0.773 -0.3829 -0.2737  0.0048
  143MOL    C1325857   4.879   6.188   0.673 -0.0824 -0.0819  0.1164
  143MOL    O1425858   4.941   6.285   0.708  0.1191  0.1405 -0.5090
  143MOL    O1525859   4.875   6.132   0.549  0.3694 -0.1387  0.1569
  143MOL    H1625860   4.984   6.119   0.899  0.2477  0.1902  0.8701
  143MOL    H1725861   4.834   6.115   0.995 -2.7826  0.0946 -1.2253
  143MOL    H1825862   4.796   6.009   0.714 -0.3793 -0.5565  0.4449
  143MOL    H1925863   4.923   6.183   0.486  4.0239 -0.8294  2.2157
  143MOL    C2025864   4.653   6.156   0.784 -0.4668  0.4017 -0.8418
  143MOL    C2125865   4.552   6.058   0.856 -0.3346 -0.4152 -0.1181
  143MOL    C2225866   4.549   6.082   1.012 -0.8164 -0.1387  0.7473
  143MOL    O2325867   4.598   6.181   1.066  0.6456 -0.1996 -0.4133
  143MOL    O2425868   4.481   5.984   1.080 -0.4701 -0.2553 -0.2109
  143MOL    H2525869   4.617   6.192   0.687  0.1986 -1.3812 -1.7628
  143MOL    H2625870   4.656   6.252   0.837  0.4902  0.1957 -0.5145
  143MOL    H2725871   4.449   6.084   0.834 -0.6869 -0.2554  1.6201
  143MOL    H2825872   4.479   6.009   1.171  0.4732 -0.1607 -0.2111
  143MOL    C2925873   4.548   5.912   0.807 -0.2018 -0.1946 -0.5428
  143MOL    C3025874   4.484   5.906   0.659 -0.4883  0.1577 -0.9771
  143MOL    C3125875   4.333   5.924   0.662 -0.2836  0.0331 -0.2412
  143MOL    O3225876   4.250   5.834   0.688 -0.1006  0.6488  0.6884
  143MOL    O3325877   4.290   6.053   0.642 -0.3171 -0.4257 -0.4038
  143MOL    H3425878   4.483   5.856   0.874  0.3360  0.4625  0.5453
  143MOL    H3525879   4.645   5.862   0.809 -0.6998 -1.1382  0.0922
  143MOL    H3625880   4.516   5.994   0.603 -0.3167  2.7949  3.0704
  143MOL    H3725881   4.197   6.071   0.638 -0.4356 -0.8115  0.3858
  143MOL    C3825882   4.522   5.793   0.566 -0.1452 -0.8981  0.6867
  143MOL    C3925883   4.663   5.801   0.501 -0.7221  0.1779 -0.1725
  143MOL    C4025884   4.679   5.878   0.360  0.5062 -0.0448 -0.0677
  143MOL    O4125885   4.726   5.831   0.259 -0.3101  0.6123 -0.1789
  143MOL    O4225886   4.630   6.003   0.361  0.1967 -0.4656  0.0477
  143MOL    H4325887   4.456   5.789   0.479  0.4343  0.0236  0.2041
  143MOL    H4425888   4.504   5.693   0.607  1.9504 -1.1354  1.0885
  143MOL    H4525889   4.723   5.864   0.567  1.6159 -1.9919 -0.1607
  143MOL    H4625890   4.636   6.029   0.270 -0.6996  0.6451  0.3110
  143MOL    C4725891   4.747   5.668   0.483 -0.3774 -0.4137 -0.1259
  143MOL    C4825892   4.666   5.544   0.428  0.3281  0.1365  0.4064
  143MOL    C4925893   4.743   5.420   0.467  0.1133  0.5039  0.7653
  143MOL    O5025894   4.801   5.353   0.387 -0.6049  0.1800 -0.1074
  143MOL    O5125895   4.744   5.401   0.600 -0.4835 -0.3701  0.0384
  143MOL    H5225896   4.785   5.649   0.584 -2.0245 -2.6051  0.1206
  143MOL    H5325897   4.839   5.676   0.426 -0.1439 -0.3178  0.2610
  143MOL    H5425898   4.578   5.529   0.489 -0.3567  1.2716 -0.2794
  143MOL    H5525899   4.793   5.322   0.619 -0.7287 -0.4679  0.2763
  143MOL    C5625900   4.613   5.557   0.283  0.3525  0.5135 -0.4096
  143MOL    C5725901   4.500   5.451   0.252 -0.2326 -0.0644  0.0454
  143MOL    C5825902   4.557   5.343   0.152 -0.2666 -0.1879 -0.0172
  143MOL    O5925903   4.612   5.366   0.046 -0.0370 -0.6598  0.0552
  143MOL    O6025904   4.527   5.216   0.197  0.3134  0.0467 -0.0276
  143MOL    H6125905   4.694   5.565   0.211  1.4985 -0.4088  0.7498
  143MOL    H6225906   4.561   5.652   0.272 -0.1901  0.5993  2.4628
  143MOL    H6325907   4.464   5.402   0.343 -1.4167 -1.6208 -1.2154
  143MOL    H6425908   4.550   5.142   0.143  0.7620  0.8303 -0.9361
  143MOL    C6525909   4.379   5.516   0.187 -0.3439  0.6833  0.0323
  143MOL    C6625910   4.300   5.590   0.294 -0.2275  0.6193  0.1303
  143MOL    C6725911   4.215   5.491   0.376 -0.4804 -0.7066  0.0944
  143MOL    O6825912   4.193   5.378   0.342 -0.2317 -0.6474 -0.1986
  143MOL    O6925913   4.186   5.554   0.489  0.5899  0.4058 -0.3659
  143MOL    H7025914   4.327   5.436   0.135  1.0612  1.1981 -2.2414
  143MOL    H7125915   4.406   5.581   0.103  2.4165  0.7767  0.9506
  143MOL    H7225916   4.367   5.648   0.357  0.9315  2.7779 -2.9837
  143MOL    H7325917   4.151   5.492   0.551  1.8193  1.0012  0.9292
  143MOL    C7425918   4.212   5.704   0.219 -0.2136 -0.8952  0.5231
  143MOL    C7525919   4.294   5.828   0.182  0.4088  0.0752  0.0612
  143MOL    C7625920   4.257   5.952   0.265  0.0108 -0.6202 -0.3486
  143MOL    O7725921   4.149   6.001   0.267  0.3065  0.2433  0.0307
  143MOL    O7825922   4.363   5.997   0.333  0.4403  0.5171 -0.2562
  143MOL    H7925923   4.129   5.739   0.281  0.3553  0.5990  0.4450
  143MOL    H8025924   4.172   5.657   0.130  0.7885  2.1365 -1.5971
  143MOL    H8125925   4.397   5.807   0.208 -0.1561 -1.8037  0.8697
  143MOL    H8225926   4.343   6.080   0.373 -1.3010 -0.3141  0.6553
  143MOL    C8325927   4.281   5.870   0.033 -0.4322 -0.2528  0.4411
  143MOL    C8425928   4.388   5.965   7.820  0.6267 -0.0171 -0.0160
  143MOL    C8525929   4.531   5.913   7.820  0.0989  0.4575 -0.0361
  143MOL    O8625930   4.633   5.980   7.851  0.3788  0.2495 -0.5760
  143MOL    O8725931   4.539   5.795   7.754 -0.3114  0.3784 -0.3696
  143MOL    H8825932   4.178   5.893   0.004 -0.1586  1.5925  0.9058
  143MOL    H8925933   4.281   5.777   7.828 -1.6937  0.5640 -0.9028
  143MOL    H9025934   4.364   5.972   7.714  0.8856  1.8490  0.0331
  143MOL    H9125935   4.632   5.786   7.748 -0.1194  0.9355  1.4545
  143MOL    C9225936   4.387   6.114   0.014 -0.3422 -0.6613 -0.3102
  143MOL    C9325937   4.455   6.218   7.775 -0.3926  0.4820  0.0262
  143MOL    C9425938   4.543   6.317   0.009  0.1874 -0.1155 -0.1614
  143MOL    O9525939   4.507   6.433   0.028 -0.0763 -0.4524  0.3394
  143MOL    O9625940   4.667   6.272   0.039 -0.6653 -0.1671 -0.2383
  143MOL    H9725941   4.426   6.111   0.115 -0.3241 -1.5325 -0.3353
  143MOL    H9825942   4.282   6.137   0.030 -0.5062 -0.9027 -1.0134
  143MOL    H9925943   4.530   6.165   7.717 -0.6506  0.8554 -0.6574
  143MOL   H10025944   4.709   6.337   0.094  1.3151 -2.1201  0.6081
  143MOL   C10125945   4.366   6.299   7.672 -0.1441 -0.6041 -0.6031
  143MOL   C10225946   4.443   6.358   7.553  0.1644  0.0397 -0.1078
  143MOL   C10325947   4.430   6.509   7.535  0.0515 -0.0675 -0.1018
  143MOL   O10425948   4.346   6.585   7.596  0.2709  0.3395 -0.1367
  143MOL   O10525949   4.518   6.551   7.441 -0.4627  0.0896 -0.0762
  143MOL   H10625950   4.323   6.379   7.733  0.4204 -2.0394  1.7135
  143MOL   H10725951   4.280   6.239   7.645 -0.0169 -1.3469  0.6107
  143MOL   H10825952   4.551   6.355   7.570 -0.0756  3.0170  2.3845
  143MOL   H10925953   4.509   6.642   7.415  1.3113  0.2491 -0.2175
  143MOL   C11025954   4.413   6.280   7.423  0.0553  0.4501 -0.3175
  143MOL   C11125955   4.453   6.131   7.425 -0.0559 -0.0533 -0.3934
  143MOL   C11225956   4.605   6.105   7.466  0.2038 -0.3448 -0.3810
  143MOL   O11325957   4.698   6.191   7.451 -0.8528 -0.3464 -0.3454
  143MOL   O11425958   4.627   5.980   7.506  0.4333  0.6024 -0.5051
  143MOL   H11525959   4.473   6.323   7.342 -1.1723  0.9412 -0.9704
  143MOL   H11625960   4.309   6.292   7.394  0.0305  0.4000 -0.2481
  143MOL   H11725961   4.390   6.094   7.506  0.1234  0.3664 -0.0590
  143MOL   H11825962   4.715   5.969   7.538  0.7103 -0.3341 -1.5386
  143MOL   C11925963   4.412   6.060   7.293 -0.4038  0.0273 -0.4545
  143MOL   C12025964   4.420   5.902   7.290  0.2485 -0.4382 -0.5593
  143MOL   C12125965   4.438   5.846   7.141 -0.6592 -0.1876 -0.4258
  143MOL   O12225966   4.520   5.753   7.116  0.0487 -0.5224 -0.1409
  143MOL   O12325967   4.352   5.904   7.055  0.3280 -0.0769 -0.2653
  143MOL   H12425968   4.490   6.093   7.223  0.8944  0.7945  1.3228
  143MOL   H12525969   4.313   6.100   7.273 -0.4848  0.4427  0.7462
  143MOL   H12625970   4.512   5.869   7.339 -0.2913  2.9970  2.9968
  143MOL   H12725971   4.370   5.876   6.966  1.2058  2.6036 -0.9936
  143MOL   C12825972   4.300   5.837   7.362  0.8975 -0.7915 -0.1964
  143MOL   C12925973   4.299   5.686   7.392 -0.2419  0.4643  0.4483
  143MOL   C13025974   4.154   5.652   7.451 -0.2308  0.3780 -0.6415
  143MOL   O13125975   4.079   5.730   7.511  0.2863  0.4855 -0.4797
  143MOL   O13225976   4.120   5.528   7.417 -0.5487 -0.5968 -0.0722
  143MOL   H13325977   4.204   5.867   7.321  0.6126 -1.1509  0.2097
  143MOL   H13425978   4.293   5.884   7.460 -2.4683 -0.8761 -0.3365
  143MOL   H13525979   4.305   5.639   7.293 -0.1694  1.9225 -0.2571
  143MOL   H13625980   4.036   5.497   7.449 -0.2036  0.0792  1.4987
  143MOL   C13725981   4.414   5.627   7.487  0.7330  0.0340  0.1302
  143MOL   C13825982   4.466   5.481   7.449  0.3718  0.1611 -0.0815
  143MOL   C13925983   4.493   5.404   7.576 -0.8041 -0.1792 -0.6951
  143MOL   O14025984   4.436   5.298   7.613  0.4760  0.2943  0.2878
  143MOL   O14125985   4.594   5.464   7.652  0.2526  0.0082  0.6434
  143MOL   H14225986   4.374   5.620   7.588  2.0953 -1.1131  0.6000
  143MOL   H14325987   4.502   5.692   7.488  0.8044 -0.0352 -0.7916
  143MOL   H14425988   4.382   5.447   7.388 -0.4063 -0.0603  1.1074
  143MOL   H14525989   4.604   5.417   7.734  3.0452 -1.0034 -0.2390
  143MOL   C14625990   4.593   5.502   7.358 -0.0634  0.0796 -0.0604
  143MOL   C14725991   4.616   5.416   7.236 -0.1655  0.2702 -0.5056
  143MOL   C14825992   4.579   5.263   7.267  0.3121  0.4925 -0.1837
  143MOL   O14925993   4.493   5.204   7.196 -0.0511 -0.7608  0.7365
  143MOL   O15025994   4.653   5.216   7.365  0.0177  0.1129  0.1654
  143MOL   H15125995   4.685   5.510   7.415 -0.2357 -0.6187  0.3294
  143MOL   H15225996   4.587   5.597   7.306  1.0280  1.3579  2.0425
  143MOL   H15325997   4.541   5.439   7.160 -1.1156  0.4420  0.4838
  143MOL   H15425998   4.702   5.286   7.403  0.2751  0.2341 -0.3861
  143MOL   C15525999   4.755   5.432   7.179 -0.7709  0.1562  0.0631
  143MOL   C15626000   4.790   5.354   7.050  0.1822  0.6067  0.1200
  143MOL   C15726001   4.942   5.375   7.018 -0.0466 -0.2231 -0.1811
  143MOL   O15826002   5.000   5.484   7.029 -0.3304 -0.1598 -0.5828
  143MOL   O15926003   4.999   5.267   6.955  0.1132  0.7803 -0.6642
  143MOL   H16026004   4.830   5.408   7.254 -0.2799  2.5284  0.3628
  143MOL   H16126005   4.771   5.536   7.152 -0.1278  0.0847  0.1699
  143MOL   H16226006   4.775   5.247   7.063 -0.4328  0.6117 -0.5122
  143MOL   H16326007   4.935   5.197   6.953  0.5310  0.3822 -0.4305
  143MOL   C16426008   4.703   5.406   6.936  0.4081 -0.6303  0.4194
  143MOL   C16526009   4.618   5.302   6.861 -0.0683  0.0349 -0.2655
  143MOL   C16626010   4.699   5.191   6.790 -0.0237 -0.4774  0.2813
  143MOL   O16726011   4.682   5.157   6.675  0.2891  0.1085  0.4500
  143MOL   O16826012   4.794   5.136   6.867  0.0732  0.3915 -0.3119
  143MOL   H16926013   4.754   5.476   6.870  2.3458 -2.4550 -0.0576
  143MOL   H17026014   4.634   5.481   6.977  0.2818 -0.1331 -0.6936
  143MOL   H17126015   4.550   5.246   6.926  2.0879  1.0408  2.9736
  143MOL   H17226016   4.813   5.048   6.838  1.2472 -0.4543  2.7868
  143MOL   C17326017   4.512   5.363   6.770 -0.1578  0.1594  0.2530
  143MOL   C17426018   4.563   5.483   6.685 -0.0858  0.9651  0.6843
  143MOL   C17526019   4.463   5.543   6.589 -0.0992  0.0931 -0.5122
  143MOL   O17626020   4.375   5.469   6.539  0.7951  0.0944 -0.0444
  143MOL   O17726021   4.471   5.673   6.584 -0.1305 -0.2208 -0.3546
  143MOL   H17826022   4.454   5.414   6.847 -0.3247 -0.9404  0.8685
  143MOL   H17926023   4.445   5.295   6.718  2.7829 -0.0522 -3.5067
  143MOL   H18026024   4.593   5.560   6.756 -0.6144  0.9943  0.8771
  143MOL   H18126025   4.390   5.708   6.551  0.0912 -0.2256 -0.9007
  143MOL   H18226026   4.643   5.451   6.617 -2.6951  0.1828 -2.1113
  144MOL     C126027   2.071   0.877   7.382  0.3137 -0.2813 -0.4819
  144MOL     C226028   1.941   0.928   7.320 -0.8580  0.1207  0.3732
  144MOL     C326029   1.830   0.836   7.359  0.0298 -0.1608 -0.2755
  144MOL     O426030   1.737   0.863   7.436 -0.4512  0.3847  0.3548
  144MOL     O526031   1.836   0.714   7.294  0.0044  0.1399  0.1583
  144MOL     H626032   2.162   0.936   7.369  1.1733 -0.9706  2.1976
  144MOL     H726033   2.068   0.863   7.490  0.5742  1.0678 -0.2912
  144MOL     H826034   1.927   1.024   7.371 -0.2108  0.5385 -0.2224
  144MOL     H926035   1.764   0.654   7.310 -0.2141 -0.0567 -1.4114
  144MOL    H1026036   2.092   0.779   7.340  4.0978 -0.4258  1.5239
  144MOL    C1126037   1.965   0.967   7.172 -0.4822  0.2593  0.0331
  144MOL    C1226038   2.065   1.087   7.144  0.5984 -0.1890  0.5674
  144MOL    C1326039   2.010   1.230   7.191 -0.3589  0.0276  1.0000
  144MOL    O1426040   1.960   1.318   7.127 -0.6075  0.0172  0.1455
  144MOL    O1526041   2.026   1.239   7.324  0.5706  0.2406 -0.0202
  144MOL    H1626042   1.870   0.984   7.120 -1.4487  0.4652  1.8301
  144MOL    H1726043   2.007   0.872   7.140 -0.9777 -0.0469  0.2934
  144MOL    H1826044   2.158   1.068   7.198  1.8792 -0.4373 -1.6749
  144MOL    H1926045   1.976   1.318   7.342  0.4700  0.2264 -0.2337
  144MOL    C2026046   2.109   1.084   6.992  0.0523 -0.1970 -0.2522
  144MOL    C2126047   2.244   1.014   6.968 -0.3761 -0.4193 -0.3472
  144MOL    C2226048   2.363   1.096   7.018 -0.0500 -0.5112  1.1960
  144MOL    O2326049   2.380   1.215   6.988 -0.9568 -0.0135  0.7968
  144MOL    O2426050   2.458   1.018   7.073  0.2682  0.0170  0.4419
  144MOL    H2526051   2.106   1.183   6.947 -3.1616  0.3393  1.0128
  144MOL    H2626052   2.040   1.027   6.930 -2.4541  2.0813  0.3442
  144MOL    H2726053   2.244   0.924   7.029  2.3617 -0.2008  0.0365
  144MOL    H2826054   2.538   1.068   7.072  0.1075  0.2867 -1.2771
  144MOL    C2926055   2.247   0.959   6.818 -0.0452 -0.3032  0.5235
  144MOL    C3026056   2.224   1.056   6.687  0.0964  0.2150 -1.0335
  144MOL    C3126057   2.090   1.014   6.632 -0.5177 -0.1551  0.7453
  144MOL    O3226058   2.077   0.914   6.566 -0.3751  0.3943 -0.2849
  144MOL    O3326059   1.991   1.095   6.666 -0.9921  0.5784  0.3177
  144MOL    H3426060   2.203   0.860   6.807  1.2165 -0.8698  0.4659
  144MOL    H3526061   2.352   0.933   6.825  0.4499  1.5657  0.5280
  144MOL    H3626062   2.218   1.161   6.718  1.4407 -0.4575  1.6403
  144MOL    H3726063   1.916   1.072   6.614  0.0354  1.9980 -1.8802
  144MOL    C3826064   2.335   1.025   6.581 -0.6265 -0.1156 -0.5754
  144MOL    C3926065   2.470   1.093   6.609  0.4638  0.5050  0.6076
  144MOL    C4026066   2.452   1.239   6.611 -0.5463 -0.2313 -0.6402
  144MOL    O4126067   2.363   1.299   6.557 -0.2199 -0.4965 -0.1787
  144MOL    O4226068   2.552   1.299   6.681  0.1165  0.2339 -0.4517
  144MOL    H4326069   2.305   1.049   6.479 -1.9492 -2.9823 -0.8830
  144MOL    H4426070   2.353   0.918   6.579 -0.8012 -0.1400 -0.7319
  144MOL    H4526071   2.493   1.080   6.714 -0.1248 -0.1922  0.6608
  144MOL    H4626072   2.534   1.391   6.688 -2.9429 -0.1863 -1.7396
  144MOL    C4726073   2.597   1.056   6.531  0.8225 -0.5416  0.8389
  144MOL    C4826074   2.666   0.920   6.581  0.2284  0.2516 -0.1336
  144MOL    C4926075   2.588   0.801   6.524 -0.2571  0.0776 -1.1050
  144MOL    O5026076   2.517   0.726   6.593  0.3912 -0.0076 -0.0873
  144MOL    O5126077   2.606   0.791   6.389  0.0593 -0.1745  0.4364
  144MOL    H5226078   2.671   1.134   6.550 -0.4325 -0.1968  4.7574
  144MOL    H5326079   2.589   1.067   6.423 -1.2995  1.3640  1.1430
  144MOL    H5426080   2.768   0.925   6.542  0.9580  0.5408  1.7422
  144MOL    H5526081   2.568   0.710   6.357  0.8409 -0.6891  0.7880
  144MOL    C5626082   2.697   0.914   6.739 -0.1452  0.0376 -0.5054
  144MOL    C5726083   2.797   0.806   6.792 -1.0971  0.7906 -0.2118
  144MOL    C5826084   2.723   0.681   6.833  0.5523  0.8210 -0.3396
  144MOL    O5926085   2.666   0.679   6.941  0.7270  0.8372  0.5688
  144MOL    O6026086   2.723   0.584   6.743 -0.1487 -0.6819 -0.5701
  144MOL    H6126087   2.600   0.896   6.784  0.5132  4.3256  3.0552
  144MOL    H6226088   2.716   1.015   6.778  0.8135  0.0318 -0.9405
  144MOL    H6326089   2.875   0.780   6.720  1.8706  2.7267  2.1872
  144MOL    H6426090   2.766   0.627   6.670 -0.1522  0.0750 -0.1343
  144MOL    C6526091   2.873   0.861   6.918 -0.0495  0.0695  0.1259
  144MOL    C6626092   2.971   0.988   6.907 -0.0289  0.2676  0.3167
  144MOL    C6726093   3.084   0.968   6.803  0.3382  0.6629 -0.3640
  144MOL    O6826094   3.112   1.054   6.716 -0.1135  0.3293 -0.5983
  144MOL    O6926095   3.152   0.845   6.819  0.0123 -0.5533 -0.4563
  144MOL    H7026096   2.932   0.776   6.953  1.5174  1.1479  0.1069
  144MOL    H7126097   2.802   0.879   6.999  0.2118 -0.6945  0.5326
  144MOL    H7226098   2.913   1.077   6.883  0.5353  1.0851  1.8755
  144MOL    H7326099   3.117   0.791   6.888  1.7549  1.1844  1.8642
  144MOL    C7426100   3.048   1.014   7.043 -0.6598 -0.3539  0.3828
  144MOL    C7526101   2.963   1.030   7.170 -0.2172  1.0314 -0.3076
  144MOL    C7626102   2.850   1.137   7.155 -0.8287  0.3943 -0.0583
  144MOL    O7726103   2.725   1.112   7.147 -0.0469  0.7063 -0.1880
  144MOL    O7826104   2.903   1.263   7.139  0.3763  0.6056  0.0565
  144MOL    H7926105   3.108   1.102   7.022 -0.0671 -0.1824  2.7597
  144MOL    H8026106   3.114   0.928   7.055 -0.6103 -0.2814  0.6146
  144MOL    H8126107   2.904   0.939   7.180  0.7402  0.1163 -2.7635
  144MOL    H8226108   2.834   1.319   7.107 -1.3946  0.0948  2.9012
  144MOL    C8326109   3.050   1.036   7.305 -0.4459 -1.1296 -0.4061
  144MOL    C8426110   3.113   1.170   7.334 -0.1249  0.7709 -0.0257
  144MOL    C8526111   3.220   1.204   7.221  0.6226 -0.4933 -0.4221
  144MOL    O8626112   3.207   1.303   7.149  0.1182 -0.4670 -0.4493
  144MOL    O8726113   3.319   1.111   7.199  0.2220  0.0965 -0.2453
  144MOL    H8826114   3.126   0.957   7.311 -0.5350 -1.1456  0.5053
  144MOL    H8926115   2.982   1.007   7.385 -0.9632 -0.0955 -0.4581
  144MOL    H9026116   3.044   1.254   7.347 -0.8180 -0.0664  2.0276
  144MOL    H9126117   3.372   1.162   7.140  0.3142 -1.2139 -1.3177
  144MOL    C9226118   3.172   1.154   7.480 -0.1502 -0.0174 -0.1123
  144MOL    C9326119   3.273   1.253   7.538  0.3968 -0.1858  0.2218
  144MOL    C9426120   3.407   1.188   7.573 -0.1895 -0.1679 -0.9261
  144MOL    O9526121   3.449   1.180   7.690 -0.1735 -0.4860  0.7270
  144MOL    O9626122   3.471   1.151   7.462  0.2294  0.0897 -0.6401
  144MOL    H9726123   3.234   1.065   7.476  1.9105  1.4915 -2.5575
  144MOL    H9826124   3.092   1.131   7.550  2.2267 -4.0174  1.4281
  144MOL    H9926125   3.289   1.323   7.456 -3.3183 -0.0793 -0.5058
  144MOL   H10026126   3.557   1.118   7.484 -0.4423 -0.2855  1.5311
  144MOL   C10126127   3.220   1.346   7.645  0.2457  0.5333 -0.5811
  144MOL   C10226128   3.188   1.291   7.789 -0.5590  0.1870  0.5138
  144MOL   C10326129   3.060   1.209   7.800  0.0838  0.0316 -0.0019
  144MOL   O10426130   2.963   1.210   7.725  0.5652  0.0852 -0.3040
  144MOL   O10526131   3.049   1.144   0.068  1.0335 -0.4050  0.1326
  144MOL   H10626132   3.124   1.390   7.618  0.7649  2.1819  0.2303
  144MOL   H10726133   3.299   1.420   7.657 -0.2131  1.0442 -0.7000
  144MOL   H10826134   3.267   1.231   7.833 -0.9689 -1.0000 -0.3310
  144MOL   H10926135   2.963   1.110   0.087  1.5513 -1.2418  1.0453
  144MOL   C11026136   3.168   1.400   0.041  0.5195  0.2481  0.0139
  144MOL   C11126137   3.293   1.485   0.086 -0.1549  0.1890 -0.2093
  144MOL   C11226138   3.394   1.397   0.161 -0.0029 -0.2770 -0.0343
  144MOL   O11326139   3.515   1.418   0.161 -0.3751  0.0410 -0.3122
  144MOL   O11426140   3.326   1.298   0.228 -0.3765 -1.0384  0.1684
  144MOL   H11526141   3.109   1.369   0.127 -1.7040  0.3557 -1.4197
  144MOL   H11626142   3.103   1.477   7.852 -1.2016 -0.0172  2.1140
  144MOL   H11726143   3.342   1.524   7.849  0.3612 -0.8011 -0.3612
  144MOL   H11826144   3.386   1.238   0.271  0.6005  0.5907  1.1159
  144MOL   C11926145   3.246   1.599   0.188  0.2439 -0.2657 -0.3075
  144MOL   C12026146   3.318   1.738   0.185  0.4001 -0.5003  0.3411
  144MOL   C12126147   3.280   1.825   0.311 -0.5187  0.9341 -0.3320
  144MOL   O12226148   3.371   1.892   0.363  0.1175 -0.0500 -0.6624
  144MOL   O12326149   3.150   1.824   0.350 -0.8884  0.1059  0.1256
  144MOL   H12426150   3.245   1.559   0.289 -1.5838  0.2058 -0.1163
  144MOL   H12526151   3.140   1.620   0.171  0.3136 -1.0976 -1.8538
  144MOL   H12626152   3.426   1.724   0.184  0.8365  2.4798  0.9275
  144MOL   H12726153   3.130   1.888   0.416  1.9541  1.3528 -0.1449
  144MOL   C12826154   3.275   1.813   0.053  0.0191  0.7852 -0.0393
  144MOL   C12926155   3.367   1.922   0.005  0.4712  0.2767 -0.3362
  144MOL   C13026156   3.520   1.883   0.002 -0.1912 -0.3007 -0.1938
  144MOL   O13126157   3.609   1.940   0.066  0.2200 -0.5014  0.2373
  144MOL   O13226158   3.531   1.780   7.778  0.8407 -0.7968  0.2771
  144MOL   H13326159   3.169   1.837   0.054  0.1468  1.3049  2.3083
  144MOL   H13426160   3.281   1.737   7.827  1.5482 -0.0881  0.8968
  144MOL   H13526161   3.334   1.936   7.755  0.7051 -5.3006 -1.3531
  144MOL   H13626162   3.621   1.754   7.773  0.9511 -0.2733 -0.5780
  144MOL   C13726163   3.365   2.058   0.071  0.1761  0.0569  0.2087
  144MOL   C13826164   3.224   2.135   0.080 -0.5727  0.2910 -0.5649
  144MOL   C13926165   3.162   2.171   7.791 -0.4479  0.4441  0.1806
  144MOL   O14026166   3.232   2.191   7.692  0.3654 -0.7224 -0.4591
  144MOL   O14126167   3.030   2.193   7.797 -0.2168 -0.3340  0.2092
  144MOL   H14226168   3.438   2.118   0.016 -0.8320 -0.3659 -1.6403
  144MOL   H14326169   3.406   2.032   0.168 -0.4846 -1.6203  0.0463
  144MOL   H14426170   3.149   2.070   0.125 -0.9226 -0.1598 -1.7915
  144MOL   H14526171   2.992   2.224   7.716  1.3795 -0.5037 -0.6122
  144MOL   C14626172   3.231   2.266   0.162  0.7628 -0.2712  0.1354
  144MOL   C14726173   3.258   2.242   0.320  0.1727 -0.1307  0.8240
  144MOL   C14826174   3.127   2.228   0.399  0.0711  0.4810  0.2602
  144MOL   O14926175   3.067   2.324   0.447 -0.0961 -0.3116  0.3543
  144MOL   O15026176   3.087   2.099   0.405  0.0627  0.1865  0.0131
  144MOL   H15126177   3.134   2.316   0.153 -0.1881 -2.1583 -0.2754
  144MOL   H15226178   3.308   2.324   0.111  1.3942  1.2079  2.6902
  144MOL   H15326179   3.309   2.146   0.322 -2.3649 -1.4964  3.0168
  144MOL   H15426180   3.005   2.102   0.452  0.3495 -3.2401  0.8169
  144MOL   C15526181   3.345   2.356   0.366 -0.0832  0.1185  0.1287
  144MOL   C15626182   3.396   2.360   0.509  0.0033 -0.0789  0.3955
  144MOL   C15726183   3.438   2.503   0.553 -0.1708 -0.1183 -0.5008
  144MOL   O15826184   3.557   2.541   0.573  0.0377 -0.2801  0.1462
  144MOL   O15926185   3.328   2.583   0.549  0.1448 -0.0743  0.0073
  144MOL   H16026186   3.296   2.450   0.342 -0.2350 -0.1093 -0.4566
  144MOL   H16126187   3.428   2.367   0.296  1.8577  0.0066  2.3373
  144MOL   H16226188   3.305   2.346   0.568 -0.3034  0.1550 -0.0268
  144MOL   H16326189   3.355   2.671   0.571  1.9845 -0.5294 -0.2887
  144MOL   C16426190   3.497   2.248   0.543  0.7708  0.0672  0.0576
  144MOL   C16526191   3.624   2.261   0.454 -0.8933  0.0040  0.1592
  144MOL   C16626192   3.624   2.181   0.323 -0.6612 -0.3669  0.7816
  144MOL   O16726193   3.609   2.232   0.207 -0.3700  0.0795  0.3139
  144MOL   O16826194   3.649   2.052   0.341  0.4959 -0.0280 -0.0898
  144MOL   H16926195   3.450   2.150   0.536  1.2964 -0.0669 -1.8173
  144MOL   H17026196   3.525   2.264   0.647  1.7744 -1.7832  0.0744
  144MOL   H17126197   3.638   2.363   0.418  2.1535 -0.4372 -0.0108
  144MOL   H17226198   3.644   2.011   0.256  0.0239  0.1651 -0.1527
  144MOL   C17326199   3.747   2.219   0.544  0.0308  0.1420 -1.1103
  144MOL   C17426200   3.814   2.326   0.632  0.4826 -0.0670  0.4010
  144MOL   C17526201   3.941   2.284   0.711 -0.2134 -0.3865 -0.5266
  144MOL   O17626202   3.958   2.169   0.751  0.6359  0.5489  0.3649
  144MOL   O17726203   4.025   2.390   0.735  0.2765  0.0097 -0.5372
  144MOL   H17826204   3.828   2.180   0.482 -0.8097  1.6335 -3.2336
  144MOL   H17926205   3.713   2.137   0.606  0.6089  0.2044 -0.7061
  144MOL   H18026206   3.835   2.413   0.570 -0.0944 -0.7306 -0.7402
  144MOL   H18126207   3.997   2.479   0.716  1.4247  0.5776  0.3706
  144MOL   H18226208   3.741   2.365   0.702  0.1191  0.4245 -0.2604
  145MOL     C126209   1.394   3.199   7.457 -0.0532 -0.3467  1.0021
  145MOL     C226210   1.458   3.082   7.383  0.3056  0.2286 -0.4457
  145MOL     C326211   1.585   3.141   7.315 -0.0031 -0.0663  0.6522
  145MOL     O426212   1.594   3.170   7.195  0.2362  0.2227  0.1821
  145MOL     O526213   1.687   3.179   7.407  0.1878  0.0380  0.2683
  145MOL     H626214   1.467   3.273   7.492  0.0218  0.1967 -0.2773
  145MOL     H726215   1.317   3.240   7.392 -1.1947 -0.6594  2.1539
  145MOL     H826216   1.491   3.000   7.447  1.1797  1.1390  0.2963
  145MOL     H926217   1.770   3.194   7.365  0.7328  1.0489  1.6898
  145MOL    H1026218   1.351   3.156   7.547  0.8899 -2.1087  0.6220
  145MOL    C1126219   1.362   3.027   7.267 -0.2231  0.0237 -0.1282
  145MOL    C1226220   1.272   2.905   7.292 -0.7010  0.2759  0.5106
  145MOL    C1326221   1.187   2.911   7.419 -0.0306 -0.3395 -0.3563
  145MOL    O1426222   1.202   2.837   7.515 -0.1756  0.7521  0.8158
  145MOL    O1526223   1.107   3.023   7.416  0.5702 -0.1173  0.5012
  145MOL    H1626224   1.423   2.993   7.184  0.7542 -0.8767  0.9299
  145MOL    H1726225   1.321   3.118   7.222 -2.4789 -1.0543 -0.3264
  145MOL    H1826226   1.201   2.915   7.210 -0.6070  1.5265  0.5716
  145MOL    H1926227   1.109   3.076   7.338  0.9649  1.5993  1.6556
  145MOL    C2026228   1.369   2.779   7.284  0.1463  0.6011  0.6138
  145MOL    C2126229   1.376   2.700   7.146  0.4987 -0.1909  0.0056
  145MOL    C2226230   1.466   2.766   7.043  0.2506  0.8217  0.3284
  145MOL    O2326231   1.434   2.764   6.925 -0.2869  0.1674  0.3016
  145MOL    O2426232   1.586   2.817   7.080 -0.6114  0.1246  0.5997
  145MOL    H2526233   1.347   2.705   7.361 -0.0186 -0.4106 -0.3819
  145MOL    H2626234   1.465   2.816   7.320 -0.4753  3.1271 -0.2465
  145MOL    H2726235   1.431   2.607   7.162  1.2322  0.1916 -0.2569
  145MOL    H2826236   1.616   2.864   7.004  0.1863 -1.7164 -0.2615
  145MOL    C2926237   1.236   2.646   7.087  0.1241  0.2270 -1.0901
  145MOL    C3026238   1.225   2.490   7.087 -0.6331 -0.2816  0.3656
  145MOL    C3126239   1.240   2.436   7.228  0.1535 -0.0126 -0.3077
  145MOL    O3226240   1.303   2.329   7.252 -0.1877 -0.0341 -0.0957
  145MOL    O3326241   1.181   2.503   7.331  0.0499  0.3264  0.4129
  145MOL    H3426242   1.217   2.677   6.984 -3.9995 -3.8921 -1.7180
  145MOL    H3526243   1.153   2.683   7.148  0.7961 -0.5090  0.2845
  145MOL    H3626244   1.121   2.467   7.067 -0.8203  1.2860 -0.5117
  145MOL    H3726245   1.226   2.466   7.406 -1.6273  0.9901  1.7702
  145MOL    C3826246   1.320   2.427   6.976 -0.0212  0.0114 -0.9419
  145MOL    C3926247   1.253   2.359   6.856 -0.1396  0.2038  0.2556
  145MOL    C4026248   1.173   2.454   6.771 -0.6069 -0.3133 -0.8571
  145MOL    O4126249   1.049   2.459   6.760  0.4195  0.4765 -0.2882
  145MOL    O4226250   1.258   2.547   6.716  0.0205  0.5093 -0.3260
  145MOL    H4326251   1.391   2.359   7.023  0.4880  1.4527  0.4553
  145MOL    H4426252   1.377   2.512   6.937  0.9941 -0.3580 -0.2893
  145MOL    H4526253   1.338   2.324   6.797 -0.8187  0.8138 -1.0878
  145MOL    H4626254   1.208   2.620   6.682 -3.5429 -0.7497  1.8607
  145MOL    C4726255   1.164   2.235   6.899 -0.2521  0.4626 -0.1633
  145MOL    C4826256   1.141   2.135   6.789  0.0668  0.0393  0.0752
  145MOL    C4926257   0.998   2.065   6.829 -1.5800 -0.2934  0.3422
  145MOL    O5026258   0.946   2.053   6.935  0.9648 -0.0913  0.6035
  145MOL    O5126259   0.939   2.012   6.715  0.0583  0.7778 -0.2982
  145MOL    H5226260   1.070   2.274   6.938 -0.8479  0.4510 -1.5524
  145MOL    H5326261   1.201   2.189   6.991 -1.6119  0.4993  0.4151
  145MOL    H5426262   1.109   2.187   6.699 -0.1823  0.1130  0.2051
  145MOL    H5526263   0.862   1.967   6.748  2.2367 -1.8016  1.4154
  145MOL    C5626264   1.264   2.048   6.773 -0.7402  0.9887  0.5918
  145MOL    C5726265   1.246   1.913   6.693  0.0329 -0.6844 -0.6882
  145MOL    C5826266   1.175   1.796   6.772 -0.8146  0.2805 -0.1333
  145MOL    O5926267   1.107   1.710   6.722  0.6077  0.4565  0.2567
  145MOL    O6026268   1.213   1.797   6.902 -0.4446  0.4010 -0.0581
  145MOL    H6126269   1.309   2.009   6.865  1.1938  1.4129 -0.1661
  145MOL    H6226270   1.339   2.111   6.726 -0.2062  1.1368  1.6340
  145MOL    H6326271   1.198   1.930   6.597  1.5936 -1.3830 -1.6143
  145MOL    H6426272   1.140   1.755   6.947 -0.9368 -0.7958 -1.9127
  145MOL    C6526273   1.390   1.864   6.670 -0.0874  0.2355 -0.3691
  145MOL    C6626274   1.402   1.763   6.554  0.7736 -0.0806 -0.1991
  145MOL    C6726275   1.531   1.689   6.564  0.2681 -0.1380 -0.8009
  145MOL    O6826276   1.626   1.689   6.490 -0.0595  0.1176 -0.2550
  145MOL    O6926277   1.531   1.616   6.682  0.1363 -0.4209 -0.3155
  145MOL    H7026278   1.422   1.831   6.769  1.7696  3.9488  0.3431
  145MOL    H7126279   1.464   1.942   6.654 -1.1667  1.1456 -1.0205
  145MOL    H7226280   1.324   1.686   6.549  1.8639 -1.3034  1.1801
  145MOL    H7326281   1.616   1.576   6.692 -0.3436 -1.6821 -1.1430
  145MOL    C7426282   1.407   1.857   6.432 -0.1748  0.2014  0.1157
  145MOL    C7526283   1.366   1.791   6.299  0.5576 -0.2009 -0.2895
  145MOL    C7626284   1.211   1.768   6.293 -0.4341  0.2506  0.1931
  145MOL    O7726285   1.152   1.657   6.291 -0.6838  0.0310  0.6826
  145MOL    O7826286   1.146   1.885   6.286 -0.4297  0.7755 -0.2046
  145MOL    H7926287   1.506   1.901   6.427  0.9106 -2.3261 -1.3329
  145MOL    H8026288   1.343   1.945   6.434 -1.4703 -0.7148  0.4851
  145MOL    H8126289   1.379   1.866   6.222  0.2893 -1.1643 -1.2881
  145MOL    H8226290   1.053   1.870   6.281 -0.1445 -1.0288 -0.3245
  145MOL    C8326291   1.449   1.673   6.245  0.2109 -0.5330 -0.4058
  145MOL    C8426292   1.437   1.624   6.099  0.1042  0.1182  0.2012
  145MOL    C8526293   1.540   1.507   6.077  0.8390 -0.1218 -0.5459
  145MOL    O8626294   1.619   1.505   5.988  0.5578 -0.7849 -0.4826
  145MOL    O8726295   1.513   1.403   6.161 -0.0174  0.2451 -0.4622
  145MOL    H8826296   1.429   1.593   6.316 -0.4530 -1.7904 -1.9869
  145MOL    H8926297   1.553   1.693   6.270  0.5306 -0.7805 -1.5193
  145MOL    H9026298   1.339   1.578   6.093  1.3208 -2.4813 -0.0835
  145MOL    H9126299   1.562   1.323   6.148 -0.4711 -0.1508  0.2237
  145MOL    C9226300   1.466   1.730   5.988  0.5162 -0.9813  0.1996
  145MOL    C9326301   1.350   1.826   5.943  0.1889  0.4938 -0.7474
  145MOL    C9426302   1.240   1.750   5.872 -0.2762 -0.4269  0.3499
  145MOL    O9526303   1.231   1.628   5.867  0.1761  0.1737  0.3486
  145MOL    O9626304   1.152   1.833   5.814 -0.1226 -0.0237  0.4252
  145MOL    H9726305   1.497   1.686   5.893  1.2963  0.7637 -0.3753
  145MOL    H9826306   1.556   1.783   6.017 -0.7285  1.2273  0.1193
  145MOL    H9926307   1.296   1.887   6.016  0.5360  2.6326 -2.2567
  145MOL   H10026308   1.082   1.785   5.773  0.0686 -0.3564  0.4899
  145MOL   C10126309   1.408   1.922   5.830 -0.0178  0.1969  0.6281
  145MOL   C10226310   1.524   2.027   5.869  0.4028  0.3201 -0.0581
  145MOL   C10326311   1.488   2.133   5.978  0.3120 -0.0926 -0.2528
  145MOL   O10426312   1.481   2.258   5.964 -0.0263  0.3523  0.7519
  145MOL   O10526313   1.467   2.081   6.096 -0.0184 -0.1232 -0.5299
  145MOL   H10626314   1.333   1.981   5.777  0.0070  0.2705  0.6746
  145MOL   H10726315   1.436   1.862   5.744 -0.6440  1.4237 -0.4413
  145MOL   H10826316   1.601   1.970   5.922  2.0790  1.5790 -1.1078
  145MOL   H10926317   1.474   2.152   6.158  0.0437  0.9382 -1.7391
  145MOL   C11026318   1.587   2.084   5.733  0.5202 -0.2574 -0.1217
  145MOL   C11126319   1.687   1.993   5.663  0.1153  0.4501  0.0705
  145MOL   C11226320   1.813   1.987   5.760  0.0194 -1.2260  0.2395
  145MOL   O11326321   1.897   2.081   5.790 -0.4850  0.5817 -0.0166
  145MOL   O11426322   1.830   1.865   5.817  0.2530  0.5545  0.1183
  145MOL   H11526323   1.636   2.179   5.755  0.5984 -0.0973 -0.9613
  145MOL   H11626324   1.496   2.106   5.678  0.3088  0.1226  0.3759
  145MOL   H11726325   1.634   1.899   5.650  1.6413 -0.8142  2.6463
  145MOL   H11826326   1.909   1.868   5.869 -0.2665 -3.3281  1.3133
  145MOL   C11926327   1.725   2.044   5.518 -0.1395 -0.1305 -0.9960
  145MOL   C12026328   1.851   1.992   5.453 -0.4882 -0.8810 -0.1281
  145MOL   C12126329   1.856   2.019   5.299  0.0068  0.1116  0.2696
  145MOL   O12226330   1.764   2.001   5.219 -0.6206 -0.4618  0.0632
  145MOL   O12326331   1.975   2.073   5.261 -0.0753 -0.1446 -0.8016
  145MOL   H12426332   1.734   2.152   5.534  0.0508  0.1987 -3.1064
  145MOL   H12526333   1.635   2.029   5.459  0.0001  2.0623 -1.8357
  145MOL   H12626334   1.931   2.043   5.507  0.0332  0.2705 -1.9661
  145MOL   H12726335   1.976   2.087   5.167 -3.5529 -2.2140 -1.2256
  145MOL   C12826336   1.880   1.838   5.468 -0.7374 -0.5508  0.3029
  145MOL   C12926337   2.032   1.803   5.447  0.1883  0.1207  0.5416
  145MOL   C13026338   2.062   1.653   5.460  0.6519  0.1575 -0.0840
  145MOL   O13126339   2.000   1.579   5.536  1.1244 -0.3541  0.2717
  145MOL   O13226340   2.157   1.612   5.375 -0.0848 -0.3316  0.3272
  145MOL   H13326341   1.818   1.786   5.395  0.1844 -3.4270  1.4892
  145MOL   H13426342   1.844   1.800   5.564  0.1002  0.3786  0.9985
  145MOL   H13526343   2.060   1.833   5.346 -0.2115  0.0664  0.4112
  145MOL   H13626344   2.172   1.519   5.370  0.0577 -0.2917 -0.0318
  145MOL   C13726345   2.120   1.862   5.557  0.6275 -0.6296 -0.3586
  145MOL   C13826346   2.217   1.968   5.501  0.3336 -0.4988  0.3625
  145MOL   C13926347   2.321   1.903   5.409  0.8322 -0.5360  0.5367
  145MOL   O14026348   2.296   1.880   5.290 -0.8381  0.3279 -0.4464
  145MOL   O14126349   2.425   1.847   5.473 -0.9644  0.0469 -0.3942
  145MOL   H14226350   2.181   1.792   5.614  1.6388 -1.0359 -1.9005
  145MOL   H14326351   2.052   1.915   5.624 -1.5243 -0.5040 -2.5441
  145MOL   H14426352   2.165   2.032   5.429  1.7229 -0.4625 -0.6253
  145MOL   H14526353   2.447   1.879   5.559 -0.6848  0.4686 -0.6203
  145MOL   C14626354   2.266   2.069   5.612  0.8382 -0.3246 -0.1758
  145MOL   C14726355   2.338   2.201   5.571 -0.1845  0.5466 -0.0819
  145MOL   C14826356   2.247   2.305   5.499  0.4671  0.0017  0.1726
  145MOL   O14926357   2.218   2.304   5.379 -0.6931 -0.2483  0.5291
  145MOL   O15026358   2.180   2.379   5.593  0.6025 -0.0665  0.3549
  145MOL   H15126359   2.331   2.019   5.684  0.6205  1.3296  1.2041
  145MOL   H15226360   2.180   2.102   5.670  1.1498 -1.1666  0.7653
  145MOL   H15326361   2.350   2.251   5.666 -0.0129  1.1411 -0.4143
  145MOL   H15426362   2.121   2.439   5.549  0.7317  1.2105  1.8776
  145MOL   C15526363   2.478   2.171   5.503  0.4080 -0.1229 -0.1167
  145MOL   C15626364   2.590   2.272   5.524 -0.4189  0.3690  0.1939
  145MOL   C15726365   2.624   2.297   5.670 -0.1252 -0.8524  0.4902
  145MOL   O15826366   2.649   2.411   5.709 -0.2964  0.1969  0.3355
  145MOL   O15926367   2.571   2.203   5.758 -0.5736  0.7412 -0.3846
  145MOL   H16026368   2.460   2.143   5.399  1.6577 -2.2833  0.2113
  145MOL   H16126369   2.511   2.070   5.529 -0.4346 -0.4837 -0.4320
  145MOL   H16226370   2.686   2.230   5.494 -0.2676  0.2223  0.8777
  145MOL   H16326371   2.568   2.237   5.846 -2.5052 -0.3278 -0.0258
  145MOL   C16426372   2.572   2.396   5.426  0.3682 -0.4090 -0.5230
  145MOL   C16526373   2.693   2.494   5.402  0.4196 -0.1106 -0.0578
  145MOL   C16626374   2.637   2.624   5.343 -0.1027  0.8700 -0.5312
  145MOL   O16726375   2.612   2.715   5.425 -0.3163  0.6926  0.2745
  145MOL   O16826376   2.615   2.626   5.211 -0.4859  0.0712  0.0341
  145MOL   H16926377   2.496   2.459   5.472  2.5987  1.0270  1.2699
  145MOL   H17026378   2.537   2.358   5.330  1.6805 -2.1393 -0.3292
  145MOL   H17126379   2.752   2.505   5.493  0.6045 -2.6139  0.1763
  145MOL   H17226380   2.581   2.706   5.172  0.3941 -0.3306 -1.5812
  145MOL   C17326381   2.790   2.416   5.303  0.4417 -0.2582 -0.2529
  145MOL   C17426382   2.923   2.493   5.272 -0.7373 -0.2735  0.0161
  145MOL   C17526383   3.045   2.397   5.296 -0.3499  0.7345  0.0431
  145MOL   O17626384   3.060   2.337   5.402 -0.8929  0.9079  0.1240
  145MOL   O17726385   3.129   2.387   5.196 -0.1516 -0.1328 -1.0489
  145MOL   H17826386   2.754   2.377   5.207 -0.7525 -1.3400  0.6222
  145MOL   H17926387   2.811   2.322   5.354 -2.9443 -1.5594 -1.0672
  145MOL   H18026388   2.929   2.548   5.178 -1.4105  0.9096  0.6490
  145MOL   H18126389   3.212   2.348   5.216  0.1461  0.6707 -0.7285
  145MOL   H18226390   2.936   2.567   5.351  0.1565  1.4822 -1.7135
  146MOL     C126391   0.330   1.503   2.873 -0.2112  0.8451 -0.0868
  146MOL     C226392   0.204   1.524   2.960 -0.0276  0.2580  0.7539
  146MOL     C326393   0.176   1.395   3.044  0.2319 -0.4483  0.4039
  146MOL     O426394   0.191   1.287   2.992 -0.0604  0.1061  0.3171
  146MOL     O526395   0.122   1.427   3.165 -0.6408  0.0860  0.4346
  146MOL     H626396   0.357   1.593   2.817  0.1957  0.9289  0.2397
  146MOL     H726397   0.417   1.479   2.934 -0.7449  0.8807  0.7045
  146MOL     H826398   0.224   1.601   3.034 -0.5636  0.8197  0.3188
  146MOL     H926399   0.103   1.345   3.210 -2.7142  0.5298  0.4204
  146MOL    H1026400   0.314   1.424   2.800  0.6415  0.8321 -0.2636
  146MOL    C1126401   0.081   1.565   2.869  0.6852 -0.1041  0.1594
  146MOL    C1226402   7.798   1.633   2.937 -0.3522 -0.5986 -0.0279
  146MOL    C1326403   7.837   1.740   3.042 -0.5470 -0.3539  0.5537
  146MOL    O1426404   7.803   1.737   3.159  0.3157 -0.4625  0.5862
  146MOL    O1526405   0.069   1.829   2.983  0.2236 -0.4632 -0.3118
  146MOL    H1626406   0.051   1.480   2.807  0.6773  1.4236 -2.0084
  146MOL    H1726407   0.107   1.633   2.788 -0.2110  1.2550  0.9989
  146MOL    H1826408   7.753   1.673   2.845  0.5124 -0.1808 -0.2720
  146MOL    H1926409   0.095   1.895   3.046  0.5006 -0.4514 -0.4376
  146MOL    C2026410   7.702   1.530   2.996 -0.2805  0.5973 -0.2067
  146MOL    C2126411   7.561   1.572   3.005  0.7393 -0.1552  0.4673
  146MOL    C2226412   7.472   1.455   3.057 -0.2514 -0.0599  0.1910
  146MOL    O2326413   7.485   1.344   3.011 -1.0766  0.3270 -0.6734
  146MOL    O2426414   7.380   1.486   3.150  0.5810 -0.0296 -0.0853
  146MOL    H2526415   7.729   1.508   3.099  0.8834  1.8229 -0.2442
  146MOL    H2626416   7.703   1.439   2.937 -0.8962 -1.3183  2.6262
  146MOL    H2726417   7.567   1.647   3.083  2.8661  0.1796  0.0222
  146MOL    H2826418   7.394   1.573   3.184  1.3072 -0.3921  0.5444
  146MOL    C2926419   7.499   1.633   2.880 -0.4452  0.1629  0.6519
  146MOL    C3026420   7.375   1.724   2.897 -0.0381 -0.3502  0.6849
  146MOL    C3126421   7.264   1.667   2.817 -0.2149  0.8232 -0.3337
  146MOL    O3226422   7.159   1.628   2.870 -0.3335  0.6382 -0.5335
  146MOL    O3326423   7.293   1.647   2.687 -0.2770  0.1997  0.0414
  146MOL    H3426424   7.486   1.552   2.808  0.6240  0.7643 -0.2368
  146MOL    H3526425   7.568   1.694   2.821 -0.1042 -0.4454  0.4132
  146MOL    H3626426   7.339   1.719   3.000  0.1644 -0.3552  0.7554
  146MOL    H3726427   7.377   1.682   2.661  1.2612 -2.1102  1.6573
  146MOL    C3826428   7.408   1.879   2.877 -0.5008 -0.3296 -0.3406
  146MOL    C3926429   7.292   1.969   2.832  0.0110 -0.0784  0.0040
  146MOL    C4026430   7.351   2.094   2.768  0.0533  0.5099 -0.6637
  146MOL    O4126431   7.364   2.204   2.822  0.0653  0.4035  0.2261
  146MOL    O4226432   7.391   2.076   2.642  0.0412  0.4561  0.1633
  146MOL    H4326433   7.495   1.897   2.814 -0.6306 -0.9810 -0.7165
  146MOL    H4426434   7.440   1.912   2.976 -0.8220 -0.1703 -0.2897
  146MOL    H4526435   7.241   1.933   2.743  0.3590 -0.5625 -0.0051
  146MOL    H4626436   7.417   2.159   2.606  0.7634  0.2831  0.2725
  146MOL    C4726437   7.198   1.993   2.949  0.6644 -0.8510  0.0120
  146MOL    C4826438   7.052   2.033   2.919 -0.5179  0.3536 -0.1079
  146MOL    C4926439   6.985   1.941   2.811 -0.8216  0.1072 -0.1543
  146MOL    O5026440   6.945   1.981   2.704 -0.0559 -0.1284 -0.3604
  146MOL    O5126441   6.966   1.817   2.861 -0.5619  0.2113  0.6117
  146MOL    H5226442   7.237   2.065   3.021 -0.8123  0.3356 -0.3557
  146MOL    H5326443   7.186   1.900   3.004 -0.6485 -0.4980  0.3255
  146MOL    H5426444   7.008   2.019   3.018  0.3619 -0.4687  0.1708
  146MOL    H5526445   6.927   1.759   2.798 -0.8087  0.4176  0.5709
  146MOL    C5626446   7.041   2.183   2.893 -0.2999  0.4671  0.4697
  146MOL    C5726447   6.940   2.255   2.989 -0.5614  0.0195 -0.5025
  146MOL    C5826448   6.793   2.248   2.942 -0.0174  0.3791  1.1250
  146MOL    O5926449   6.769   2.229   2.823 -0.0409  0.0663 -0.5138
  146MOL    O6026450   6.702   2.279   3.041 -0.5878 -0.1797 -0.7021
  146MOL    H6126451   7.016   2.201   2.788 -1.3677 -3.9015 -0.1149
  146MOL    H6226452   7.136   2.233   2.914  0.2590  0.0641 -1.0173
  146MOL    H6326453   6.943   2.211   3.089  1.4235  1.1755 -0.0182
  146MOL    H6426454   6.612   2.265   3.015 -1.0903  0.5643  0.5958
  146MOL    C6526455   6.988   2.405   3.007  0.2119 -0.5441  0.1662
  146MOL    C6626456   7.103   2.430   3.111 -0.1778 -0.7968  0.0552
  146MOL    C6726457   7.049   2.394   3.252 -1.0975 -0.8127 -0.1248
  146MOL    O6826458   7.074   2.285   3.303 -0.1872  0.1114 -0.3189
  146MOL    O6926459   6.969   2.485   3.311  0.4113  0.0013  0.1933
  146MOL    H7026460   6.900   2.464   3.031 -1.1354 -1.4932 -2.2602
  146MOL    H7126461   7.017   2.452   2.913 -4.3289  1.9034 -0.1123
  146MOL    H7226462   7.186   2.363   3.089 -0.7103 -2.0817  1.8520
  146MOL    H7326463   6.935   2.459   3.395 -1.6229 -1.7759 -1.1054
  146MOL    C7426464   7.149   2.571   3.120  0.0083 -0.6005 -0.3452
  146MOL    C7526465   7.244   2.611   3.231 -0.0357 -0.0379 -0.3668
  146MOL    C7626466   7.274   2.760   3.219  0.2893  1.0509 -0.2551
  146MOL    O7726467   7.203   2.846   3.267  0.1775  0.4210  0.6569
  146MOL    O7826468   7.378   2.783   3.127 -0.6573 -0.7194 -0.5185
  146MOL    H7926469   7.061   2.635   3.122  1.1222  0.9452  0.4002
  146MOL    H8026470   7.199   2.594   3.025 -0.9606  0.1632 -0.6845
  146MOL    H8126471   7.197   2.595   3.328 -1.1540 -1.1853 -1.0724
  146MOL    H8226472   7.393   2.876   3.128 -0.0206 -0.7689 -2.6624
  146MOL    C8326473   7.379   2.530   3.238  0.1930 -0.0827 -0.7618
  146MOL    C8426474   7.460   2.539   3.372 -0.5829 -0.3189  0.0558
  146MOL    C8526475   7.392   2.475   3.491  0.3817  0.0877  0.2646
  146MOL    O8626476   7.361   2.526   3.599  0.0935 -0.3506  0.1796
  146MOL    O8726477   7.375   2.339   3.462  0.7118 -0.4985 -0.2498
  146MOL    H8826478   7.453   2.555   3.161  2.3795 -0.3090  1.2250
  146MOL    H8926479   7.357   2.426   3.215 -1.0678  0.0002  0.0357
  146MOL    H9026480   7.556   2.491   3.349 -0.7933 -0.5549 -0.3266
  146MOL    H9126481   7.334   2.300   3.537  1.1954 -0.7488 -0.1192
  146MOL    C9226482   7.514   2.680   3.422 -0.4068  0.2650  0.7903
  146MOL    C9326483   7.629   2.686   3.526 -0.6018  0.3977 -0.1049
  146MOL    C9426484   7.658   2.832   3.570  0.7036 -0.7224 -0.2305
  146MOL    O9526485   7.598   2.935   3.537  0.4195  0.0634 -0.8212
  146MOL    O9626486   7.754   2.825   3.672  0.3217 -0.3994  0.4931
  146MOL    H9726487   7.429   2.738   3.458  0.8152  1.6229  1.5631
  146MOL    H9826488   7.544   2.744   3.339 -0.0352 -0.6752  0.1900
  146MOL    H9926489   7.590   2.640   3.616  0.5581 -1.5165 -0.5562
  146MOL   H10026490   7.790   2.905   3.705  0.5679 -0.0289 -0.6430
  146MOL   C10126491   7.757   2.621   3.464  0.1103  0.1063 -0.3558
  146MOL   C10226492   7.800   2.476   3.501 -0.2116 -0.0186 -0.0581
  146MOL   C10326493   7.774   2.460   3.652 -0.4100 -0.2476 -0.7287
  146MOL   O10426494   7.673   2.406   3.702 -0.0660 -0.1331 -0.2101
  146MOL   O10526495   0.010   2.532   3.735 -0.1990 -0.5011  0.3902
  146MOL   H10626496   7.835   2.697   3.475 -0.8378  1.3773 -2.0919
  146MOL   H10726497   7.741   2.614   3.357 -0.4836 -2.3546 -0.1266
  146MOL   H10826498   7.723   2.405   3.472  1.5329 -2.6565  1.6236
  146MOL   H10926499   7.828   2.526   3.823  0.9395 -0.6701  0.8374
  146MOL   C11026500   0.096   2.427   3.470 -0.5706  0.2507 -0.2236
  146MOL   C11126501   0.111   2.373   3.322  0.4209 -0.0163 -0.6974
  146MOL   C11226502   0.159   2.473   3.217 -0.1898  0.2027 -0.1143
  146MOL   O11326503   0.120   2.588   3.212  0.3023  0.5127 -0.9383
  146MOL   O11426504   0.246   2.421   3.130 -0.2190 -0.0588 -0.7874
  146MOL   H11526505   0.116   2.342   3.534 -2.0449  0.5681  0.6806
  146MOL   H11626506   0.167   2.503   3.502 -1.7327  1.6077 -0.8013
  146MOL   H11726507   0.194   2.302   3.322 -0.1436 -0.6999 -1.1481
  146MOL   H11826508   0.276   2.469   3.054  0.3228 -2.0916 -1.8987
  146MOL   C11926509   7.846   2.286   3.265  0.5736 -0.2785 -0.2571
  146MOL   C12026510   7.817   2.148   3.342 -0.3511 -0.2746  0.2086
  146MOL   C12126511   0.058   2.040   3.295  0.1629 -0.1730 -0.2582
  146MOL   O12226512   0.114   2.036   3.188  0.3417 -0.9531  0.1023
  146MOL   O12326513   0.079   1.946   3.393 -0.2030 -0.9717  0.8610
  146MOL   H12426514   7.839   2.275   3.156 -0.8512 -2.4801  0.0189
  146MOL   H12526515   7.753   2.342   3.277  0.7613 -0.1324  0.4859
  146MOL   H12626516   7.839   2.180   3.444 -0.2425  3.5259 -0.8959
  146MOL   H12726517   0.156   1.895   3.372  0.9186 -0.2996  3.1078
  146MOL   C12826518   7.668   2.106   3.354 -0.6718 -0.2647  0.6681
  146MOL   C12926519   7.605   2.032   3.238  0.2649 -0.2120  0.1286
  146MOL   C13026520   7.615   2.101   3.102  0.0256  0.0974  0.7344
  146MOL   O13126521   7.565   2.215   3.078 -0.1950 -0.2489 -0.1965
  146MOL   O13226522   7.675   2.018   3.006 -0.1123  0.5757 -0.3501
  146MOL   H13326523   7.615   2.198   3.378  0.6706  0.6813  0.1005
  146MOL   H13426524   7.661   2.054   3.450 -3.9461 -0.9125  0.1336
  146MOL   H13526525   7.653   1.936   3.221  1.2069  0.1406  0.7567
  146MOL   H13626526   7.655   2.052   2.921  0.1192 -0.8848 -1.0024
  146MOL   C13726527   7.449   2.022   3.259 -0.2115 -0.6352  0.2229
  146MOL   C13826528   7.397   1.950   3.381 -0.1749 -0.4205  0.5989
  146MOL   C13926529   7.437   1.802   3.365 -0.0450 -0.5698 -0.2416
  146MOL   O14026530   7.408   1.726   3.274  0.0533 -0.1021 -0.5242
  146MOL   O14126531   7.514   1.768   3.476  0.4667 -0.4718  0.4198
  146MOL   H14226532   7.415   1.976   3.167  0.2503  0.1984 -0.3789
  146MOL   H14326533   7.413   2.125   3.258  1.7242  0.1249  2.7452
  146MOL   H14426534   7.443   1.998   3.467  0.5042 -3.3200  1.9165
  146MOL   H14526535   7.541   1.679   3.459  1.0461 -0.1691 -0.2590
  146MOL   C14626536   7.246   1.977   3.395 -0.2859  0.3901  0.2455
  146MOL   C14726537   7.168   1.947   3.523 -0.6064  0.6118  0.0348
  146MOL   C14826538   7.242   2.011   3.647 -0.2849  0.1494  0.2758
  146MOL   O14926539   7.250   1.953   3.752  0.1502 -0.1447  0.5723
  146MOL   O15026540   7.274   2.139   3.622 -0.5898  0.1944  0.2205
  146MOL   H15126541   7.199   1.939   3.304 -1.1773  0.8312  0.5247
  146MOL   H15226542   7.236   2.084   3.382  1.6168  0.3285 -2.1152
  146MOL   H15326543   7.071   1.997   3.524 -2.0094 -1.9273 -2.9101
  146MOL   H15426544   7.305   2.174   3.704 -1.1735  1.0055  0.0946
  146MOL   C15526545   7.132   1.798   3.548 -0.4936 -0.0602  0.1217
  146MOL   C15626546   7.026   1.750   3.442 -0.4980  0.1459 -0.2153
  146MOL   C15726547   6.887   1.821   3.455 -0.6369 -0.0308 -0.0351
  146MOL   O15826548   6.849   1.875   3.355 -0.0812  0.2258  0.0915
  146MOL   O15926549   6.823   1.803   3.572  0.1172 -0.3773  0.0716
  146MOL   H16026550   7.101   1.791   3.652 -1.7217  2.4326 -0.0297
  146MOL   H16126551   7.224   1.742   3.536  0.6663  2.3004 -2.7348
  146MOL   H16226552   7.058   1.776   3.341 -2.9143 -0.9880 -1.3061
  146MOL   H16326553   6.744   1.855   3.573  2.1139  2.8148 -0.3421
  146MOL   C16426554   7.008   1.597   3.432 -0.1318 -0.3808 -0.0994
  146MOL   C16526555   7.109   1.518   3.340 -0.6087  0.0743 -0.1494
  146MOL   C16626556   7.056   1.513   3.194  0.2046 -0.3036 -0.2769
  146MOL   O16726557   6.997   1.418   3.141 -0.4035  0.2990 -0.2667
  146MOL   O16826558   7.097   1.629   3.133 -0.5118 -0.2289 -0.3868
  146MOL   H16926559   6.905   1.576   3.403 -0.3686  1.6171 -0.7952
  146MOL   H17026560   7.028   1.568   3.535  2.0396  1.2571 -0.0112
  146MOL   H17126561   7.207   1.564   3.334 -1.4308  1.6551 -2.5919
  146MOL   H17226562   7.082   1.619   3.040  1.7203 -2.6864 -0.5120
  146MOL   C17326563   7.134   1.376   3.399 -0.2806  0.2036 -0.4273
  146MOL   C17426564   7.273   1.346   3.451  0.4187  0.0713 -0.2103
  146MOL   C17526565   7.316   1.438   3.562 -0.7110 -0.5356  0.0548
  146MOL   O17626566   7.419   1.508   3.550  0.1279  0.5272  0.7221
  146MOL   O17726567   7.239   1.443   3.665 -0.0471 -0.9809  0.2847
  146MOL   H17826568   7.110   1.298   3.326 -2.3133  1.7729 -1.5167
  146MOL   H17926569   7.061   1.350   3.475 -0.8245  0.3073 -0.9093
  146MOL   H18026570   7.272   1.242   3.484 -1.1946  0.2944  0.4707
  146MOL   H18126571   7.274   1.506   3.726 -0.6054 -2.1937  1.8856
  146MOL   H18226572   7.343   1.348   3.367 -1.4537  0.3503 -1.7882
  147MOL     C126573   6.232   4.782   5.321 -0.0204 -0.6135 -0.5242
  147MOL     C226574   6.139   4.683   5.246 -0.6937  0.1908  0.6174
  147MOL     C326575   6.153   4.706   5.090  0.5839  0.2730  0.1389
  147MOL     O426576   6.133   4.811   5.024 -0.3920  0.6159 -0.1118
  147MOL     O526577   6.207   4.599   5.030  0.4917  0.0161  0.1392
  147MOL     H626578   6.332   4.753   5.289  0.6494 -0.3416  1.2679
  147MOL     H726579   6.202   4.882   5.289 -0.1288 -1.4304 -3.0456
  147MOL     H826580   6.194   4.591   5.266 -1.3817 -0.3064  0.2726
  147MOL     H926581   6.226   4.619   4.939 -1.0886  1.0471  0.0111
  147MOL    H1026582   6.233   4.779   5.430  1.2567  1.2337 -0.4601
  147MOL    C1126583   6.001   4.682   5.305 -0.2650  0.3288  0.4765
  147MOL    C1226584   5.922   4.550   5.276  0.2074  0.2171 -0.4985
  147MOL    C1326585   5.997   4.420   5.320  0.1364  0.8805 -0.3556
  147MOL    O1426586   5.998   4.378   5.436 -0.1525 -1.3722  0.1327
  147MOL    O1526587   6.078   4.369   5.225 -0.4022 -0.0022 -0.5695
  147MOL    H1626588   5.945   4.769   5.271  0.4471  0.5274 -0.1821
  147MOL    H1726589   6.007   4.700   5.413  0.0352  0.2274  0.4777
  147MOL    H1826590   5.836   4.568   5.341 -0.0788  1.1151 -1.1154
  147MOL    H1926591   6.118   4.295   5.269 -0.4315  0.7845  0.8056
  147MOL    C2026592   5.868   4.537   5.127  0.2941 -0.3313  0.4292
  147MOL    C2126593   5.748   4.632   5.106 -0.0036  0.6992  0.0811
  147MOL    C2226594   5.623   4.568   5.165  0.3661 -0.2206 -0.7921
  147MOL    O2326595   5.570   4.465   5.122 -0.6102 -0.4439  0.0237
  147MOL    O2426596   5.590   4.631   5.283  0.3255  0.5090 -0.1240
  147MOL    H2526597   5.848   4.433   5.102 -1.7617  0.1380 -0.0178
  147MOL    H2626598   5.940   4.564   5.049 -1.6168  1.8852 -0.6527
  147MOL    H2726599   5.765   4.728   5.153 -1.0101  0.4947  0.8622
  147MOL    H2826600   5.516   4.587   5.322 -0.4276 -1.7808 -3.9064
  147MOL    C2926601   5.715   4.659   4.960 -0.5268  0.3038  0.3872
  147MOL    C3026602   5.606   4.764   4.939  0.5470 -0.0704 -0.3256
  147MOL    C3126603   5.556   4.764   4.792 -0.8000 -0.0388 -0.1880
  147MOL    O3226604   5.601   4.697   4.699  0.1191  0.2865 -0.0504
  147MOL    O3326605   5.446   4.849   4.790 -0.2239 -0.0264  0.7320
  147MOL    H3426606   5.688   4.574   4.899 -3.4617  2.2412 -1.1395
  147MOL    H3526607   5.806   4.696   4.911  0.8583  1.1366  3.4561
  147MOL    H3626608   5.521   4.727   4.996 -0.1520 -0.4793 -1.6185
  147MOL    H3726609   5.414   4.857   4.701  2.9849  1.7273 -0.3362
  147MOL    C3826610   5.655   4.907   4.985 -0.7141 -0.2865 -0.3993
  147MOL    C3926611   5.614   4.963   5.124 -0.4716  0.9929  0.4087
  147MOL    C4026612   5.461   4.989   5.124 -0.5774  0.3958  0.5981
  147MOL    O4126613   5.382   4.929   5.196  0.0383 -0.5952  0.5975
  147MOL    O4226614   5.424   5.086   5.034  0.4998  0.2319  0.2342
  147MOL    H4326615   5.630   4.969   4.899 -3.7102 -1.1199 -0.2009
  147MOL    H4426616   5.764   4.904   4.988 -0.6821  0.0282 -1.1011
  147MOL    H4526617   5.628   4.885   5.198  1.3952  1.0283  0.1144
  147MOL    H4626618   5.332   5.106   5.043  0.5569  0.3880  0.4683
  147MOL    C4726619   5.692   5.088   5.150  0.0572  0.1954 -0.1229
  147MOL    C4826620   5.820   5.067   5.235  0.3627  0.6435 -0.3075
  147MOL    C4926621   5.785   5.023   5.377 -0.3667 -0.6184  0.1159
  147MOL    O5026622   5.668   5.022   5.425 -0.3941  0.2933  0.1591
  147MOL    O5126623   5.894   4.978   5.454 -0.3233 -0.4654  0.7623
  147MOL    H5226624   5.620   5.157   5.195  0.5499  1.1810 -0.8050
  147MOL    H5326625   5.716   5.129   5.051  0.0581  1.6950  0.4815
  147MOL    H5426626   5.877   4.991   5.182  1.2092  1.3994 -0.5028
  147MOL    H5526627   5.878   4.989   5.547 -1.9712  0.8998  0.3474
  147MOL    C5626628   5.901   5.200   5.231  0.1061 -0.0703  0.2818
  147MOL    C5726629   6.057   5.185   5.239 -0.8125 -0.4401  0.1196
  147MOL    C5826630   6.104   5.200   5.385  0.8264  0.0609 -0.7542
  147MOL    O5926631   6.043   5.263   5.472 -0.5389  0.2584 -0.1732
  147MOL    O6026632   6.217   5.130   5.410  0.2303 -0.2754 -0.1002
  147MOL    H6126633   5.874   5.268   5.312 -1.6084  0.2681 -0.5638
  147MOL    H6226634   5.878   5.253   5.139  0.6456 -0.2547  0.0370
  147MOL    H6326635   6.075   5.083   5.203 -0.2787 -0.6323  0.9115
  147MOL    H6426636   6.246   5.157   5.496 -0.9024 -1.9349  0.8202
  147MOL    C6526637   6.143   5.285   5.159 -0.3622  0.4413  0.1653
  147MOL    C6626638   6.146   5.270   5.003 -0.2037 -0.3599 -0.5035
  147MOL    C6726639   6.224   5.144   4.954 -0.5978  0.0890  0.7481
  147MOL    O6826640   6.287   5.066   5.028  0.1963 -0.2336  0.6060
  147MOL    O6926641   6.211   5.136   4.816  0.2523 -0.0892  0.3745
  147MOL    H7026642   6.242   5.279   5.205 -1.5786 -0.4312  2.7968
  147MOL    H7126643   6.117   5.389   5.175 -0.9169  0.7406 -2.5608
  147MOL    H7226644   6.044   5.260   4.967  0.3350  0.0253 -2.1959
  147MOL    H7326645   6.257   5.067   4.772  0.1737  0.8370 -1.2164
  147MOL    C7426646   6.192   5.397   4.921 -0.1306 -0.3452 -0.0508
  147MOL    C7526647   6.330   5.460   4.958 -0.3077  0.3694 -0.5578
  147MOL    C7626648   6.320   5.608   4.996  0.1053 -0.4408 -0.3923
  147MOL    O7726649   6.400   5.660   5.076  0.1693  0.1003  0.3614
  147MOL    O7826650   6.213   5.682   4.949 -0.1672  0.3769  0.7080
  147MOL    H7926651   6.120   5.477   4.937 -1.0665 -0.4685 -3.2710
  147MOL    H8026652   6.183   5.380   4.814 -0.5910  2.7113 -0.5468
  147MOL    H8126653   6.355   5.409   5.051  1.6465  0.1577 -1.1712
  147MOL    H8226654   6.216   5.771   4.980  0.6311  0.8511 -0.7060
  147MOL    C8326655   6.443   5.433   4.866 -0.5021 -0.0614  0.1521
  147MOL    C8426656   6.475   5.525   4.747  0.3647  0.3104 -1.0458
  147MOL    C8526657   6.351   5.535   4.655 -0.9320  0.5076 -0.2652
  147MOL    O8626658   6.283   5.637   4.650  0.1144  0.2429  0.3619
  147MOL    O8726659   6.330   5.425   4.571  0.0254  0.0318 -0.3146
  147MOL    H8826660   6.432   5.328   4.839 -1.5137  0.2062 -0.5065
  147MOL    H8926661   6.538   5.430   4.919 -1.4540 -0.2812  1.8660
  147MOL    H9026662   6.494   5.629   4.775 -2.0783  0.4544  0.2399
  147MOL    H9126663   6.254   5.429   4.516  1.4106 -0.6710 -2.3465
  147MOL    C9226664   6.601   5.484   4.674 -0.1319  0.5312 -0.6840
  147MOL    C9326665   6.740   5.532   4.719  0.7889  0.2756  0.2959
  147MOL    C9426666   6.799   5.638   4.633  0.2978 -0.4213  0.3422
  147MOL    O9526667   6.887   5.621   4.550  0.2771  1.1138 -0.4628
  147MOL    O9626668   6.744   5.761   4.660  0.6440 -0.5993  0.2749
  147MOL    H9726669   6.589   5.507   4.568  0.9392  0.7932 -0.7548
  147MOL    H9826670   6.592   5.376   4.683 -2.0174  0.8480  1.7331
  147MOL    H9926671   6.729   5.571   4.820 -2.3206 -0.1945  0.1754
  147MOL   H10026672   6.770   5.825   4.596 -1.9255 -0.1300 -0.3684
  147MOL   C10126673   6.821   5.399   4.737  0.0587 -0.5819 -0.6996
  147MOL   C10226674   6.966   5.434   4.784 -0.3974  0.2195 -0.6172
  147MOL   C10326675   7.061   5.337   4.715  0.3060 -0.2888  0.1105
  147MOL   O10426676   7.031   5.220   4.686 -0.6145 -0.5567  0.1437
  147MOL   O10526677   7.173   5.403   4.682  0.0540  0.7035  0.0559
  147MOL   H10626678   6.832   5.352   4.639 -0.2441  0.9043 -1.4512
  147MOL   H10726679   6.779   5.318   4.798  0.7446  0.0876  0.6892
  147MOL   H10826680   6.998   5.535   4.758  1.0087  0.0049  0.1988
  147MOL   H10926681   7.211   5.355   4.610  0.2303  0.0083  0.6132
  147MOL   C11026682   6.986   5.416   4.928 -0.1676  0.5422 -0.3037
  147MOL   C11126683   6.968   5.529   5.032  0.5769  0.8058  0.3641
  147MOL   C11226684   7.063   5.645   5.005  0.1080 -0.1824 -0.6492
  147MOL   O11326685   7.162   5.646   4.927 -0.2988 -0.4279 -0.4115
  147MOL   O11426686   7.020   5.744   5.086  0.8752  0.3081 -0.0280
  147MOL   H11526687   7.083   5.373   4.951  0.2503  0.6274 -1.8836
  147MOL   H11626688   6.918   5.342   4.971  0.0822 -0.1062 -1.0192
  147MOL   H11726689   6.869   5.575   5.024 -0.9433 -2.0176  2.3474
  147MOL   H11826690   7.082   5.815   5.091 -1.0336  1.9443  1.3187
  147MOL   C11926691   6.998   5.475   5.180  0.0608  0.5214  0.1069
  147MOL   C12026692   6.883   5.394   5.254  0.2024  0.0988 -0.0533
  147MOL   C12126693   6.738   5.412   5.204  0.3256 -0.3707 -0.2998
  147MOL   O12226694   6.676   5.319   5.161  0.3508  0.5206  0.3695
  147MOL   O12326695   6.684   5.530   5.233  0.1475 -0.1828  0.3359
  147MOL   H12426696   7.032   5.560   5.239 -2.2139 -0.0424  2.3490
  147MOL   H12526697   7.083   5.408   5.172 -1.8019 -1.7912 -1.1490
  147MOL   H12626698   6.900   5.286   5.254 -0.7054 -0.0590  1.5204
  147MOL   H12726699   6.590   5.519   5.233  0.1629 -0.3199  0.3220
  147MOL   C12826700   6.898   5.428   5.408  0.3180 -0.4771  0.2327
  147MOL   C12926701   6.823   5.350   5.519 -0.4812 -0.3285 -0.0880
  147MOL   C13026702   6.839   5.418   5.660 -0.0538  0.0415  0.3812
  147MOL   O13126703   6.921   5.381   5.744  0.6928  0.0034 -0.0113
  147MOL   O13226704   6.731   5.498   5.687  0.3165 -0.2624 -0.1502
  147MOL   H13326705   6.876   5.534   5.417  3.1126 -0.0728  3.8518
  147MOL   H13426706   7.004   5.420   5.434  0.0911 -0.3076  1.2432
  147MOL   H13526707   6.715   5.357   5.504 -0.6317 -1.3481  0.4667
  147MOL   H13626708   6.730   5.519   5.779 -1.6768  0.5066 -0.3415
  147MOL   C13726709   6.851   5.201   5.518 -0.4049  0.0753 -0.1592
  147MOL   C13826710   6.723   5.109   5.534  0.3702  0.3843  0.3890
  147MOL   C13926711   6.696   5.083   5.683 -0.4663 -0.1031  0.1396
  147MOL   O14026712   6.786   5.078   5.769 -0.1986 -0.0576 -0.1471
  147MOL   O14126713   6.561   5.066   5.711 -0.5889 -0.7996  0.0045
  147MOL   H14226714   6.927   5.172   5.590  1.6772  2.1824 -1.4435
  147MOL   H14326715   6.910   5.188   5.428  1.4485  1.1344  0.8737
  147MOL   H14426716   6.643   5.166   5.487 -1.6378 -0.9555  2.1178
  147MOL   H14526717   6.575   5.043   5.802  3.4595 -0.1789 -0.3591
  147MOL   C14626718   6.729   4.969   5.470  0.5844  0.3470  0.3393
  147MOL   C14726719   6.681   4.957   5.328  0.1056  0.1594  0.7388
  147MOL   C14826720   6.525   4.987   5.321 -0.6672  0.1564  0.5598
  147MOL   O14926721   6.451   4.987   5.420  0.7345 -0.6328  0.2362
  147MOL   O15026722   6.491   5.031   5.203 -0.8114  0.0058  0.3987
  147MOL   H15126723   6.674   4.890   5.521 -1.6092 -0.4800 -3.1564
  147MOL   H15226724   6.836   4.951   5.476  0.4957 -0.1974  0.2897
  147MOL   H15326725   6.731   5.033   5.267 -1.2850  1.0440  0.6660
  147MOL   H15426726   6.401   5.050   5.181  0.2323  3.5000 -1.1174
  147MOL   C15526727   6.723   4.813   5.279  0.6253 -0.0467  0.1476
  147MOL   C15626728   6.685   4.783   5.127 -0.1997 -0.3510 -0.5034
  147MOL   C15726729   6.657   4.639   5.109 -0.6637 -0.0763 -0.7555
  147MOL   O15826730   6.734   4.561   5.040 -0.3916 -0.1322 -0.7942
  147MOL   O15926731   6.537   4.613   5.166  0.5851  0.2846 -0.4881
  147MOL   H16026732   6.680   4.734   5.341  1.2213  0.0879  0.7334
  147MOL   H16126733   6.831   4.795   5.284  1.3044  3.1930 -1.6748
  147MOL   H16226734   6.588   4.824   5.101  0.2151  1.6066  0.8591
  147MOL   H16326735   6.522   4.525   5.135  2.7496  0.4171 -1.9501
  147MOL   C16426736   6.778   4.843   5.023 -0.1757  0.9155  0.3149
  147MOL   C16526737   6.713   4.856   4.885  0.4532  1.1308  0.4494
  147MOL   C16626738   6.817   4.863   4.776 -0.7244 -0.3020  0.2395
  147MOL   O16726739   6.929   4.915   4.786  0.4019 -0.5193  0.0830
  147MOL   O16826740   6.775   4.805   4.664 -0.0506  0.1122 -0.5364
  147MOL   H16926741   6.869   4.783   5.020 -1.2882 -0.7531 -0.6856
  147MOL   H17026742   6.807   4.944   5.052  3.0463  0.4943 -1.1207
  147MOL   H17126743   6.649   4.770   4.865  2.4083  0.1020 -1.6435
  147MOL   H17226744   6.836   4.829   4.595 -0.6417  0.7268 -0.8482
  147MOL   C17326745   6.622   4.977   4.867  0.1103  0.1484  0.4803
  147MOL   C17426746   6.558   5.012   4.727 -0.0232 -0.0112 -0.7030
  147MOL   C17526747   6.451   4.906   4.696  0.0158  0.0543 -0.3287
  147MOL   O17626748   6.337   4.913   4.737 -0.1363 -0.5052  0.1335
  147MOL   O17726749   6.500   4.810   4.620 -0.2643 -0.2208 -0.3933
  147MOL   H17826750   6.674   5.070   4.891 -1.8984  1.5134 -0.3462
  147MOL   H17926751   6.540   4.982   4.938  0.0967  1.3647  0.3921
  147MOL   H18026752   6.493   5.097   4.748 -1.4512 -1.3277  0.3376
  147MOL   H18126753   6.591   4.796   4.640 -0.0331  2.7566  0.8367
  147MOL   H18226754   6.620   5.042   4.643  0.0968 -1.8851 -1.3028
  148MOL     C126755   1.161   5.472   5.116 -0.1254 -0.0564 -0.3775
  148MOL     C226756   1.092   5.330   5.115 -0.0773  0.3389  0.1341
  148MOL     C326757   1.127   5.245   4.994  0.1333 -0.2501  0.9648
  148MOL     O426758   1.229   5.262   4.920  0.1029 -0.1664 -0.4338
  148MOL     O526759   1.042   5.140   4.976  0.2752 -0.2413  0.4113
  148MOL     H626760   1.134   5.517   5.212  0.7689  2.3288 -1.1890
  148MOL     H726761   1.269   5.459   5.105 -0.0915  0.4792 -0.7018
  148MOL     H826762   1.135   5.271   5.196 -3.0960  1.6590  2.7832
  148MOL     H926763   1.063   5.096   4.896 -1.8206  3.2037 -2.1877
  148MOL    H1026764   1.124   5.535   5.034  0.7332  1.2659  0.2255
  148MOL    C1126765   0.943   5.334   5.156 -0.3675  0.3035  0.5308
  148MOL    C1226766   0.838   5.393   5.056 -0.2451  0.7133 -0.2741
  148MOL    C1326767   0.816   5.541   5.087 -0.1133  0.2720  0.0524
  148MOL    O1426768   0.831   5.602   5.191 -0.3227  0.0951  0.4086
  148MOL    O1526769   0.799   5.596   4.967 -0.3524  0.2732  0.0634
  148MOL    H1626770   0.934   5.382   5.254  1.2294 -0.2482  0.9698
  148MOL    H1726771   0.913   5.231   5.174 -0.6593  0.3760  0.4458
  148MOL    H1826772   0.895   5.375   4.965  1.7148  0.9109  0.8949
  148MOL    H1926773   0.809   5.690   4.967  0.1784  0.2241 -0.5487
  148MOL    C2026774   0.697   5.319   5.068  0.3263  0.6676  0.0231
  148MOL    C2126775   0.675   5.193   4.984  0.3511  0.3214 -0.0712
  148MOL    C2226776   0.639   5.227   4.837  0.7982  0.4478  0.4078
  148MOL    O2326777   0.600   5.331   4.797 -0.3733  0.2478 -0.5892
  148MOL    O2426778   0.666   5.116   4.761 -0.3283  0.4800 -0.3290
  148MOL    H2526779   0.616   5.392   5.059  0.3329  0.5408 -1.0793
  148MOL    H2626780   0.679   5.287   5.171 -0.3374  0.2573 -0.2145
  148MOL    H2726781   0.763   5.129   4.982 -0.0637 -0.2413 -0.3893
  148MOL    H2826782   0.636   5.106   4.672 -0.7317 -0.8430 -0.0588
  148MOL    C2926783   0.549   5.112   5.039 -0.2756  0.2045  0.3564
  148MOL    C3026784   0.568   5.017   5.163 -0.2007 -0.1061 -0.4104
  148MOL    C3126785   0.683   4.915   5.140  0.2410  0.0478 -0.1106
  148MOL    O3226786   0.791   4.906   5.205  0.3264 -0.0350 -0.2279
  148MOL    O3326787   0.650   4.822   5.041 -0.6940  0.0147  0.0540
  148MOL    H3426788   0.498   5.052   4.964 -0.8569  0.4905  0.5249
  148MOL    H3526789   0.477   5.182   5.079  0.1396  1.2757 -0.7313
  148MOL    H3626790   0.604   5.072   5.250 -2.2543 -0.7505  0.8927
  148MOL    H3726791   0.718   4.757   5.035 -2.4823 -1.9155  0.2331
  148MOL    C3826792   0.441   4.944   5.202  0.4840  0.1333  0.0457
  148MOL    C3926793   0.418   4.891   5.344 -0.6012 -0.5536 -0.6226
  148MOL    C4026794   0.512   4.782   5.398 -0.7115  0.1741  0.5360
  148MOL    O4126795   0.515   4.669   5.358  0.9530  0.1784  0.0947
  148MOL    O4226796   0.605   4.833   5.489  0.2633  0.0663  0.0160
  148MOL    H4326797   0.420   4.867   5.128  2.3328 -1.4024  1.0806
  148MOL    H4426798   0.358   5.014   5.190 -0.1752 -0.7453 -0.6336
  148MOL    H4526799   0.420   4.982   5.403 -0.3514 -0.8286 -0.2055
  148MOL    H4626800   0.662   4.763   5.516  0.5462 -0.0197 -0.8067
  148MOL    C4726801   0.271   4.840   5.365  0.5935 -0.1886  0.1293
  148MOL    C4826802   0.214   4.732   5.264 -0.2553  0.3603  0.5143
  148MOL    C4926803   0.174   4.776   5.122  0.3591  0.6660 -0.8478
  148MOL    O5026804   0.169   4.891   5.080 -0.7472 -0.5439  0.3734
  148MOL    O5126805   0.160   4.663   5.045 -0.0039  0.2120  0.1884
  148MOL    H5226806   0.210   4.931   5.370  1.0053 -0.0223  3.7349
  148MOL    H5326807   0.262   4.796   5.464 -0.9553  0.2437  0.1845
  148MOL    H5426808   0.297   4.661   5.264  0.4512  1.1355  2.5335
  148MOL    H5526809   0.122   4.692   4.964  0.0215  1.8854  0.7662
  148MOL    C5626810   0.083   4.662   5.322 -0.3916  0.5561 -0.2103
  148MOL    C5726811   0.105   4.538   5.412  0.4501  0.3483  0.5621
  148MOL    C5826812   0.158   4.424   5.326  0.0740 -0.2310  0.0581
  148MOL    O5926813   0.268   4.381   5.346  0.1794  0.5766 -0.0785
  148MOL    O6026814   0.075   4.376   5.230 -0.7004 -0.2977 -0.6510
  148MOL    H6126815   0.012   4.639   5.243 -0.9144 -1.4086  0.8003
  148MOL    H6226816   0.020   4.736   5.371 -0.5984  0.5274 -0.4322
  148MOL    H6326817   0.184   4.554   5.486 -1.4099  0.3853  2.5741
  148MOL    H6426818   0.107   4.295   5.195  0.3483 -0.5155  0.7379
  148MOL    C6526819   7.821   4.505   5.473 -0.6159  0.1243  0.0584
  148MOL    C6626820   7.809   4.391   5.580  0.0752 -0.3368 -0.0772
  148MOL    C6726821   7.662   4.375   5.624 -0.3927 -0.2000 -0.1151
  148MOL    O6826822   7.571   4.453   5.599  0.3110 -0.5369 -0.5191
  148MOL    O6926823   7.640   4.256   5.681  0.1745  0.0615  0.4096
  148MOL    H7026824   7.754   4.484   5.389 -1.7952 -1.3097  1.3342
  148MOL    H7126825   7.788   4.594   5.527  1.3053  0.0005  1.4412
  148MOL    H7226826   7.830   4.295   5.532 -1.4624 -1.1341  0.8144
  148MOL    H7326827   7.547   4.247   5.698  0.5940 -1.0618  2.2915
  148MOL    C7426828   0.057   4.423   5.701 -0.7623  0.8248 -0.0398
  148MOL    C7526829   0.068   4.574   5.748 -0.5109 -0.5058  0.1673
  148MOL    C7626830   0.214   4.596   5.807  0.4457 -0.2626  0.1149
  148MOL    O7726831   0.246   4.574   5.926 -1.0279  0.3815  0.1051
  148MOL    O7826832   0.296   4.651   5.711 -0.2067 -0.1358  0.5157
  148MOL    H7926833   0.158   4.389   5.678 -0.6840  0.4891  0.7667
  148MOL    H8026834   0.030   4.355   5.782 -2.1194  0.3132 -0.8969
  148MOL    H8126835   0.075   4.646   5.666 -0.1815  0.4689  1.0277
  148MOL    H8226836   0.380   4.672   5.749  0.2600  2.7160 -1.8766
  148MOL    C8326837   7.803   4.620   5.850  0.6161  0.3533  0.0347
  148MOL    C8426838   7.726   4.739   5.800  0.3613 -0.4935  0.4357
  148MOL    C8526839   7.816   4.861   5.836  0.2478  0.5504  0.4897
  148MOL    O8626840   0.014   4.936   5.751  0.2360 -0.1779 -0.7420
  148MOL    O8726841   7.816   4.893   5.968  0.0650  0.0164 -0.1861
  148MOL    H8826842   7.849   4.646   5.945  0.2370  2.2595 -0.2822
  148MOL    H8926843   7.738   4.537   5.878  2.2066 -1.0844 -0.4611
  148MOL    H9026844   7.708   4.726   5.693 -0.2946  1.3625  0.3026
  148MOL    H9126845   0.023   4.963   5.988  1.3288 -0.1788 -3.0800
  148MOL    C9226846   7.580   4.750   5.854  0.2351  0.6892 -0.3495
  148MOL    C9326847   7.474   4.836   5.770 -0.1100 -0.9417  0.4072
  148MOL    C9426848   7.519   4.973   5.721  0.3284 -0.0849 -0.6939
  148MOL    O9526849   7.586   4.991   5.624 -0.0976  0.5133  0.0589
  148MOL    O9626850   7.460   5.075   5.793 -0.1774  0.1842  0.0036
  148MOL    H9726851   7.581   4.776   5.960 -0.2149  0.7413 -0.3581
  148MOL    H9826852   7.540   4.649   5.845 -2.5704  1.6746  0.5110
  148MOL    H9926853   7.474   4.771   5.683 -0.7789 -1.5407  0.8573
  148MOL   H10026854   7.515   5.149   5.771  0.5280 -0.4332 -0.3244
  148MOL   C10126855   7.339   4.837   5.837 -1.3088  0.2643 -0.1828
  148MOL   C10226856   7.215   4.900   5.758 -0.3668  0.4257 -0.7752
  148MOL   C10326857   7.126   4.960   5.870  0.0142 -0.2227 -0.1159
  148MOL   O10426858   7.033   4.897   5.920  0.0851 -0.7106 -0.5558
  148MOL   O10526859   7.164   5.089   5.902  0.1566  0.6713  0.3626
  148MOL   H10626860   7.361   4.898   5.924 -1.1323  1.3693 -0.9951
  148MOL   H10726861   7.312   4.740   5.878  0.2235 -0.0741  0.0788
  148MOL   H10826862   7.260   4.990   5.715  0.1046  0.4242 -0.3039
  148MOL   H10926863   7.248   5.100   5.860  0.6755  2.0351  1.7113
  148MOL   C11026864   7.143   4.800   5.654  0.6841 -0.0752 -0.6117
  148MOL   C11126865   7.211   4.788   5.514 -0.0541  0.5114 -0.2366
  148MOL   C11226866   7.218   4.924   5.444  0.8516 -0.2837 -0.1799
  148MOL   O11326867   7.321   4.987   5.413 -0.0828 -0.2090  0.1615
  148MOL   O11426868   7.092   4.976   5.429 -0.0398 -0.0101  0.6058
  148MOL   H11526869   7.041   4.836   5.641  1.0609  0.8551 -1.0799
  148MOL   H11626870   7.114   4.707   5.702 -3.1979  1.2384 -0.2794
  148MOL   H11726871   7.312   4.748   5.513  0.6718  2.2912 -2.6546
  148MOL   H11826872   7.107   5.052   5.375  0.9262  0.2402  1.1941
  148MOL   C11926873   7.145   4.679   5.422  0.2825 -0.0368 -0.3077
  148MOL   C12026874   7.239   4.612   5.317  0.2913 -0.4369 -0.7875
  148MOL   C12126875   7.360   4.546   5.370 -0.3160  0.2919  0.0874
  148MOL   O12226876   7.471   4.553   5.325  0.4813  0.2037 -0.0193
  148MOL   O12326877   7.332   4.470   5.482  0.3475 -0.5831  0.0754
  148MOL   H12426878   7.052   4.719   5.383  1.1482  1.3671 -0.9305
  148MOL   H12526879   7.114   4.593   5.482  0.2065 -1.3061 -2.1371
  148MOL   H12626880   7.184   4.529   5.274  0.1269 -0.4613 -0.5330
  148MOL   H12726881   7.409   4.440   5.527  0.0765 -2.0419 -0.4220
  148MOL   C12826882   7.274   4.702   5.195  0.8531  0.2385 -0.2644
  148MOL   C12926883   7.153   4.748   5.098  0.4022  0.7579  0.1450
  148MOL   C13026884   7.089   4.632   5.019  0.5558 -0.8106 -0.7275
  148MOL   O13126885   7.103   4.611   4.903 -0.4702 -0.3230 -0.0483
  148MOL   O13226886   7.008   4.558   5.104 -0.0936 -0.1248  0.2319
  148MOL   H13326887   7.353   4.655   5.137  1.7734  1.7665 -0.2889
  148MOL   H13426888   7.316   4.795   5.235 -0.9698  1.2736 -0.6707
  148MOL   H13526889   7.085   4.799   5.166  1.1123  1.1432  0.5698
  148MOL   H13626890   6.977   4.477   5.066  0.3899  0.4176 -1.3661
  148MOL   C13726891   7.190   4.858   4.992  0.3866  0.1254  0.0221
  148MOL   C13826892   7.234   4.993   5.048 -0.4327 -0.0304 -1.0801
  148MOL   C13926893   7.117   5.075   5.095 -0.1593 -0.5052 -0.1412
  148MOL   O14026894   7.114   5.122   5.213  0.0004 -0.6112  0.1666
  148MOL   O14126895   7.027   5.101   5.001 -0.2296 -0.5238  0.0323
  148MOL   H14226896   7.106   4.878   4.925  0.4775 -0.9130 -0.4035
  148MOL   H14326897   7.267   4.818   4.927 -0.7203 -0.7039 -0.8034
  148MOL   H14426898   7.292   4.975   5.139 -0.1651  1.0541 -1.0313
  148MOL   H14526899   7.032   5.057   4.918  1.2198 -2.3043  1.0407
  148MOL   C14626900   7.319   5.062   4.940 -0.1883 -0.0844  0.7682
  148MOL   C14726901   7.424   5.159   5.006  0.7113 -0.2220  0.4811
  148MOL   C14826902   7.386   5.303   4.968  0.4939 -0.2605 -0.1266
  148MOL   O14926903   7.332   5.381   5.047 -0.2456 -0.3491 -0.1800
  148MOL   O15026904   7.426   5.327   4.846 -0.0850  0.5697  0.2854
  148MOL   H15126905   7.252   5.109   4.869  2.1895 -0.2471 -1.6566
  148MOL   H15226906   7.373   4.990   4.878 -1.7055 -0.5270 -0.0535
  148MOL   H15326907   7.413   5.159   5.115 -1.3553 -0.9051  0.2934
  148MOL   H15426908   7.395   5.407   4.806  0.1559  0.6128  0.1845
  148MOL   C15526909   7.568   5.116   4.961  0.2893  0.4067 -0.2958
  148MOL   C15626910   7.645   5.057   5.079  0.2926  0.5008  0.2991
  148MOL   C15726911   7.608   4.911   5.108  0.1392 -0.3792  0.8106
  148MOL   O15826912   7.555   4.843   5.025 -0.0992 -0.3812  0.0711
  148MOL   O15926913   7.634   4.874   5.236 -0.3862 -0.1458 -0.1275
  148MOL   H16026914   7.625   5.208   4.952 -0.6160  1.1447  1.3272
  148MOL   H16126915   7.568   5.074   4.860  0.8799 -1.5939  0.5244
  148MOL   H16226916   7.746   5.042   5.040 -0.5533 -0.8604 -1.4576
  148MOL   H16326917   7.614   4.785   5.262  1.8425 -1.1125 -1.5556
  148MOL   C16426918   7.665   5.141   5.211 -0.7191 -0.1530 -0.3064
  148MOL   C16526919   7.804   5.128   5.279  0.8466 -0.2044 -0.4179
  148MOL   C16626920   7.789   5.112   5.429  0.3420 -0.5918  0.2688
  148MOL   O16726921   7.754   5.204   5.507 -0.5777  0.4736  1.1288
  148MOL   O16826922   7.815   4.977   5.457  0.4538 -0.4186 -0.0455
  148MOL   H16926923   7.585   5.122   5.283 -0.6812  0.1208 -0.1941
  148MOL   H17026924   7.646   5.246   5.189 -0.4139 -0.2499 -1.0602
  148MOL   H17126925   7.846   5.031   5.252  0.9753  0.0462 -1.1508
  148MOL   H17226926   7.810   4.969   5.551 -2.3357 -0.6404 -0.1816
  148MOL   C17326927   0.041   5.243   5.243  0.4427  0.2349  0.1822
  148MOL   C17426928   0.195   5.235   5.250  0.0994 -0.5773  0.6720
  148MOL   C17526929   0.265   5.378   5.252  0.1692  0.3367  0.3992
  148MOL   O17626930   0.211   5.486   5.218 -0.0248  0.1387 -0.3385
  148MOL   O17726931   0.393   5.369   5.297 -0.4643  0.2842 -0.1148
  148MOL   H17826932   0.008   5.334   5.293  0.0952  0.5656 -0.6390
  148MOL   H17926933   0.024   5.266   5.137  1.1685 -2.2695 -0.5115
  148MOL   H18026934   0.224   5.203   5.350 -1.1060 -1.5224  0.7409
  148MOL   H18126935   0.420   5.457   5.318  3.5494 -0.7267 -0.7366
  148MOL   H18226936   0.227   5.169   5.169  0.3953  0.3159  0.0567
  149MOL     C126937   4.635   1.040   5.260 -0.9741  0.1745  0.3888
  149MOL     C226938   4.600   0.966   5.128  0.2319  0.4897  0.6863
  149MOL     C326939   4.461   0.975   5.078 -0.2130 -0.0815 -0.7393
  149MOL     O426940   4.362   1.016   5.149 -0.1976  0.6266 -0.3283
  149MOL     O526941   4.459   0.929   4.953  0.2310  0.2646  0.1334
  149MOL     H626942   4.641   1.140   5.218  0.4822 -0.2304 -0.4130
  149MOL     H726943   4.561   1.039   5.340  0.1744 -1.3565  1.4774
  149MOL     H826944   4.658   1.014   5.050 -0.1797 -2.0454 -1.2245
  149MOL     H926945   4.368   0.944   4.936  0.3882  0.2981 -0.6668
  149MOL    H1026946   4.733   1.018   5.304 -1.1590  1.8942  1.7068
  149MOL    C1126947   4.637   0.819   5.144  0.0696 -0.4104 -0.1444
  149MOL    C1226948   4.785   0.790   5.164  0.0171 -0.3687  0.5826
  149MOL    C1326949   4.875   0.831   5.047  0.4317 -1.0942 -0.0703
  149MOL    O1426950   4.944   0.939   5.046 -0.3455  0.4059  0.0553
  149MOL    O1526951   4.857   0.737   4.945  0.0282 -0.6322 -0.0223
  149MOL    H1626952   4.605   0.754   5.062 -0.2178 -1.3878  0.7365
  149MOL    H1726953   4.591   0.788   5.237  0.4365 -0.3873  0.0449
  149MOL    H1826954   4.824   0.845   5.250  1.1197 -1.6337  0.9085
  149MOL    H1926955   4.897   0.760   4.863  0.8933  1.2137  0.8890
  149MOL    C2026956   4.804   0.644   5.213 -0.4638 -0.3468  0.1387
  149MOL    C2126957   4.942   0.617   5.281  0.0291 -0.1889  0.4828
  149MOL    C2226958   5.023   0.510   5.201 -0.1976 -0.4997  0.1689
  149MOL    O2326959   4.974   0.430   5.117  0.8275 -0.1020  0.3310
  149MOL    O2426960   5.150   0.524   5.235  0.1477  0.2261 -0.5533
  149MOL    H2526961   4.790   0.578   5.127 -0.4655 -0.6232  0.3488
  149MOL    H2626962   4.726   0.613   5.282 -0.9370 -2.7249 -1.3763
  149MOL    H2726963   5.000   0.710   5.275 -0.5639  0.3990  3.0288
  149MOL    H2826964   5.203   0.466   5.182  0.2906  3.1372 -3.7760
  149MOL    C2926965   4.918   0.585   5.426  0.0567 -0.1955  0.1863
  149MOL    C3026966   5.040   0.569   5.512 -0.6778  0.1377  0.5913
  149MOL    C3126967   4.987   0.521   5.644 -0.5237  0.6829 -0.2952
  149MOL    O3226968   4.965   0.589   5.743  0.3458 -0.0962 -0.0770
  149MOL    O3326969   4.946   0.397   5.638  0.1530  0.4953 -0.6504
  149MOL    H3426970   4.874   0.485   5.424 -1.1293  0.3248 -0.3901
  149MOL    H3526971   4.843   0.651   5.471 -0.6390 -0.8959  0.0568
  149MOL    H3626972   5.104   0.485   5.484  0.9226  0.8697  1.9622
  149MOL    H3726973   4.907   0.373   5.720  0.0356  2.1371 -0.1945
  149MOL    C3826974   5.113   0.709   5.525  0.2278 -0.1107  0.1676
  149MOL    C3926975   5.250   0.694   5.592 -0.4790 -0.2766 -0.1329
  149MOL    C4026976   5.273   0.830   5.667 -0.3535 -0.7182  0.1119
  149MOL    O4126977   5.349   0.923   5.631  0.4308  0.1167 -0.0942
  149MOL    O4226978   5.199   0.839   5.779 -0.7660  0.1939 -0.1756
  149MOL    H4326979   5.052   0.788   5.569  0.1682  1.8195 -3.1916
  149MOL    H4426980   5.136   0.746   5.425 -0.4905 -0.5232 -0.1522
  149MOL    H4526981   5.241   0.623   5.673 -0.3118  0.4199  0.5078
  149MOL    H4626982   5.213   0.925   5.815 -1.9555  0.5236 -0.4614
  149MOL    C4726983   5.367   0.661   5.495  0.7930  0.1964 -0.0613
  149MOL    C4826984   5.502   0.639   5.560  0.0683 -0.4857 -0.0624
  149MOL    C4926985   5.613   0.686   5.469  0.7247  0.1972  0.6551
  149MOL    O5026986   5.650   0.628   5.368  0.0422 -0.3144 -0.1028
  149MOL    O5126987   5.668   0.800   5.509  0.3574  0.0918  0.2221
  149MOL    H5226988   5.381   0.749   5.432  0.6398  0.8626  0.8239
  149MOL    H5326989   5.339   0.580   5.427 -1.3002  1.4188 -0.7133
  149MOL    H5426990   5.519   0.692   5.654 -1.6120 -1.2673  0.6920
  149MOL    H5526991   5.758   0.812   5.484  0.1918  1.5579  0.2854
  149MOL    C5626992   5.517   0.489   5.596 -0.5120 -0.0997 -0.2035
  149MOL    C5726993   5.607   0.457   5.717  0.1045  0.6390  0.1450
  149MOL    C5826994   5.706   0.346   5.678  0.0456 -0.4805  0.2430
  149MOL    O5926995   5.824   0.349   5.700 -0.4098  0.2938  0.3032
  149MOL    O6026996   5.646   0.229   5.642 -0.3838  0.3177 -0.1890
  149MOL    H6126997   5.554   0.440   5.506 -3.0286  0.0788 -1.3828
  149MOL    H6226998   5.416   0.449   5.604 -0.1837 -0.6144  1.4642
  149MOL    H6326999   5.663   0.545   5.750  1.7924  0.2917 -1.6907
  149MOL    H6427000   5.713   0.162   5.637  0.4926  1.1019  0.8876
  149MOL    C6527001   5.532   0.424   5.849  0.8260  0.5064  0.7282
  149MOL    C6627002   5.599   0.349   5.969  1.0538 -0.4686 -1.2482
  149MOL    C6727003   5.704   0.436   6.034 -0.2385 -0.4702 -1.2630
  149MOL    O6827004   5.820   0.446   5.986  0.3702  0.2531  0.1215
  149MOL    O6927005   5.656   0.512   6.139 -0.3581  0.1830 -0.0246
  149MOL    H7027006   5.443   0.367   5.825  1.5984 -0.5316  0.2680
  149MOL    H7127007   5.497   0.518   5.892 -1.8761  0.3577 -1.0257
  149MOL    H7227008   5.518   0.351   6.042  0.6851 -1.6057 -1.6118
  149MOL    H7327009   5.713   0.572   6.185 -0.1500 -0.6364  0.7990
  149MOL    C7427010   5.621   0.200   5.942 -0.2585  0.0368 -0.0442
  149MOL    C7527011   5.601   0.096   6.056 -0.4955  0.4039 -0.2601
  149MOL    C7627012   5.469   0.099   6.142 -0.4367  0.4136 -0.1498
  149MOL    O7727013   5.449   0.157   6.247 -0.4820 -0.4142  0.3086
  149MOL    O7827014   5.378   0.020   6.076  0.3655 -1.0189 -0.2365
  149MOL    H7927015   5.726   0.206   5.914  0.4281  0.4834  2.4589
  149MOL    H8027016   5.568   0.170   5.852  1.1348 -1.0192 -0.5312
  149MOL    H8127017   5.613   0.005   5.997  1.2083 -0.0003  0.6735
  149MOL    H8227018   5.306   0.015   6.138  1.7792  0.2880  1.5589
  149MOL    C8327019   5.722   0.106   6.153  0.4521 -0.0753  0.2158
  149MOL    C8427020   5.832   7.846   6.132 -0.6752 -0.3839  0.1648
  149MOL    C8527021   5.802   7.708   6.191 -0.5164  0.1323  0.8149
  149MOL    O8627022   5.717   7.688   6.275 -0.3078  0.1306  0.1959
  149MOL    O8727023   5.872   7.614   6.124  0.1814  0.2811 -0.8106
  149MOL    H8827024   5.698   0.099   6.259 -0.5757 -1.3020 -0.0854
  149MOL    H8927025   5.760   0.206   6.133 -0.3302  0.4133  1.1304
  149MOL    H9027026   5.839   7.828   6.025 -0.7964  1.7486 -0.2273
  149MOL    H9127027   5.835   7.533   6.156  0.5043  1.0940  1.6845
  149MOL    C9227028   5.973   0.049   6.186  0.4678  0.0330  0.1460
  149MOL    C9327029   6.098   7.825   6.148 -0.4617  0.1950  0.2151
  149MOL    C9427030   6.228   0.012   6.216  0.9437  0.0063  0.2004
  149MOL    O9527031   6.334   0.041   6.168  0.3513 -0.2267  0.7428
  149MOL    O9627032   6.212   7.845   6.353 -0.0739 -0.2566 -0.0696
  149MOL    H9727033   5.969   0.051   6.295 -1.6838 -0.4961  0.1132
  149MOL    H9827034   5.981   0.153   6.155 -1.4726  0.4233  0.8624
  149MOL    H9927035   6.073   7.735   6.204  0.9261 -0.3051  0.0387
  149MOL   H10027036   6.288   0.029   6.396  0.4125 -1.2554 -0.0482
  149MOL   C10127037   6.123   7.792   5.998 -0.2500 -0.3152  0.3099
  149MOL   C10227038   6.154   0.052   5.892  0.0647  0.7637  0.0235
  149MOL   C10327039   6.014   0.120   5.853  0.2565 -0.9276  0.1687
  149MOL   O10427040   5.917   0.062   5.811  0.5284 -0.2785  0.5581
  149MOL   O10527041   6.022   0.257   5.859  0.0179 -0.3115 -0.8651
  149MOL   H10627042   6.036   7.739   5.961  0.8798 -1.9975 -0.0008
  149MOL   H10727043   6.208   7.723   5.992 -0.3374 -0.5234  1.3910
  149MOL   H10827044   6.211   0.126   5.948  0.8986 -0.2480  0.5549
  149MOL   H10927045   5.947   0.307   5.829  1.0517  0.8919 -1.5018
  149MOL   C11027046   6.232   0.006   5.758 -0.2717  0.4300 -0.4265
  149MOL   C11127047   6.388   0.008   5.785 -0.7118  0.1527 -0.1739
  149MOL   C11227048   6.454   0.144   5.819  0.4286  0.3371 -0.2006
  149MOL   O11327049   6.567   0.163   5.862  0.4139  0.6835 -0.7002
  149MOL   O11427050   6.373   0.248   5.786  0.4109 -0.0319  0.3001
  149MOL   H11527051   6.206   0.049   5.662  0.4606 -1.5256 -1.5222
  149MOL   H11627052   6.214   7.753   5.740  1.1678 -0.0411  0.7708
  149MOL   H11727053   6.404   7.797   5.872  1.5608 -0.8243 -1.2483
  149MOL   H11827054   6.413   0.323   5.829  0.9092 -0.0052 -0.2048
  149MOL   C11927055   6.460   7.793   5.668  0.0469  0.1726  0.0388
  149MOL   C12027056   6.596   7.731   5.702  0.3372 -0.1478  1.0361
  149MOL   C12127057   6.689   7.753   5.575 -0.2920 -0.5340 -0.5395
  149MOL   O12227058   6.687   7.683   5.480 -0.2474 -0.2518  0.3945
  149MOL   O12327059   6.750   0.021   5.581 -0.1091 -0.2685  0.1709
  149MOL   H12427060   6.466   0.030   5.606  1.2827  0.7110  0.9177
  149MOL   H12527061   6.398   7.720   5.616 -0.7015  0.0239  1.1186
  149MOL   H12627062   6.651   7.788   5.778 -2.2414  1.4977  1.7517
  149MOL   H12727063   6.785   0.032   5.493 -0.5108  2.7035  0.3396
  149MOL   C12827064   6.586   7.585   5.752 -0.3386 -0.1570 -0.1287
  149MOL   C12927065   6.694   7.499   5.827  0.6373  0.3492 -0.4270
  149MOL   C13027066   6.822   7.472   5.745  0.5179  0.3370 -0.3556
  149MOL   O13127067   6.931   7.530   5.770  0.1827 -0.2215 -0.2681
  149MOL   O13227068   6.793   7.386   5.647 -0.2117  0.1972 -0.2951
  149MOL   H13327069   6.560   7.513   5.674 -0.5466  0.7665 -0.9190
  149MOL   H13427070   6.503   7.586   5.823 -2.3147 -0.8410 -2.3553
  149MOL   H13527071   6.724   7.563   5.910 -0.1922  0.4812 -0.2208
  149MOL   H13627072   6.871   7.347   5.609  0.2553 -0.5636  1.3999
  149MOL   C13727073   6.643   7.366   5.896 -0.4715 -0.4044 -0.4220
  149MOL   C13827074   6.732   7.300   6.015  0.3793 -0.0220 -0.1709
  149MOL   C13927075   6.858   7.215   5.972 -0.3074 -0.3410  0.0461
  149MOL   O14027076   6.869   7.157   5.867 -0.0744 -0.8354 -0.1718
  149MOL   O14127077   6.950   7.203   6.074 -0.1495 -0.5252 -0.1893
  149MOL   H14227078   6.616   7.291   5.822 -0.0393  0.6700 -1.6876
  149MOL   H14327079   6.551   7.403   5.942 -0.3891 -2.4850  1.5393
  149MOL   H14427080   6.769   7.393   6.059  2.2337 -0.3890 -0.9208
  149MOL   H14527081   7.026   7.162   6.036  1.4464  1.6211  0.6035
  149MOL   C14627082   6.651   7.214   6.111  0.3180 -0.9060 -0.2032
  149MOL   C14727083   6.568   7.101   6.054  0.3077 -0.1205 -0.9802
  149MOL   C14827084   6.442   7.138   5.979  1.1737 -0.1519 -0.0659
  149MOL   O14927085   6.370   7.236   5.997 -0.0814  0.2243  0.1847
  149MOL   O15027086   6.418   7.056   5.874 -0.2564 -0.3594 -0.2899
  149MOL   H15127087   6.585   7.283   6.162  1.5655 -0.4648  0.8300
  149MOL   H15227088   6.720   7.174   6.185  0.1859 -0.1241  0.3483
  149MOL   H15327089   6.640   7.051   5.990  2.0131 -0.8566  1.4814
  149MOL   H15427090   6.347   7.096   5.825 -0.5712 -1.4710 -0.7568
  149MOL   C15527091   6.530   7.001   6.161 -0.2539  0.1198  0.0458
  149MOL   C15627092   6.521   6.859   6.097  0.3126 -0.1560 -0.3535
  149MOL   C15727093   6.386   6.793   6.120 -0.3842 -0.4173 -0.7008
  149MOL   O15827094   6.366   6.686   6.176  0.2053  0.2073  0.0597
  149MOL   O15927095   6.296   6.867   6.049 -0.3309  0.2721 -0.2477
  149MOL   H16027096   6.442   7.032   6.218 -0.2570 -0.0990  0.1610
  149MOL   H16127097   6.609   7.005   6.235 -0.8941 -1.7245  0.8668
  149MOL   H16227098   6.523   6.855   5.988 -2.9392  0.0641 -0.4774
  149MOL   H16327099   6.227   6.803   6.035  0.3326 -0.2122 -1.4056
  149MOL   C16427100   6.635   6.770   6.139  0.0545  0.0791  0.1452
  149MOL   C16527101   6.777   6.816   6.088  0.4366 -0.1223 -0.1578
  149MOL   C16627102   6.794   6.770   5.940  0.2255  0.8821 -0.0287
  149MOL   O16727103   6.868   6.674   5.905 -0.1232  0.5728 -0.0732
  149MOL   O16827104   6.723   6.854   5.854  0.0690  0.7403  0.3339
  149MOL   H16927105   6.605   6.668   6.112  1.2786 -0.2734  0.0509
  149MOL   H17027106   6.634   6.773   6.248  1.3504  2.2734  0.1159
  149MOL   H17127107   6.791   6.923   6.096 -0.3579 -0.1659  2.1785
  149MOL   H17227108   6.734   6.819   5.767 -2.7834 -0.4266  0.3765
  149MOL   C17327109   6.885   6.756   6.182  0.5688 -0.0521 -0.1762
  149MOL   C17427110   7.012   6.836   6.208  0.5214 -0.1109  0.5149
  149MOL   C17527111   6.999   6.952   6.305 -0.4281 -0.1647 -0.1474
  149MOL   O17627112   6.892   6.997   6.340 -0.1171 -0.0289 -0.1262
  149MOL   O17727113   7.121   6.994   6.344 -0.1696 -0.0555  0.2636
  149MOL   H17827114   6.911   6.652   6.162  0.6290 -0.1719  0.5050
  149MOL   H17927115   6.835   6.741   6.278  1.4890  0.0163  0.3225
  149MOL   H18027116   7.088   6.776   6.259  1.9351  1.5900  0.4521
  149MOL   H18127117   7.104   7.069   6.400 -1.6911  1.6433 -2.3278
  149MOL   H18227118   7.050   6.854   6.108 -1.5909 -0.7717 -0.4380
  150MOL     C127119   0.538   1.020   6.017  0.4183  0.2255 -0.6628
  150MOL     C227120   0.522   1.161   5.950 -0.1871 -0.2606  0.4677
  150MOL     C327121   0.387   1.170   5.882  0.1301  0.7715  0.9030
  150MOL     O427122   0.380   1.183   5.757 -0.6642 -0.3068  0.3202
  150MOL     O527123   0.277   1.146   5.953 -0.7892 -0.6923 -0.4295
  150MOL     H627124   0.462   1.010   6.095  0.8450 -3.5854 -0.5970
  150MOL     H727125   0.527   0.940   5.944  1.1561 -1.2241  0.7692
  150MOL     H827126   0.531   1.234   6.030  1.1677  0.0555  0.0429
  150MOL     H927127   0.203   1.152   5.895 -1.7463  1.5770  0.9489
  150MOL    H1027128   0.631   1.008   6.074 -0.6010  0.1373  1.0406
  150MOL    C1127129   0.641   1.185   5.857  0.0643  0.4314 -0.1593
  150MOL    C1227130   0.787   1.186   5.924 -1.0931  0.0502 -0.0755
  150MOL    C1327131   0.812   1.288   6.040  0.4935  0.4763 -0.0108
  150MOL    O1427132   0.797   1.407   6.033  0.0372 -0.0842  0.0146
  150MOL    O1527133   0.852   1.229   6.151 -0.2450  0.3368 -0.3547
  150MOL    H1627134   0.632   1.285   5.815  1.4782  0.0575 -1.4117
  150MOL    H1727135   0.632   1.114   5.774 -1.3793  0.8719 -0.3999
  150MOL    H1827136   0.809   1.087   5.965  0.2011  1.1745  1.9783
  150MOL    H1927137   0.842   1.295   6.218 -1.8381  0.0598 -0.3007
  150MOL    C2027138   0.892   1.206   5.815 -0.2604  0.9430 -0.4138
  150MOL    C2127139   1.045   1.184   5.855  0.3445  0.2894 -0.0000
  150MOL    C2227140   1.115   1.314   5.898 -0.9641 -0.0776  0.3522
  150MOL    O2327141   1.166   1.335   6.008  0.1444 -0.7819  0.0330
  150MOL    O2427142   1.115   1.398   5.794 -0.0682  0.3506  0.1718
  150MOL    H2527143   0.879   1.308   5.778  1.7863  0.7532 -1.6978
  150MOL    H2627144   0.857   1.143   5.733 -1.3372 -0.7064  1.2779
  150MOL    H2727145   1.058   1.122   5.944  0.9250 -1.9760 -1.6143
  150MOL    H2827146   1.154   1.474   5.835 -1.1716  0.1593  1.6059
  150MOL    C2927147   1.116   1.109   5.741  0.4349  0.4206 -0.4079
  150MOL    C3027148   1.247   1.036   5.779 -0.6741 -0.3945 -0.5936
  150MOL    C3127149   1.363   1.138   5.797  0.2401  0.3504 -0.3083
  150MOL    O3227150   1.414   1.165   5.905 -0.7322 -0.0579  0.1932
  150MOL    O3327151   1.399   1.190   5.675  0.0724  0.4991 -0.0724
  150MOL    H3427152   1.134   1.172   5.654  1.1708  3.1382  1.6450
  150MOL    H3527153   1.059   1.029   5.693  0.9349 -0.8093  0.9957
  150MOL    H3627154   1.241   0.986   5.876  1.5740  1.1665  0.3871
  150MOL    H3727155   1.465   1.256   5.691  0.6170 -0.2074  0.6576
  150MOL    C3827156   1.285   0.935   5.670 -0.0017  0.1104 -0.2343
  150MOL    C3927157   1.249   0.792   5.703  0.0072  0.0684  0.7668
  150MOL    C4027158   1.340   0.728   5.806 -0.0563  0.0812 -1.3081
  150MOL    O4127159   1.309   0.727   5.924 -0.2343 -0.2040 -1.0214
  150MOL    O4227160   1.446   0.659   5.752 -0.3197  0.4673  0.4319
  150MOL    H4327161   1.394   0.929   5.662 -0.0943 -0.4974 -1.0351
  150MOL    H4427162   1.247   0.969   5.574  0.0951  1.4451  0.1823
  150MOL    H4527163   1.152   0.793   5.752  0.0719 -0.3623  0.9028
  150MOL    H4627164   1.500   0.619   5.819  1.6373  0.2823 -1.2141
  150MOL    C4727165   1.234   0.708   5.572 -0.2871 -0.2095  0.4524
  150MOL    C4827166   1.160   0.570   5.599  0.0318 -0.5065 -0.8037
  150MOL    C4927167   1.177   0.469   5.481 -0.2974  0.2316  0.0733
  150MOL    O5027168   1.260   0.380   5.489 -0.0065  0.0487  0.3706
  150MOL    O5127169   1.109   0.509   5.373 -0.0911 -0.8223 -0.1518
  150MOL    H5227170   1.335   0.689   5.534 -0.2714 -1.6602  1.1855
  150MOL    H5327171   1.179   0.762   5.495 -1.4794 -2.4017 -0.2562
  150MOL    H5427172   1.205   0.528   5.689  1.3701 -0.9297 -1.6645
  150MOL    H5527173   1.102   0.457   5.295 -0.8250  0.7186 -1.1389
  150MOL    C5627174   1.006   0.595   5.634  1.0056  0.3836  0.8678
  150MOL    C5727175   0.954   0.531   5.762  0.5660  0.7128  0.2829
  150MOL    C5827176   0.987   0.376   5.779  0.1089  1.0825  0.6134
  150MOL    O5927177   1.004   0.295   5.685 -0.3510 -0.7015 -0.2362
  150MOL    O6027178   1.004   0.342   5.908  0.3871 -0.3201 -0.0281
  150MOL    H6127179   0.942   0.574   5.548  2.8080 -2.2003  0.1250
  150MOL    H6227180   0.994   0.703   5.631 -0.8487  0.1621 -0.5247
  150MOL    H6327181   1.001   0.576   5.849 -0.0523  2.0537 -0.0764
  150MOL    H6427182   1.017   0.250   5.924  1.7722 -0.5028 -2.0289
  150MOL    C6527183   0.804   0.539   5.771 -0.6101  0.3080 -0.4746
  150MOL    C6627184   0.741   0.674   5.733  0.4022 -0.4388  0.1875
  150MOL    C6727185   0.779   0.792   5.820 -0.2311  0.1849  0.0168
  150MOL    O6827186   0.848   0.886   5.769  0.0587  0.1472 -0.3314
  150MOL    O6927187   0.737   0.784   5.949 -0.1879  0.4629  0.0372
  150MOL    H7027188   0.778   0.523   5.876 -3.4125 -0.0241 -1.1869
  150MOL    H7127189   0.764   0.458   5.710 -0.1899 -1.8329  2.0273
  150MOL    H7227190   0.775   0.700   5.633  0.4050  0.8117  0.5025
  150MOL    H7327191   0.785   0.851   5.996  0.8069 -0.4062  0.2756
  150MOL    C7427192   0.589   0.674   5.718  0.4147  0.1860 -0.5201
  150MOL    C7527193   0.512   0.564   5.641 -0.2797  0.0618 -0.3452
  150MOL    C7627194   0.588   0.496   5.520  0.3919  0.3880  0.2629
  150MOL    O7727195   0.615   0.377   5.520  0.7576  0.1209 -0.0388
  150MOL    O7827196   0.613   0.584   5.422  0.7174  0.4259 -0.3026
  150MOL    H7927197   0.572   0.772   5.674  0.8864  0.1035 -0.8986
  150MOL    H8027198   0.549   0.683   5.819 -0.5664  3.4506 -1.1395
  150MOL    H8127199   0.517   0.486   5.717 -2.1022  1.9020  1.7055
  150MOL    H8227200   0.664   0.553   5.349  0.5491  0.0155 -0.2491
  150MOL    C8327201   0.365   0.595   5.612  0.2007  0.2765 -0.6563
  150MOL    C8427202   0.326   0.715   5.529  0.1550 -0.1813  0.0404
  150MOL    C8527203   0.282   0.835   5.616  0.2789  0.3542  0.0620
  150MOL    O8627204   0.179   0.831   5.675  0.4157  0.4864 -0.1073
  150MOL    O8727205   0.359   0.945   5.610 -0.7709 -0.2719  0.5123
  150MOL    H8827206   0.304   0.583   5.701  2.8649 -0.7205  1.0937
  150MOL    H8927207   0.338   0.506   5.556 -0.6815  0.7028 -0.9269
  150MOL    H9027208   0.417   0.743   5.477  0.1769  0.1388  0.2478
  150MOL    H9127209   0.324   1.005   5.674 -0.3947  0.1247  0.3504
  150MOL    C9227210   0.219   0.680   5.424 -0.6380 -0.5127  0.1516
  150MOL    C9327211   0.163   0.797   5.359 -0.3818 -0.5303  0.0868
  150MOL    C9427212   0.026   0.759   5.286  0.6978 -0.1801  0.5724
  150MOL    O9527213   7.778   0.799   5.337 -0.5740  0.0812  0.1609
  150MOL    O9627214   0.039   0.683   5.180 -0.0730  0.9285 -0.2908
  150MOL    H9727215   0.142   0.614   5.466  2.3084 -2.6976  2.3064
  150MOL    H9827216   0.270   0.629   5.342  1.5015  1.0346  0.4828
  150MOL    H9927217   0.122   0.866   5.433  1.2370  1.6708 -0.9976
  150MOL   H10027218   7.803   0.673   5.148  0.2414 -2.8081 -0.2463
  150MOL   C10127219   0.254   0.880   5.265 -1.0701  0.0509 -0.2121
  150MOL   C10227220   0.208   1.029   5.247  0.2991  0.0003  0.4178
  150MOL   C10327221   0.253   1.100   5.111  0.1090  0.0980 -0.2543
  150MOL   O10427222   0.169   1.140   5.032 -0.2388 -0.0359 -0.5400
  150MOL   O10527223   0.383   1.118   5.107 -0.5496  0.2020 -0.6886
  150MOL   H10627224   0.268   0.830   5.170  2.6335  1.3972 -0.4713
  150MOL   H10727225   0.355   0.880   5.307 -0.8178 -0.9927 -0.8056
  150MOL   H10827226   0.099   1.030   5.242  0.3221 -0.3957 -0.1075
  150MOL   H10927227   0.393   1.170   5.028 -1.3454 -0.3311 -1.1445
  150MOL   C11027228   0.245   1.121   5.364  0.2619  0.5049 -0.5462
  150MOL   C11127229   0.185   1.268   5.353 -0.4707  0.6041  0.0788
  150MOL   C11227230   0.288   1.375   5.360  0.0566  0.7662 -0.3770
  150MOL   O11327231   0.325   1.430   5.462  0.4565  0.2717  0.5098
  150MOL   O11427232   0.344   1.389   5.238 -0.0759 -0.2341  0.1508
  150MOL   H11527233   0.352   1.126   5.384  0.0466 -0.8827  1.1183
  150MOL   H11627234   0.200   1.070   5.450 -0.1062  0.6085 -0.6754
  150MOL   H11727235   0.153   1.268   5.249  1.3542 -2.3340 -0.5574
  150MOL   H11827236   0.409   1.456   5.225 -1.1337  0.7658 -0.1037
  150MOL   C11927237   0.061   1.292   5.440 -0.0059 -0.5759  0.7718
  150MOL   C12027238   0.061   1.307   5.598 -0.0699  0.2474  0.1977
  150MOL   C12127239   0.055   1.168   5.666  0.6699 -0.6005 -0.2525
  150MOL   O12227240   0.086   1.152   5.781 -0.0075  0.1500  0.1999
  150MOL   O12327241   7.833   1.076   5.599 -0.1514  0.4493  0.7743
  150MOL   H12427242   7.824   1.243   5.402 -0.0585 -0.7071  1.0691
  150MOL   H12527243   0.035   1.395   5.415  1.7504 -0.0207  1.1453
  150MOL   H12627244   0.153   1.354   5.631 -0.1971  1.7156 -1.4243
  150MOL   H12727245   7.809   0.993   5.636  1.5877 -0.9348 -1.0836
  150MOL   C12827246   7.805   1.397   5.654  1.0943  0.2631  0.0354
  150MOL   C12927247   7.840   1.494   5.773  0.1623 -0.1900  0.3373
  150MOL   C13027248   0.024   1.418   5.904  0.3764  0.0163  0.1518
  150MOL   O13127249   0.133   1.419   5.964  0.0837 -0.3946  0.1031
  150MOL   O13227250   7.768   1.347   5.947 -0.1579 -0.1842 -0.3815
  150MOL   H13327251   7.720   1.333   5.678  0.3920  0.4141 -1.8930
  150MOL   H13427252   7.763   1.461   5.576 -1.4851  0.0026  1.1618
  150MOL   H13527253   0.077   1.540   5.734 -0.2473  0.9476  0.7087
  150MOL   H13627254   7.807   1.318   6.029 -1.1118 -0.5537 -0.0526
  150MOL   C13727255   7.731   1.595   5.794 -0.4110 -0.0256  0.0660
  150MOL   C13827256   7.752   1.698   5.899 -0.4583 -0.5035  0.5195
  150MOL   C13927257   7.627   1.790   5.900 -0.4413 -0.2822  0.3378
  150MOL   O14027258   7.526   1.768   5.974 -0.5371 -0.1751 -0.1952
  150MOL   O14127259   7.643   1.900   5.825 -0.4674  0.4748 -0.5454
  150MOL   H14227260   7.634   1.551   5.814 -0.8532  1.2714  0.8703
  150MOL   H14327261   7.723   1.644   5.697  0.4123  0.9748  0.4861
  150MOL   H14427262   7.753   1.652   5.998  1.6133 -0.8815  0.3561
  150MOL   H14527263   7.567   1.956   5.833 -2.2852 -1.8735 -0.5719
  150MOL   C14627264   0.037   1.771   5.885 -0.7602 -0.0290 -0.3312
  150MOL   C14727265   0.080   1.868   6.003  0.3905  0.3698  0.1239
  150MOL   C14827266   0.075   1.816   6.150  1.2172  0.3852 -0.0922
  150MOL   O14927267   0.176   1.764   6.206 -0.3543 -0.3549 -0.1083
  150MOL   O15027268   7.809   1.839   6.215  0.3948  0.1023  0.2643
  150MOL   H15127269   0.066   1.824   5.795 -0.1653 -1.3232 -0.9168
  150MOL   H15227270   0.117   1.697   5.892  0.2620  1.1610  0.8365
  150MOL   H15327271   0.184   1.880   5.972 -0.1084  2.2795 -0.8747
  150MOL   H15427272   7.816   1.809   6.304 -1.9828  0.4462  0.5996
  150MOL   C15527273   0.036   2.020   5.978  0.1123 -0.5052  0.4574
  150MOL   C15627274   0.122   2.139   6.037  0.4526  0.1030  0.2815
  150MOL   C15727275   0.061   2.269   6.005  0.3213 -0.0798 -0.3036
  150MOL   O15827276   7.847   2.322   6.089  0.4111 -0.0902 -0.1139
  150MOL   O15927277   0.068   2.309   5.877  0.3887  0.0615  0.2187
  150MOL   H16027278   7.790   2.034   6.022  0.3077 -1.2396  1.1586
  150MOL   H16127279   0.026   2.027   5.870 -0.7293 -1.7176  0.4482
  150MOL   H16227280   0.110   2.131   6.145  0.7110  1.0432  0.3788
  150MOL   H16327281   0.018   2.385   5.854  0.1740  0.2403  1.2555
  150MOL   C16427282   0.272   2.123   6.010  0.2356 -0.0323 -0.2430
  150MOL   C16527283   0.345   2.160   5.876 -0.7847  1.3304  0.3940
  150MOL   C16627284   0.294   2.071   5.754 -0.5705 -0.2228 -0.5925
  150MOL   O16727285   0.306   1.951   5.737  0.0887 -0.2176  0.3810
  150MOL   O16827286   0.234   2.150   5.662 -0.2759 -0.4340  0.4959
  150MOL   H16927287   0.308   2.027   6.047 -2.7548 -0.7460  1.0059
  150MOL   H17027288   0.310   2.185   6.091 -0.4650 -0.2641  0.2768
  150MOL   H17127289   0.323   2.264   5.852  1.4362  1.0789 -3.0208
  150MOL   H17227290   0.222   2.086   5.593  0.3990  0.9001 -0.8978
  150MOL   C17327291   0.505   2.151   5.903  0.6224 -0.5532  0.1002
  150MOL   C17427292   0.562   2.064   6.024 -0.2428 -0.1631 -0.3196
  150MOL   C17527293   0.712   2.092   6.050 -0.0797 -0.2310 -0.7050
  150MOL   O17627294   0.757   2.185   6.124  0.2805 -0.0566 -0.2345
  150MOL   O17727295   0.793   2.002   5.983 -0.1312  0.5892 -0.5272
  150MOL   H17827296   0.521   2.258   5.915 -0.1484 -0.4680  0.3861
  150MOL   H17927297   0.559   2.115   5.815 -1.0771 -1.0538 -0.7563
  150MOL   H18027298   0.503   2.095   6.111 -0.1852 -0.4246 -0.1900
  150MOL   H18127299   0.883   2.016   6.006 -0.2122  2.0811 -1.0876
  150MOL   H18227300   0.555   1.961   5.991  1.9070 -0.5238  0.2749
  151MOL     C127301   6.555   0.950   6.808  0.0666  0.6468  0.1942
  151MOL     C227302   6.443   0.883   6.878  0.7778 -0.1546 -0.2044
  151MOL     C327303   6.343   0.822   6.777 -0.3280  0.1620 -0.0558
  151MOL     O427304   6.346   0.839   6.654  0.2041 -0.6323 -0.0955
  151MOL     O527305   6.264   0.729   6.836 -0.7170  0.2944 -0.3701
  151MOL     H627306   6.604   0.879   6.742  0.2750  0.7547  0.2327
  151MOL     H727307   6.528   1.039   6.751 -4.6589 -0.4483  0.4845
  151MOL     H827308   6.486   0.799   6.933  0.0956  1.7652  3.4392
  151MOL     H927309   6.202   0.688   6.778  0.3786 -0.5799 -0.9321
  151MOL    H1027310   6.631   0.968   6.885  1.3146 -3.6690  0.0856
  151MOL    C1127311   6.381   0.966   6.994 -0.6026 -0.1785 -0.0318
  151MOL    C1227312   6.303   1.095   6.966 -0.6508 -0.4545 -0.3133
  151MOL    C1327313   6.308   1.183   7.091 -0.1198  0.2467  0.0149
  151MOL    O1427314   6.286   1.137   7.202 -0.0201 -0.3845  0.1285
  151MOL    O1527315   6.318   1.317   7.071 -0.0128 -0.7267 -0.1380
  151MOL    H1627316   6.446   0.966   7.082 -0.6120 -3.8571  0.0259
  151MOL    H1727317   6.300   0.905   7.035 -1.3461  1.0830  0.4133
  151MOL    H1827318   6.364   1.146   6.891  2.2526 -1.7993  1.0588
  151MOL    H1927319   6.313   1.360   7.156 -0.2567  1.1088 -1.0452
  151MOL    C2027320   6.152   1.081   6.925 -0.4170 -0.2038 -0.6388
  151MOL    C2127321   6.101   1.163   6.808 -0.0920  0.6988  0.3129
  151MOL    C2227322   6.107   1.316   6.822  0.4571  0.2221 -0.3627
  151MOL    O2327323   6.168   1.389   6.745 -0.1730 -1.3338 -0.7857
  151MOL    O2427324   6.026   1.365   6.920  0.7140 -0.0591  0.4866
  151MOL    H2527325   6.082   1.075   7.009  0.4971 -0.9050  0.0922
  151MOL    H2627326   6.157   0.985   6.875 -0.3120 -1.3397  1.4830
  151MOL    H2727327   6.174   1.135   6.733  0.1827  0.3216  0.7231
  151MOL    H2827328   6.039   1.458   6.912 -2.6988  0.4582  0.1122
  151MOL    C2927329   5.959   1.108   6.757 -0.2459 -0.2248  0.0249
  151MOL    C3027330   5.951   1.055   6.615 -0.3228  0.0023  0.6705
  151MOL    C3127331   5.957   1.167   6.514 -0.3548 -0.3151  0.2210
  151MOL    O3227332   6.060   1.198   6.454 -0.0067 -0.3622  0.3969
  151MOL    O3327333   5.840   1.227   6.490 -0.1406  0.1298 -0.6691
  151MOL    H3427334   5.872   1.174   6.770 -1.3980 -1.3669 -1.6196
  151MOL    H3527335   5.929   1.032   6.829  1.2064 -0.2480  0.6059
  151MOL    H3627336   6.042   0.996   6.604  1.3681  2.6449 -0.1704
  151MOL    H3727337   5.843   1.275   6.409 -1.6601  2.3869  0.5400
  151MOL    C3827338   5.828   0.971   6.594 -0.2728  0.1284  0.3118
  151MOL    C3927339   5.793   0.911   6.456 -0.3450 -0.4201  1.2003
  151MOL    C4027340   5.675   0.817   6.454 -0.0745  0.4720  0.2878
  151MOL    O4127341   5.680   0.708   6.401  0.4925  1.0041 -0.6732
  151MOL    O4227342   5.565   0.854   6.531  0.3189 -0.2825  0.3062
  151MOL    H4327343   5.741   1.029   6.622 -1.2960 -0.8472 -0.7904
  151MOL    H4427344   5.828   0.882   6.658  1.6635 -0.7688 -0.8957
  151MOL    H4527345   5.762   0.999   6.400  0.8718  0.2823  1.5983
  151MOL    H4627346   5.495   0.791   6.539  0.3949 -0.5570 -1.0231
  151MOL    C4727347   5.912   0.846   6.380  0.5754  0.1697 -0.7420
  151MOL    C4827348   5.969   0.718   6.440 -0.3506  0.1211  0.0249
  151MOL    C4927349   6.084   0.744   6.532  0.8708  0.1666 -0.4721
  151MOL    O5027350   6.085   0.711   6.647  0.0984 -0.0037  0.2171
  151MOL    O5127351   6.190   0.797   6.466  0.2027  0.7401 -0.6135
  151MOL    H5227352   5.984   0.924   6.355 -1.3588  1.7031 -1.6751
  151MOL    H5327353   5.878   0.827   6.278 -0.2650 -1.5864 -0.1548
  151MOL    H5427354   5.893   0.681   6.509  1.1455 -1.5823  0.8038
  151MOL    H5527355   6.264   0.816   6.522  0.3266  1.5036 -1.0268
  151MOL    C5627356   5.989   0.609   6.329  0.2732  0.3557  0.1492
  151MOL    C5727357   5.987   0.463   6.367 -0.0830 -0.4217  0.3740
  151MOL    C5827358   6.086   0.378   6.282 -0.3626  0.4234 -0.0312
  151MOL    O5927359   6.154   0.296   6.338 -0.1137 -0.2102 -0.3578
  151MOL    O6027360   6.103   0.424   6.157 -0.0301 -0.1349  0.2221
  151MOL    H6127361   6.081   0.641   6.280  2.0591 -0.6242  2.7514
  151MOL    H6227362   5.917   0.614   6.248  0.2138 -1.8539  0.0403
  151MOL    H6327363   6.044   0.456   6.459  0.4599 -0.3381  0.0497
  151MOL    H6427364   6.179   0.387   6.115 -1.7634 -0.9803 -2.3303
  151MOL    C6527365   5.847   0.403   6.378 -0.0571 -0.4100 -0.6107
  151MOL    C6627366   5.807   0.379   6.527 -0.4208  0.5214 -0.2973
  151MOL    C6727367   5.890   0.270   6.597  0.1627  0.2123 -0.0407
  151MOL    O6827368   5.989   0.299   6.664  0.1746 -0.3641  0.6709
  151MOL    O6927369   5.853   0.147   6.567 -0.0388  0.2170  0.4469
  151MOL    H7027370   5.835   0.310   6.323 -0.8008  0.5204 -2.0555
  151MOL    H7127371   5.765   0.461   6.336 -0.9325 -0.6365  0.7677
  151MOL    H7227372   5.832   0.464   6.590 -1.4697 -0.1326  1.0524
  151MOL    H7327373   5.911   0.089   6.613 -0.0371 -0.0659  0.0823
  151MOL    C7427374   5.652   0.365   6.542 -0.1037  0.2837 -0.0312
  151MOL    C7527375   5.601   0.388   6.681 -0.4194 -0.3160 -0.3592
  151MOL    C7627376   5.491   0.283   6.724  0.0019 -0.6549 -0.0351
  151MOL    O7727377   5.455   0.184   6.665 -0.2253 -0.2572  0.4074
  151MOL    O7827378   5.432   0.318   6.841  0.1805  0.0261 -0.3394
  151MOL    H7927379   5.622   0.266   6.507  0.4395 -0.8054  2.5193
  151MOL    H8027380   5.607   0.432   6.469  2.3471  1.5268 -0.4637
  151MOL    H8127381   5.682   0.372   6.752 -0.4745 -0.1595 -0.2610
  151MOL    H8227382   5.361   0.262   6.867 -1.1488  1.7816 -0.0550
  151MOL    C8327383   5.545   0.523   6.711  0.4752  0.4059  0.2543
  151MOL    C8427384   5.579   0.585   6.844 -0.5964 -0.0860 -0.0023
  151MOL    C8527385   5.450   0.640   6.902 -0.7267  0.3652  0.4651
  151MOL    O8627386   5.410   0.755   6.875 -0.4456  0.3284  0.2276
  151MOL    O8727387   5.380   0.550   6.969 -0.4561  0.0424  0.1846
  151MOL    H8827388   5.442   0.522   6.676  1.3374  0.3003 -2.3861
  151MOL    H8927389   5.593   0.592   6.640  0.5333  0.2139  0.1078
  151MOL    H9027390   5.604   0.502   6.909  1.6438  1.2324  0.8530
  151MOL    H9127391   5.420   0.467   6.951  0.3685  0.4956 -0.0765
  151MOL    C9227392   5.693   0.690   6.830 -0.4331  0.5623  0.2369
  151MOL    C9327393   5.755   0.748   6.955 -0.4269  0.0847  0.3697
  151MOL    C9427394   5.721   0.895   6.992 -0.5235  0.4940 -0.1006
  151MOL    O9527395   5.739   0.942   7.100  0.3872  0.0549 -0.0982
  151MOL    O9627396   5.665   0.953   6.885  0.0334 -0.5946 -0.0280
  151MOL    H9727397   5.675   0.767   6.754  1.6196 -0.7552 -1.6702
  151MOL    H9827398   5.757   0.621   6.774 -0.4323  1.7519 -1.2656
  151MOL    H9927399   5.720   0.689   7.040 -1.4401  1.1504  0.7160
  151MOL   H10027400   5.637   1.041   6.905  2.2470  0.2319 -0.4101
  151MOL   C10127401   5.912   0.736   6.952  0.9073 -0.3912 -0.3299
  151MOL   C10227402   5.980   0.625   7.034 -0.3185  0.4749  0.1228
  151MOL   C10327403   5.971   0.493   6.945 -0.5445 -0.0392  0.0538
  151MOL   O10427404   5.911   0.391   6.981  0.1826 -0.2661 -0.8439
  151MOL   O10527405   6.039   0.499   6.831 -0.2622  0.6634 -0.0362
  151MOL   H10627406   5.952   0.826   6.998  1.7026 -1.3331  0.8604
  151MOL   H10727407   5.958   0.748   6.854 -0.3758  2.4498 -0.6232
  151MOL   H10827408   6.080   0.669   7.037 -0.5539  0.9350  1.9977
  151MOL   H10927409   6.037   0.421   6.777  3.3792 -1.8750  3.2942
  151MOL   C11027410   5.937   0.604   7.182  0.0290 -0.4765 -0.1134
  151MOL   C11127411   6.032   0.509   7.261 -0.0689 -0.7598  0.3316
  151MOL   C11227412   5.962   0.461   7.390 -0.3896 -0.0019 -0.2142
  151MOL   O11327413   5.851   0.501   7.426  0.1392 -0.6314 -0.2942
  151MOL   O11427414   6.049   0.394   7.463  0.0409 -0.1551  0.0990
  151MOL   H11527415   5.839   0.557   7.181  0.1488 -0.7714  1.7589
  151MOL   H11627416   5.917   0.704   7.221 -0.8934 -0.1946 -1.2789
  151MOL   H11727417   6.055   0.422   7.199  0.6537 -2.3340  2.7294
  151MOL   H11827418   6.015   0.384   7.550  0.9829 -1.7785  0.3123
  151MOL   C11927419   6.169   0.583   7.296  0.1299 -0.4298  0.0317
  151MOL   C12027420   6.161   0.706   7.383 -0.5785  0.4388  1.0947
  151MOL   C12127421   6.228   0.822   7.311  0.8520  0.1485  0.4831
  151MOL   O12227422   6.335   0.807   7.247  0.0793  0.0803 -0.0497
  151MOL   O12327423   6.168   0.945   7.335  0.1909  0.0073  0.3699
  151MOL   H12427424   6.222   0.602   7.203  2.5527 -2.6363  0.9313
  151MOL   H12527425   6.229   0.501   7.335 -1.3753 -1.0970  0.9830
  151MOL   H12627426   6.057   0.737   7.390 -1.3102 -1.5421 -0.4186
  151MOL   H12727427   6.210   1.024   7.304  0.3804 -0.4222 -0.4788
  151MOL   C12827428   6.223   0.682   7.526  0.0952  0.5642 -0.1345
  151MOL   C12927429   6.155   0.769   7.638  0.2689 -0.4742 -0.5875
  151MOL   C13027430   6.244   0.770   7.764 -0.2400 -0.1686 -0.4862
  151MOL   O13127431   6.295   0.874   7.809  0.0069  0.4587  0.0236
  151MOL   O13227432   6.255   0.647   7.825 -0.2508 -0.8101  0.3744
  151MOL   H13327433   6.330   0.702   7.524  0.5784 -1.3670  2.9025
  151MOL   H13427434   6.237   0.576   7.548  1.2805  0.7960  0.2605
  151MOL   H13527435   6.159   0.872   7.601  0.2994 -0.5244 -0.7258
  151MOL   H13627436   6.311   0.637   0.047  0.9011 -0.2062 -0.3921
  151MOL   C13727437   6.015   0.732   7.683 -0.2936 -0.1099  0.5906
  151MOL   C13827438   5.909   0.828   7.630 -0.6834 -0.3693 -0.0269
  151MOL   C13927439   5.914   0.960   7.712  0.3157 -0.2436 -0.1946
  151MOL   O14027440   5.957   0.981   7.825  0.3344  0.4761 -0.1182
  151MOL   O14127441   5.852   1.061   7.639  0.4280 -0.3693  0.0663
  151MOL   H14227442   6.009   0.734   7.792  1.8633  0.7682  0.7221
  151MOL   H14327443   5.974   0.636   7.652  1.6562 -0.8050  0.0901
  151MOL   H14427444   5.928   0.849   7.525 -2.0024 -2.3348 -0.7031
  151MOL   H14527445   5.863   1.145   7.681  0.6908  0.3077 -1.3312
  151MOL   C14627446   5.773   0.762   7.642  0.3174  0.0384 -0.1794
  151MOL   C14727447   5.644   0.827   7.581  0.3196 -0.2055 -0.2933
  151MOL   C14827448   5.634   0.833   7.431  0.1085  0.0138 -0.1526
  151MOL   O14927449   5.518   0.832   7.372 -0.1424  0.8505 -0.3485
  151MOL   O15027450   5.757   0.850   7.370  0.3949 -0.3530 -0.1747
  151MOL   H15127451   5.756   0.740   7.747 -2.0661  0.9260 -0.3478
  151MOL   H15227452   5.789   0.661   7.603 -1.3796 -0.6335  0.8278
  151MOL   H15327453   5.575   0.746   7.603  1.9475 -0.5848  3.9779
  151MOL   H15427454   5.740   0.873   7.280  0.6768 -0.9579 -0.3814
  151MOL   C15527455   5.587   0.951   7.646 -0.5554  0.1395  0.1249
  151MOL   C15627456   5.440   0.948   7.680  0.4635  0.4556 -0.1994
  151MOL   C15727457   5.395   1.090   7.700  0.2647 -0.0854  0.3483
  151MOL   O15827458   5.391   1.137   7.815 -0.5214  0.2466  0.0863
  151MOL   O15927459   5.358   1.159   7.588  0.8665  0.4925  0.2294
  151MOL   H16027460   5.599   1.031   7.572  1.0389  0.0067  0.2276
  151MOL   H16127461   5.643   0.987   7.732 -1.9737  2.3853  0.1640
  151MOL   H16227462   5.389   0.909   7.592  0.6909 -0.0639 -0.1042
  151MOL   H16327463   5.310   1.238   7.606  0.5922  0.2227  0.7036
  151MOL   C16427464   5.399   0.858   7.798 -0.2070  0.0661  0.2290
  151MOL   C16527465   5.251   0.818   7.821 -0.1850  0.6611  0.0665
  151MOL   C16627466   5.226   0.729   0.092 -0.8477 -0.0727  0.0174
  151MOL   O16727467   5.148   0.637   0.097  0.1506  0.9361  0.1717
  151MOL   O16827468   5.297   0.773   0.199  0.2994 -0.3711 -0.4085
  151MOL   H16927469   5.444   0.905   0.032  0.4349 -0.1701  0.0312
  151MOL   H17027470   5.448   0.762   7.782  0.3712  0.1585  1.4212
  151MOL   H17127471   5.197   0.911   7.838 -2.0293 -0.5777  1.1158
  151MOL   H17227472   5.271   0.719   0.272 -1.6056  0.8097 -0.1618
  151MOL   C17327473   5.178   0.757   7.699 -0.4030  0.7581  0.1300
  151MOL   C17427474   5.227   0.619   7.642  0.2580 -0.3372  0.2588
  151MOL   C17527475   5.118   0.543   7.567 -0.0384 -0.0446 -0.1391
  151MOL   O17627476   5.000   0.578   7.549 -0.1514  0.2311 -0.2148
  151MOL   O17727477   5.172   0.432   7.510 -0.5380 -0.1598 -0.6399
  151MOL   H17827478   5.175   0.825   7.614  0.2474  1.9334  1.0264
  151MOL   H17927479   5.074   0.750   7.731 -0.7900  0.3376 -1.1990
  151MOL   H18027480   5.316   0.627   7.580  0.2173 -1.5120  0.0438
  151MOL   H18127481   5.116   0.373   7.463  0.1456 -0.7194 -0.7678
  151MOL   H18227482   5.268   0.554   7.719  1.0472  2.0174  1.9132
  152MOL     C127483   5.508   5.691   2.941 -0.1324 -0.0324  0.4706
  152MOL     C227484   5.534   5.694   2.782  0.5985  0.1586 -0.4771
  152MOL     C327485   5.682   5.709   2.754 -0.7987 -0.3311  0.9084
  152MOL     O427486   5.769   5.717   2.842  0.1473  0.0442  1.1134
  152MOL     O527487   5.704   5.718   2.620 -0.3216 -0.5152 -0.5841
  152MOL     H627488   5.574   5.755   3.000  1.9803 -1.3852 -0.3359
  152MOL     H727489   5.400   5.694   2.954 -0.3023  2.7269 -1.2304
  152MOL     H827490   5.509   5.598   2.738 -1.2553 -0.4501  1.7885
  152MOL     H927491   5.793   5.737   2.596 -0.4942  0.4318 -0.4850
  152MOL    H1027492   5.544   5.589   2.953 -1.9913 -0.7325  0.1805
  152MOL    C1127493   5.446   5.805   2.713 -0.9779 -0.2665  0.0168
  152MOL    C1227494   5.487   5.949   2.743 -0.0053 -0.3739 -0.1528
  152MOL    C1327495   5.477   5.989   2.894 -0.1708 -0.0840 -0.3679
  152MOL    O1427496   5.580   6.005   2.964  0.1163 -0.6562  0.2512
  152MOL    O1527497   5.347   5.998   2.933 -0.7881  0.3507 -0.0951
  152MOL    H1627498   5.348   5.794   2.758 -0.7455  0.1475  0.6178
  152MOL    H1727499   5.433   5.785   2.606 -1.2364  0.9377 -0.1766
  152MOL    H1827500   5.592   5.967   2.720 -0.0660  0.4505  0.2172
  152MOL    H1927501   5.342   6.021   3.024 -0.8807  1.5986 -0.3996
  152MOL    C2027502   5.398   6.047   2.654  0.2382  0.1851  0.5429
  152MOL    C2127503   5.461   6.185   2.632  0.2350  0.0225 -0.0447
  152MOL    C2227504   5.363   6.294   2.571 -0.0112 -0.3933 -0.4506
  152MOL    O2327505   5.397   6.380   2.484 -0.4944  0.5956  0.0668
  152MOL    O2427506   5.249   6.295   2.642  0.0768  0.1384 -0.0481
  152MOL    H2527507   5.302   6.065   2.703  0.0416 -0.2228  0.3018
  152MOL    H2627508   5.383   5.996   2.559  1.4926 -0.1881  0.5304
  152MOL    H2727509   5.477   6.224   2.732  2.0166  0.8786 -0.6394
  152MOL    H2827510   5.189   6.357   2.604 -0.3928 -0.4334 -0.2478
  152MOL    C2927511   5.596   6.180   2.566 -0.3147 -0.2021  0.5920
  152MOL    C3027512   5.593   6.132   2.418  0.0418 -0.1075  0.3420
  152MOL    C3127513   5.668   5.996   2.412 -0.1244  0.1046  0.1673
  152MOL    O3227514   5.786   5.985   2.448  0.5374 -0.0452  0.2079
  152MOL    O3327515   5.600   5.894   2.354  0.0841 -0.5466 -0.3384
  152MOL    H3427516   5.675   6.134   2.624  0.1019  0.3095  0.4343
  152MOL    H3527517   5.631   6.283   2.563 -0.2185 -0.2355  0.5742
  152MOL    H3627518   5.492   6.113   2.382  0.6292 -1.5875 -0.6206
  152MOL    H3727519   5.643   5.812   2.373  1.3719 -0.0443 -1.0208
  152MOL    C3827520   5.672   6.234   2.331  0.7269  0.6970  0.6097
  152MOL    C3927521   5.669   6.224   2.182  0.1303  0.0756 -0.5807
  152MOL    C4027522   5.536   6.193   2.117 -0.3324 -0.3605  0.2808
  152MOL    O4127523   5.503   6.081   2.083  0.4509 -0.3333  0.2311
  152MOL    O4227524   5.450   6.298   2.115  0.1044 -0.5986  0.2931
  152MOL    H4327525   5.776   6.245   2.361  1.0926 -0.6047 -0.1479
  152MOL    H4427526   5.629   6.330   2.358 -0.3875 -0.1252  1.8557
  152MOL    H4527527   5.687   6.327   2.150 -1.6207  0.4389 -0.4547
  152MOL    H4627528   5.487   6.379   2.148 -0.3943 -1.0818  2.0569
  152MOL    C4727529   5.776   6.131   2.126  0.0002  0.1087 -0.1457
  152MOL    C4827530   5.917   6.200   2.134  0.0846  0.3364  0.0628
  152MOL    C4927531   5.936   6.307   2.030  0.0822  0.5208 -0.4050
  152MOL    O5027532   5.869   6.322   1.929 -0.0879 -0.5219  0.0802
  152MOL    O5127533   6.027   6.396   2.073  0.2998 -0.3461 -0.2775
  152MOL    H5227534   5.747   6.095   2.027 -2.7349  0.6106  0.4386
  152MOL    H5327535   5.783   6.041   2.187  2.1860  0.0687 -0.4076
  152MOL    H5427536   5.930   6.257   2.226  0.5639  0.1461  0.1141
  152MOL    H5527537   6.020   6.470   2.015 -3.1485 -0.9890 -0.8499
  152MOL    C5627538   6.048   6.115   2.138 -0.8431 -0.1287  0.3950
  152MOL    C5727539   6.124   6.089   2.273  0.0642 -0.6840  0.0051
  152MOL    C5827540   6.166   6.221   2.338  0.0967  0.1409 -0.1929
  152MOL    O5927541   6.267   6.287   2.295  0.0369 -0.2122 -0.1228
  152MOL    O6027542   6.092   6.253   2.445  0.4857 -0.1310 -0.4372
  152MOL    H6127543   6.117   6.156   2.064 -0.9930  0.9060  0.8180
  152MOL    H6227544   6.019   6.016   2.102  0.5865 -1.0962  1.8617
  152MOL    H6327545   6.057   6.039   2.343 -1.7167  0.6111 -0.7437
  152MOL    H6427546   6.135   6.332   2.474  0.1026  0.9485 -2.6529
  152MOL    C6527547   6.233   5.990   2.251  0.3303  0.3781 -0.2592
  152MOL    C6627548   6.297   5.937   2.382 -1.0176  0.2817 -0.1492
  152MOL    C6727549   6.443   5.959   2.388 -0.2002 -0.3459  0.2179
  152MOL    O6827550   6.530   5.873   2.413  0.3628  0.5701  0.5949
  152MOL    O6927551   6.462   6.093   2.388 -0.4336 -0.1488  0.0962
  152MOL    H7027552   6.311   6.045   2.197  1.4322 -1.7328 -0.9029
  152MOL    H7127553   6.203   5.915   2.177 -0.4599  0.6063 -0.1721
  152MOL    H7227554   6.264   5.988   2.472  0.9187  0.0287  0.7219
  152MOL    H7327555   6.554   6.109   2.403 -0.9910  3.1691  0.4540
  152MOL    C7427556   6.269   5.786   2.411 -0.3476  0.1331  0.4756
  152MOL    C7527557   6.125   5.755   2.467  0.1246  0.4839  0.1728
  152MOL    C7627558   6.113   5.808   2.617 -0.3900  0.1170  0.5422
  152MOL    O7727559   6.199   5.878   2.667 -0.4245 -0.9347 -0.2073
  152MOL    O7827560   6.005   5.757   2.681  0.1620 -0.5565 -0.1023
  152MOL    H7927561   6.342   5.741   2.479  2.3920  2.0016 -1.1547
  152MOL    H8027562   6.289   5.733   2.318  0.7585 -2.1918  1.9884
  152MOL    H8127563   6.056   5.817   2.410 -0.5399 -1.2790 -0.9655
  152MOL    H8227564   6.006   5.782   2.773 -0.8947 -3.4087  0.7544
  152MOL    C8327565   6.095   5.603   2.443  0.6906  0.4305 -0.1369
  152MOL    C8427566   6.044   5.563   2.302 -0.0764  0.7450 -0.8489
  152MOL    C8527567   5.917   5.621   2.260  0.1528  0.7273  0.5716
  152MOL    O8627568   5.838   5.676   2.336  0.5075 -0.1970  0.1863
  152MOL    O8727569   5.898   5.610   2.125 -0.0421 -0.4405 -0.1340
  152MOL    H8827570   6.018   5.580   2.515 -0.0846 -1.6948 -1.5964
  152MOL    H8927571   6.183   5.549   2.477  0.2069 -1.1357 -1.3430
  152MOL    H9027572   6.118   5.592   2.227 -1.3346  2.5155 -1.4272
  152MOL    H9127573   5.820   5.656   2.099  1.2036  0.7903 -1.7707
  152MOL    C9227574   6.035   5.407   2.293  0.7930  0.7670  0.6947
  152MOL    C9327575   6.171   5.339   2.268  0.3281  0.5911  0.6461
  152MOL    C9427576   6.169   5.266   2.131 -0.5193  0.7874 -0.0786
  152MOL    O9527577   6.216   5.320   2.039 -0.2618  0.7834  0.4164
  152MOL    O9627578   6.121   5.140   2.125  0.1260  0.0573  0.3840
  152MOL    H9727579   5.965   5.382   2.214  0.1929 -1.9344  2.0051
  152MOL    H9827580   5.984   5.360   2.377  1.8826 -0.4204  0.7196
  152MOL    H9927581   6.246   5.418   2.259 -1.3918  2.3950  1.7398
  152MOL   H10027582   6.117   5.099   2.040  0.8218  1.0474 -0.1379
  152MOL   C10127583   6.215   5.232   2.378 -0.0399  0.3424  0.2781
  152MOL   C10227584   6.362   5.182   2.374 -0.2103 -0.0641  0.2377
  152MOL   C10327585   6.376   5.029   2.386  0.1019 -0.1397 -0.5506
  152MOL   O10427586   6.359   4.970   2.495  0.1746  0.2032 -0.2218
  152MOL   O10527587   6.382   4.957   2.274  0.2374  0.2740  1.0255
  152MOL   H10627588   6.147   5.147   2.386  0.8775 -0.2871  1.7484
  152MOL   H10727589   6.204   5.287   2.472 -0.3316  0.5195  0.1389
  152MOL   H10827590   6.406   5.211   2.279  0.3268 -1.7772 -0.0584
  152MOL   H10927591   6.373   4.865   2.296  1.2007 -0.2782 -0.8788
  152MOL   C11027592   6.461   5.265   2.468 -0.0871  0.1416  0.1762
  152MOL   C11127593   6.612   5.276   2.416 -0.1152 -0.4611 -0.1177
  152MOL   C11227594   6.674   5.141   2.382 -0.3814 -0.2388 -0.0865
  152MOL   O11327595   6.708   5.091   2.276 -0.0356 -0.7450 -0.0165
  152MOL   O11427596   6.672   5.060   2.492  0.2342  0.9335  0.3321
  152MOL   H11527597   6.464   5.231   2.572  0.5044  0.8310  0.3969
  152MOL   H11627598   6.408   5.361   2.476 -0.4031  0.0963 -1.3251
  152MOL   H11727599   6.615   5.318   2.316  1.6625 -0.3764 -0.0425
  152MOL   H11827600   6.684   4.975   2.454 -0.6890  0.8669  0.1912
  152MOL   C11927601   6.702   5.360   2.507 -0.2035 -0.5741 -0.4055
  152MOL   C12027602   6.844   5.391   2.458 -1.2903 -0.2462 -0.0187
  152MOL   C12127603   6.945   5.283   2.503  0.0351  0.4578  0.2458
  152MOL   O12227604   6.976   5.244   2.616 -0.4843  0.5630 -0.4416
  152MOL   O12327605   7.013   5.237   2.389  0.6165  0.2431 -0.4542
  152MOL   H12427606   6.713   5.306   2.601  3.0456 -0.4058 -0.6362
  152MOL   H12527607   6.649   5.451   2.535  0.4596 -0.6218  1.0599
  152MOL   H12627608   6.836   5.411   2.352  2.5315  2.7272  0.1011
  152MOL   H12727609   7.087   5.181   2.408 -0.2189 -1.0732 -1.0474
  152MOL   C12827610   6.889   5.528   2.527  0.6019  0.3144  0.0858
  152MOL   C12927611   7.029   5.574   2.480  0.3280  0.0712 -0.5688
  152MOL   C13027612   7.105   5.639   2.594 -0.4154  0.8110 -0.3516
  152MOL   O13127613   7.119   5.759   2.618  0.2795 -0.1363 -0.2010
  152MOL   O13227614   7.182   5.553   2.661  0.3336  0.2875 -0.1534
  152MOL   H13327615   6.890   5.524   2.636 -0.2628 -0.7107  0.0657
  152MOL   H13427616   6.817   5.605   2.500  2.1696  1.3003 -1.4006
  152MOL   H13527617   7.086   5.484   2.456 -1.4363 -0.5479 -2.5813
  152MOL   H13627618   7.249   5.576   2.723  0.0203 -0.3936  0.4443
  152MOL   C13727619   7.035   5.656   2.346  0.0901 -0.0645  0.1924
  152MOL   C13827620   7.175   5.657   2.272 -0.7664  0.0565 -0.4361
  152MOL   C13927621   7.200   5.786   2.203 -0.1010 -0.6795 -0.3822
  152MOL   O14027622   7.218   5.792   2.085  0.1847  0.1411 -0.2307
  152MOL   O14127623   7.174   5.893   2.282  0.2147  0.3345  0.2410
  152MOL   H14227624   7.004   5.760   2.358  2.8088  0.5813  2.1351
  152MOL   H14327625   6.964   5.620   2.271  0.8407 -0.0798 -0.5215
  152MOL   H14427626   7.252   5.668   2.348  0.0983  1.4558 -1.4804
  152MOL   H14527627   7.158   5.979   2.247 -0.4416 -0.3397 -1.1567
  152MOL   C14627628   7.210   5.526   2.193 -0.0849 -0.2326  1.0643
  152MOL   C14727629   7.355   5.522   2.139  0.3203  0.2882 -1.0841
  152MOL   C14827630   7.388   5.392   2.074 -0.1758  0.2357 -0.0974
  152MOL   O14927631   7.376   5.282   2.128  0.3754  0.1526 -0.0527
  152MOL   O15027632   7.436   5.412   1.946 -0.1370  0.3231  0.1166
  152MOL   H15127633   7.138   5.517   2.111  0.4527 -1.8765  0.7603
  152MOL   H15227634   7.194   5.439   2.257 -2.0821 -1.1586 -0.6261
  152MOL   H15327635   7.361   5.601   2.064 -0.3344 -0.8822 -2.4040
  152MOL   H15427636   7.465   5.330   1.910  0.1129  0.6862 -0.5244
  152MOL   C15527637   7.464   5.561   2.239  0.2729  0.3770 -0.5932
  152MOL   C15627638   7.519   5.460   2.349 -0.5384 -0.0567  0.4434
  152MOL   C15727639   7.437   5.469   2.475 -0.1805 -0.6706 -0.1200
  152MOL   O15827640   7.461   5.554   2.563 -0.6363 -1.4374  0.0094
  152MOL   O15927641   7.341   5.374   2.473 -0.3312 -0.1692  0.2307
  152MOL   H16027642   7.443   5.655   2.291 -1.4960  0.1792 -0.9168
  152MOL   H16127643   7.555   5.586   2.185  0.4646 -0.5560 -0.7012
  152MOL   H16227644   7.509   5.355   2.324 -1.6401 -0.3496  2.0077
  152MOL   H16327645   7.285   5.372   2.549  0.8378  2.2111  1.2184
  152MOL   C16427646   7.667   5.482   2.378 -0.6806  0.4567  0.3517
  152MOL   C16527647   7.779   5.436   2.273  1.2443 -0.6714 -0.3391
  152MOL   C16627648   7.776   5.276   2.263  0.0203  0.1793 -1.5373
  152MOL   O16727649   7.804   5.196   2.352  0.1070 -0.2684  0.5740
  152MOL   O16827650   7.738   5.234   2.141  0.7894  0.0307 -0.0096
  152MOL   H16927651   7.693   5.423   2.466 -1.7387 -0.8817 -0.2060
  152MOL   H17027652   7.675   5.586   2.410  2.6178  0.1332  0.7399
  152MOL   H17127653   7.754   5.493   2.183 -0.2946  0.5378  0.8159
  152MOL   H17227654   7.753   5.141   2.145  0.8816  0.0810  1.1311
  152MOL   C17327655   0.070   5.477   2.313  0.0153  0.7187  0.2844
  152MOL   C17427656   0.165   5.470   2.190  0.6946  0.0232  0.2754
  152MOL   C17527657   0.308   5.471   2.227  0.1650  0.9312  0.0515
  152MOL   O17627658   0.377   5.569   2.240 -0.0959 -1.0087  0.3965
  152MOL   O17727659   0.357   5.348   2.244  0.3193  0.4657  0.2105
  152MOL   H17827660   0.105   5.412   2.394 -0.8010 -2.3983 -1.7701
  152MOL   H17927661   0.066   5.579   2.350  0.3551 -0.0687  2.5514
  152MOL   H18027662   0.148   5.390   2.119  3.7104  0.6665 -1.2328
  152MOL   H18127663   0.450   5.349   2.258  0.5010 -0.0748 -0.9532
  152MOL   H18227664   0.139   5.555   2.127 -0.9471 -1.8310 -1.6292
  153MOL     C127665   3.864   3.705   1.549  0.0569  0.3946 -0.2967
  153MOL     C227666   3.857   3.637   1.420  0.6853  0.4128 -0.2461
  153MOL     C327667   3.963   3.531   1.389 -0.3942  0.2173  0.5191
  153MOL     O427668   4.069   3.519   1.448 -0.1036  0.1887  0.0801
  153MOL     O527669   3.930   3.460   1.279 -0.1654 -0.7436 -0.0028
  153MOL     H627670   3.797   3.789   1.569  0.4061  0.3405  1.1859
  153MOL     H727671   3.827   3.633   1.622  0.4656  1.1624  0.6923
  153MOL     H827672   3.761   3.587   1.410  1.3374 -0.7529 -0.8054
  153MOL     H927673   3.980   3.381   1.266 -0.2475 -0.4200 -2.3451
  153MOL    H1027674   3.964   3.736   1.578 -0.4617  0.8157  1.1421
  153MOL    C1127675   3.869   3.747   1.306 -0.1625 -0.2544 -0.5177
  153MOL    C1227676   3.732   3.819   1.275  0.0296 -0.0213 -0.7731
  153MOL    C1327677   3.630   3.731   1.200 -0.6708  0.2121  0.2645
  153MOL    O1427678   3.652   3.614   1.158  0.1436 -0.5380  0.3919
  153MOL    O1527679   3.511   3.796   1.200  0.5787  1.1883 -0.3088
  153MOL    H1627680   3.906   3.697   1.217  1.1754  0.1553 -0.1949
  153MOL    H1727681   3.933   3.825   1.346  0.0010 -0.2288 -0.8311
  153MOL    H1827682   3.691   3.852   1.370 -1.6085 -2.8628 -0.4177
  153MOL    H1927683   3.435   3.751   1.165  1.4362 -0.2780 -0.3368
  153MOL    C2027684   3.761   3.942   1.188  0.0747  0.4865 -0.2886
  153MOL    C2127685   3.836   3.911   1.049  0.0062 -0.3982  0.2106
  153MOL    C2227686   3.990   3.935   1.056  0.6065  0.2616 -0.4423
  153MOL    O2327687   4.035   3.984   1.159  0.3767 -0.3336  0.3125
  153MOL    O2427688   4.058   3.917   0.937  0.2930 -0.1174 -0.6081
  153MOL    H2527689   3.820   4.006   1.254 -0.5408 -0.3360  1.0893
  153MOL    H2627690   3.663   3.984   1.167 -1.7674 -2.4489  1.9601
  153MOL    H2727691   3.829   3.809   1.012  0.9870 -0.0986 -0.8146
  153MOL    H2827692   4.151   3.927   0.949  0.0037  0.0296  1.6424
  153MOL    C2927693   3.777   4.016   0.942 -0.7599 -0.9763  0.2091
  153MOL    C3027694   3.817   4.005   0.782 -0.4084 -0.2507 -0.6348
  153MOL    C3127695   3.727   4.100   0.714 -0.1855  0.0312  0.4108
  153MOL    O3227696   3.760   4.216   0.698  0.1645  0.1607 -0.6615
  153MOL    O3327697   3.607   4.045   0.684 -0.1668  0.0412  0.5409
  153MOL    H3427698   3.774   4.115   0.989  2.6466  1.0889 -3.6361
  153MOL    H3527699   3.670   3.998   0.930 -1.4809  3.1699 -0.4527
  153MOL    H3627700   3.919   4.039   0.766  0.5233 -1.8873  1.5567
  153MOL    H3727701   3.556   4.109   0.636 -0.8165 -0.7332  0.1947
  153MOL    C3827702   3.791   3.857   0.733 -0.6984 -0.6724 -0.0076
  153MOL    C3927703   3.814   3.822   0.580 -0.2017  0.0511 -0.4976
  153MOL    C4027704   3.766   3.670   0.545  0.0158  0.3982  0.1201
  153MOL    O4127705   3.701   3.637   0.448  0.2609  0.1315  1.0917
  153MOL    O4227706   3.821   3.580   0.638 -0.5040  0.0470 -0.0567
  153MOL    H4327707   3.689   3.835   0.762 -0.7520  0.2090  0.4851
  153MOL    H4427708   3.847   3.794   0.801  0.0848 -0.2417 -0.2418
  153MOL    H4527709   3.738   3.886   0.535  1.1885  2.2784  0.2313
  153MOL    H4627710   3.784   3.494   0.630 -0.2179 -0.2947  1.9478
  153MOL    C4727711   3.949   3.848   0.518 -0.6795  0.1042  0.5743
  153MOL    C4827712   3.959   3.973   0.419  0.4873  0.1015  0.5181
  153MOL    C4927713   3.873   3.955   0.298 -0.0218  0.0238  0.1052
  153MOL    O5027714   3.764   4.006   0.286 -0.3156  0.3430  0.2825
  153MOL    O5127715   3.933   3.868   0.219  0.0668  0.3394  0.6618
  153MOL    H5227716   3.980   3.758   0.465 -1.4924 -0.2946  0.7599
  153MOL    H5327717   4.027   3.851   0.594 -1.7425 -3.0902  1.9050
  153MOL    H5427718   3.922   4.063   0.468  2.4408  0.0098  2.2583
  153MOL    H5527719   3.881   3.856   0.141  0.6661 -0.1071  0.3290
  153MOL    C5627720   4.107   4.005   0.387  0.3151 -0.2699  0.3645
  153MOL    C5727721   4.179   4.120   0.458  0.3866 -0.2921 -0.2015
  153MOL    C5827722   4.213   4.085   0.603 -0.2884 -0.0409  0.0330
  153MOL    O5927723   4.154   4.135   0.700  0.1804 -0.1261 -0.3996
  153MOL    O6027724   4.311   3.989   0.605  0.0068  0.5175 -0.2809
  153MOL    H6127725   4.113   4.023   0.279 -0.7229 -1.3324  0.1160
  153MOL    H6227726   4.175   3.921   0.398 -0.4788 -0.5162  3.9521
  153MOL    H6327727   4.280   4.123   0.417 -0.3313  1.3772 -1.9416
  153MOL    H6427728   4.330   3.984   0.698 -2.2430 -0.4952  0.1577
  153MOL    C6527729   4.121   4.263   0.448 -0.0966 -0.2277 -0.2187
  153MOL    C6627730   4.112   4.340   0.316 -0.6137  0.0349  0.6123
  153MOL    C6727731   4.255   4.354   0.257 -0.7474  0.9239 -0.3784
  153MOL    O6827732   4.285   4.313   0.150 -0.2203  0.2216 -0.1841
  153MOL    O6927733   4.341   4.425   0.335 -0.0258 -0.1770 -0.1529
  153MOL    H7027734   4.172   4.325   0.522  0.0076 -0.4585 -0.0949
  153MOL    H7127735   4.027   4.254   0.502  0.9166 -0.7632  1.5004
  153MOL    H7227736   4.053   4.285   0.243  1.1323 -1.1345  0.0581
  153MOL    H7327737   4.309   4.463   0.415 -0.1261  0.0542 -0.3019
  153MOL    C7427738   4.045   4.480   0.325  0.4739  0.0850  0.3236
  153MOL    C7527739   3.891   4.469   0.329  0.0308 -0.0881 -0.0679
  153MOL    C7627740   3.830   4.446   0.194  0.2384  0.4073 -0.2103
  153MOL    O7727741   3.875   4.496   0.090  0.1226 -0.5815  0.2827
  153MOL    O7827742   3.707   4.392   0.208  0.1737 -0.1711 -0.1895
  153MOL    H7927743   4.071   4.539   0.238  0.2315  0.3811  0.4521
  153MOL    H8027744   4.090   4.538   0.406  0.4511 -1.4054  1.4323
  153MOL    H8127745   3.867   4.379   0.385 -0.9179 -1.0423 -1.9354
  153MOL    H8227746   3.670   4.356   0.129 -1.5634 -1.3119  1.1073
  153MOL    C8327747   3.814   4.595   0.383  0.1630  0.0927  0.1987
  153MOL    C8427748   3.852   4.636   0.524  0.0657  0.3234 -0.6766
  153MOL    C8527749   3.880   4.527   0.626 -0.5584  0.5693 -0.1692
  153MOL    O8627750   3.991   4.480   0.661  0.2627  0.1823  0.1646
  153MOL    O8727751   3.765   4.469   0.668  0.5213  0.2914 -0.3044
  153MOL    H8827752   3.707   4.572   0.390  0.5102 -1.5100  0.3350
  153MOL    H8927753   3.826   4.677   0.312 -3.8430 -0.2953 -1.0848
  153MOL    H9027754   3.953   4.679   0.525  0.1965  0.1004  2.5371
  153MOL    H9127755   3.778   4.383   0.704  1.1757 -0.2645 -1.8350
  153MOL    C9227756   3.760   4.750   0.572 -0.3210 -0.1293  0.4828
  153MOL    C9327757   3.826   4.824   0.690 -0.1394  0.1965 -0.3290
  153MOL    C9427758   3.728   4.908   0.777 -0.6973 -0.3124 -0.4746
  153MOL    O9527759   3.735   4.923   0.900 -0.2565  0.0676  0.9566
  153MOL    O9627760   3.634   4.966   0.701  0.5562 -0.1363  0.3924
  153MOL    H9727761   3.657   4.717   0.588 -0.4483 -0.4381 -0.9401
  153MOL    H9827762   3.754   4.827   0.496 -1.9817 -2.0924 -1.4651
  153MOL    H9927763   3.867   4.752   0.761  2.7951  0.7255 -1.4277
  153MOL   H10027764   3.565   4.996   0.758  0.2563  0.8008 -0.4592
  153MOL   C10127765   3.962   4.898   0.637  0.3854 -0.1492  0.0149
  153MOL   C10227766   4.094   4.847   0.692 -0.1767  0.4725  0.2339
  153MOL   C10327767   4.116   4.869   0.837  0.4432 -0.5607 -0.3998
  153MOL   O10427768   4.122   4.988   0.884  0.1663 -0.2184 -0.9381
  153MOL   O10527769   4.148   4.754   0.907 -0.5461  0.3981  0.2177
  153MOL   H10627770   3.959   5.005   0.656  2.5320  0.2429 -1.6607
  153MOL   H10727771   3.963   4.895   0.528 -0.0126  0.8229 -0.0148
  153MOL   H10827772   4.082   4.739   0.686 -1.1934  0.6702 -2.0159
  153MOL   H10927773   4.163   4.782   0.996 -0.1709  0.5670  0.1020
  153MOL   C11027774   4.213   4.902   0.605 -0.1851 -0.7720 -0.7780
  153MOL   C11127775   4.281   4.795   0.517  0.3019  0.0242  0.2950
  153MOL   C11227776   4.341   4.668   0.594 -0.3488  0.4288  0.5484
  153MOL   O11327777   4.330   4.555   0.547 -0.0331  0.1446 -0.6298
  153MOL   O11427778   4.402   4.700   0.715  0.6364 -0.0039 -0.0745
  153MOL   H11527779   4.285   4.935   0.680  2.1565  1.8086 -3.9635
  153MOL   H11627780   4.187   4.986   0.541 -1.2465 -1.2460 -0.9872
  153MOL   H11727781   4.211   4.749   0.447  1.3742 -0.5167 -0.4245
  153MOL   H11827782   4.400   4.620   0.765  1.2701  0.1052  0.1240
  153MOL   C11927783   4.382   4.851   0.426 -0.4355  0.2168  1.1284
  153MOL   C12027784   4.500   4.930   0.487 -0.5672  0.2426 -0.3771
  153MOL   C12127785   4.464   5.083   0.510  0.3113  0.1643 -0.0759
  153MOL   O12227786   4.372   5.143   0.464  0.1821 -0.3776  0.1808
  153MOL   O12327787   4.552   5.142   0.598 -0.1515  0.6952 -0.0409
  153MOL   H12427788   4.343   4.925   0.356 -1.3337 -0.6855  0.6799
  153MOL   H12527789   4.416   4.771   0.360  1.3480  2.3557 -0.6552
  153MOL   H12627790   4.536   4.892   0.583  1.9010  3.1352 -0.0609
  153MOL   H12727791   4.526   5.231   0.619  0.0797  0.3699  1.7422
  153MOL   C12827792   4.631   4.924   0.405 -0.2082 -1.0912 -0.0061
  153MOL   C12927793   4.702   4.790   0.417 -0.5442  0.4126 -0.3516
  153MOL   C13027794   4.799   4.792   0.538  0.3373 -0.2288  0.0099
  153MOL   O13127795   4.893   4.864   0.541  0.0742 -0.2653 -0.2696
  153MOL   O13227796   4.775   4.694   0.625 -0.3880  0.8653 -0.2368
  153MOL   H13327797   4.701   4.999   0.442  0.8085 -2.0498  0.0325
  153MOL   H13427798   4.613   4.952   0.301 -1.6849 -1.0651  0.2364
  153MOL   H13527799   4.633   4.707   0.433 -0.0149 -0.5550 -2.7799
  153MOL   H13627800   4.849   4.699   0.684  0.5083 -0.3170 -1.2178
  153MOL   C13727801   4.784   4.753   0.288 -0.4292 -0.0913 -0.3397
  153MOL   C13827802   4.696   4.728   0.164 -0.3866 -0.8795  0.4432
  153MOL   C13927803   4.649   4.580   0.170 -0.7822  1.0058  0.5756
  153MOL   O14027804   4.701   4.487   0.236 -0.2965  0.0119  0.1047
  153MOL   O14127805   4.544   4.563   0.080  0.1105  0.1342  0.4174
  153MOL   H14227806   4.851   4.670   0.310 -0.9141 -0.3617  0.1339
  153MOL   H14327807   4.853   4.836   0.272  1.7658 -2.2706 -2.5774
  153MOL   H14427808   4.601   4.781   0.176  0.0220 -0.3618  1.4608
  153MOL   H14527809   4.508   4.475   0.073 -0.7277  0.5577 -0.7804
  153MOL   C14627810   4.775   4.748   0.026 -1.2866 -0.1712  0.0730
  153MOL   C14727811   4.794   4.901   7.853  0.6411 -0.5013  0.5732
  153MOL   C14827812   4.662   4.962   7.808 -0.2735 -0.0459 -0.4013
  153MOL   O14927813   4.579   5.012   0.034 -0.6607  0.1679 -0.5857
  153MOL   O15027814   4.649   4.964   7.673 -0.4167  0.1003  0.2584
  153MOL   H15127815   4.717   4.710   7.795  0.4383 -0.1158 -1.1420
  153MOL   H15227816   4.870   4.696   0.029 -1.0131  0.1613 -2.4674
  153MOL   H15327817   4.815   4.941   0.099  0.3909  1.0871  0.0087
  153MOL   H15427818   4.563   4.989   7.643 -1.4749 -1.4682  1.8729
  153MOL   C15527819   4.921   4.920   7.767 -0.1026 -0.1117  0.2821
  153MOL   C15627820   4.963   5.072   7.765 -0.0952 -0.3117 -0.1000
  153MOL   C15727821   4.965   5.130   7.623 -0.5122 -0.0772  0.6861
  153MOL   O15827822   4.892   5.221   7.586  0.2195 -0.4078  0.1447
  153MOL   O15927823   5.057   5.076   7.542 -0.0395 -0.3987  0.3182
  153MOL   H16027824   4.905   4.877   7.668  0.8059  3.6268 -1.5929
  153MOL   H16127825   5.003   4.862   7.809 -0.8289 -0.7704  0.7949
  153MOL   H16227826   4.880   5.124   7.813 -1.6230 -3.1425  0.4399
  153MOL   H16327827   5.053   5.121   7.459  1.6154  0.0077  0.4448
  153MOL   C16427828   5.093   5.095   7.843 -0.5394 -0.3997 -0.1118
  153MOL   C16527829   5.085   5.082   0.146 -0.8955 -1.2413 -0.4803
  153MOL   C16627830   4.995   5.185   0.203 -0.8857  0.1311 -1.1281
  153MOL   O16727831   4.987   5.305   0.168 -0.0537  0.9561  0.3240
  153MOL   O16827832   4.932   5.132   0.315 -0.3654 -0.2914  0.1067
  153MOL   H16927833   5.122   5.194   7.809  0.9132 -1.2475 -1.4032
  153MOL   H17027834   5.165   5.023   7.805 -2.0033 -0.1788 -3.4313
  153MOL   H17127835   5.048   4.983   0.171 -0.3836 -1.6151 -1.1938
  153MOL   H17227836   4.868   5.187   0.358 -1.9369 -1.0100 -1.2799
  153MOL   C17327837   5.225   5.089   0.211 -0.2255 -0.5195  0.2118
  153MOL   C17427838   5.289   4.959   0.256  0.1771  0.3722 -0.5125
  153MOL   C17527839   5.316   4.857   0.146  0.3618  0.0447 -0.3305
  153MOL   O17627840   5.273   4.744   0.141 -0.2028  0.1262 -0.0632
  153MOL   O17727841   5.405   4.907   0.049  0.2236  0.3672  0.3039
  153MOL   H17827842   5.224   5.151   0.300 -1.8459 -1.1929  0.6870
  153MOL   H17927843   5.281   5.156   0.146 -1.8888  0.7119 -0.0101
  153MOL   H18027844   5.382   4.985   0.307  0.6598 -0.1076 -1.1418
  153MOL   H18127845   5.442   4.990   0.077  1.3360  0.0870 -0.2939
  153MOL   H18227846   5.220   4.911   0.326 -0.3585  1.3273 -0.3647
  154MOL     C127847   5.106   7.507   5.452  0.6606  0.8991  0.2306
  154MOL     C227848   4.984   7.458   5.533 -0.2219 -0.2319  0.1235
  154MOL     C327849   5.030   7.351   5.632  0.7214  0.5145 -1.0046
  154MOL     O427850   5.043   7.232   5.609 -0.6533  0.2373 -0.2771
  154MOL     O527851   5.065   7.403   5.753 -0.3016  0.2939 -0.5799
  154MOL     H627852   5.075   7.596   5.397  0.1028  0.1401 -0.7220
  154MOL     H727853   5.183   7.539   5.522 -1.0915 -1.2766  3.2231
  154MOL     H827854   4.945   7.541   5.592 -0.6005 -0.9180  0.8360
  154MOL     H927855   5.086   7.329   5.806  0.1021  1.4023  0.8403
  154MOL    H1027856   5.140   7.431   5.380  0.5591  0.7142  0.3772
  154MOL    C1127857   4.866   7.403   5.449 -0.1424  0.2388  0.3779
  154MOL    C1227858   4.720   7.371   5.507 -0.0325 -0.3531  0.0690
  154MOL    C1327859   4.657   7.504   5.553 -0.0243  0.8377 -0.3328
  154MOL    O1427860   4.637   7.537   5.669 -0.2190  0.0781 -0.0188
  154MOL    O1527861   4.635   7.582   5.448 -0.4351 -0.3264  0.5527
  154MOL    H1627862   4.898   7.315   5.393 -1.8489  0.4596 -0.9549
  154MOL    H1727863   4.843   7.472   5.369  1.6810  0.3359 -0.0840
  154MOL    H1827864   4.663   7.335   5.421 -0.5906 -0.5040  0.4963
  154MOL    H1927865   4.609   7.671   5.462  1.4125  0.3428 -0.0969
  154MOL    C2027866   4.718   7.257   5.614 -0.4966  0.1340  0.1387
  154MOL    C2127867   4.581   7.185   5.653  0.2488  0.1780  0.0148
  154MOL    C2227868   4.579   7.169   5.811  0.1280 -0.4681  0.7818
  154MOL    O2327869   4.598   7.261   5.894  0.1488  0.0517  0.0542
  154MOL    O2427870   4.548   7.037   5.840 -0.8213 -0.0954 -0.5265
  154MOL    H2527871   4.765   7.307   5.699  1.0755  0.1119 -0.7040
  154MOL    H2627872   4.794   7.183   5.589  0.6195 -0.1286  3.8562
  154MOL    H2727873   4.496   7.244   5.619 -0.2643 -1.1459 -1.0260
  154MOL    H2827874   4.546   7.019   5.932  1.2206  0.0257 -0.4327
  154MOL    C2927875   4.588   7.049   5.569  1.1159 -0.5458 -1.4119
  154MOL    C3027876   4.571   7.069   5.421 -0.2393  0.2092 -0.1835
  154MOL    C3127877   4.441   7.142   5.381  0.1129  0.7155  0.4322
  154MOL    O3227878   4.438   7.251   5.331  0.7972  0.0022  0.0892
  154MOL    O3327879   4.340   7.064   5.417  0.1368 -0.0287 -1.6868
  154MOL    H3427880   4.511   6.980   5.603  1.4950  0.1103  0.8284
  154MOL    H3527881   4.683   6.998   5.579  1.3188  0.1310  0.1580
  154MOL    H3627882   4.652   7.130   5.380 -0.3915 -0.4327 -1.4590
  154MOL    H3727883   4.255   7.097   5.390 -0.6186  0.3852  0.9994
  154MOL    C3827884   4.576   6.940   5.335 -0.5777  0.6080  0.1594
  154MOL    C3927885   4.715   6.874   5.324  0.1501 -0.4927 -0.0261
  154MOL    C4027886   4.812   6.965   5.251  0.4433 -0.3207  0.3909
  154MOL    O4127887   4.793   7.022   5.144  0.1125 -0.4366  0.0963
  154MOL    O4227888   4.923   6.982   5.321  0.2398 -0.5136 -0.5976
  154MOL    H4327889   4.545   6.955   5.232 -1.5346 -1.9719  0.0184
  154MOL    H4427890   4.499   6.880   5.383 -1.2120 -0.4243 -2.0707
  154MOL    H4527891   4.755   6.849   5.422 -1.9384 -3.5160  0.1235
  154MOL    H4627892   4.968   7.059   5.289  1.1535 -1.7056 -2.2923
  154MOL    C4727893   4.726   6.736   5.258  0.3119 -0.0613  0.3928
  154MOL    C4827894   4.865   6.660   5.290  0.5413 -0.1349  0.0776
  154MOL    C4927895   4.898   6.575   5.168 -0.4762 -0.6348 -0.2463
  154MOL    O5027896   5.000   6.595   5.109  0.4506 -0.6732  0.3624
  154MOL    O5127897   4.793   6.485   5.139 -0.4819 -0.0699 -0.1066
  154MOL    H5227898   4.718   6.745   5.150  0.4005 -0.0939  0.3842
  154MOL    H5327899   4.631   6.684   5.265  0.3858 -0.5180 -1.6585
  154MOL    H5427900   4.941   6.738   5.292 -1.0282  1.4105  0.8216
  154MOL    H5527901   4.808   6.450   5.053 -0.7373  1.7910 -0.9272
  154MOL    C5627902   4.866   6.572   5.417 -0.4564  0.3362  0.3184
  154MOL    C5727903   4.901   6.642   5.553 -0.5702 -0.2060  0.5764
  154MOL    C5827904   5.049   6.672   5.563  0.4366 -0.0103  0.2950
  154MOL    O5927905   5.141   6.591   5.546 -0.3034 -0.1400  0.1392
  154MOL    O6027906   5.076   6.801   5.600  0.0620 -0.4060 -0.5261
  154MOL    H6127907   4.924   6.480   5.407 -1.4422 -0.0717 -2.2243
  154MOL    H6227908   4.762   6.538   5.412 -1.0059  2.0651 -0.7000
  154MOL    H6327909   4.858   6.742   5.550  3.0502  1.3799 -0.1702
  154MOL    H6427910   5.168   6.822   5.606  0.2416 -0.9157 -1.5241
  154MOL    C6527911   4.857   6.560   5.674  0.5239  0.7166  0.6449
  154MOL    C6627912   4.860   6.632   5.810  0.1906 -0.7832 -0.1791
  154MOL    C6727913   4.789   6.765   5.797 -0.6284  0.3655 -0.5707
  154MOL    O6827914   4.846   6.873   5.803  0.2772 -0.0579  0.2007
  154MOL    O6927915   4.657   6.753   5.778 -0.0727  0.2144  0.4257
  154MOL    H7027916   4.925   6.476   5.688  0.7386  0.6825 -0.6073
  154MOL    H7127917   4.756   6.525   5.655  1.3250 -0.8579 -0.8134
  154MOL    H7227918   4.804   6.567   5.876  0.9940 -0.3010  0.9929
  154MOL    H7327919   4.606   6.831   5.762 -0.8225 -0.5871 -1.1927
  154MOL    C7427920   5.004   6.651   5.874  0.8416  0.1042 -0.6583
  154MOL    C7527921   5.022   6.665   6.027 -0.4165  0.0220  0.1857
  154MOL    C7627922   5.170   6.658   6.048 -0.1509  0.4185 -0.0150
  154MOL    O7727923   5.224   6.564   6.110 -0.4671 -0.3791 -0.5104
  154MOL    O7827924   5.235   6.766   5.991 -0.3053  0.2526  0.0606
  154MOL    H7927925   5.042   6.748   5.841  0.7869  0.8127  1.3198
  154MOL    H8027926   5.075   6.582   5.826  0.1471  0.3264 -2.0259
  154MOL    H8127927   4.990   6.766   6.054  1.2889  0.7091 -0.2487
  154MOL    H8227928   5.326   6.745   6.005 -0.2621  0.4441  0.0659
  154MOL    C8327929   4.947   6.581   6.123  0.6329  0.2175  0.7366
  154MOL    C8427930   4.936   6.624   6.272 -0.4752  0.2564  0.0192
  154MOL    C8527931   4.941   6.504   6.368 -0.1841 -0.1308 -0.6825
  154MOL    O8627932   5.010   6.494   6.470  0.2984 -0.1065 -0.0532
  154MOL    O8727933   4.848   6.410   6.331  0.0674  0.4176  0.1309
  154MOL    H8827934   4.988   6.481   6.109 -1.0703 -0.3341 -0.4977
  154MOL    H8927935   4.845   6.560   6.091  0.0104  1.6154  1.7920
  154MOL    H9027936   5.021   6.683   6.304 -0.7448 -0.6156  2.5463
  154MOL    H9127937   4.886   6.330   6.365  2.5474  1.0978 -0.9544
  154MOL    C9227938   4.820   6.720   6.293  0.0447  0.0431  0.4404
  154MOL    C9327939   4.822   6.813   6.420 -0.0687 -0.6906 -0.3729
  154MOL    C9427940   4.681   6.812   6.477  0.8896  0.4348 -0.4369
  154MOL    O9527941   4.613   6.914   6.491 -0.3185 -0.3510  0.2512
  154MOL    O9627942   4.647   6.695   6.531 -0.6884  0.1589 -0.5325
  154MOL    H9727943   4.726   6.667   6.280 -2.1726  3.1871  2.6780
  154MOL    H9827944   4.824   6.781   6.203 -1.9677 -1.4231 -0.6814
  154MOL    H9927945   4.885   6.773   6.500 -1.6061  0.7018  1.5865
  154MOL   H10027946   4.557   6.702   6.559 -0.5863 -1.9913  0.4739
  154MOL   C10127947   4.869   6.961   6.394 -0.2049  0.4888 -0.4405
  154MOL   C10227948   5.008   6.990   6.335  0.0679 -0.1652 -0.0547
  154MOL   C10327949   5.122   6.938   6.433 -0.3206  0.5622  0.1375
  154MOL   O10427950   5.235   6.897   6.392 -0.0912 -1.0719  0.1855
  154MOL   O10527951   5.080   6.928   6.559  0.1912 -0.1390  0.1181
  154MOL   H10627952   4.856   7.021   6.484  0.6602 -1.1559  0.8170
  154MOL   H10727953   4.790   7.006   6.334 -0.7901  0.5815  0.3944
  154MOL   H10827954   5.019   6.923   6.250 -2.0702 -0.5065 -0.0694
  154MOL   H10927955   5.157   6.902   6.606  0.7723  0.7799 -0.3107
  154MOL   C11027956   5.035   7.134   6.280  0.6489  0.0134  0.1983
  154MOL   C11127957   4.941   7.172   6.154  0.4150  0.4303  0.0311
  154MOL   C11227958   4.959   7.071   6.039 -0.8142  0.7897 -0.4681
  154MOL   O11327959   5.065   7.010   6.021 -0.2541 -0.1465  0.3532
  154MOL   O11427960   4.844   7.068   5.966 -0.3620 -0.0806  0.0537
  154MOL   H11527961   5.135   7.128   6.238  1.9464  0.9020  3.0098
  154MOL   H11627962   5.014   7.202   6.363 -2.0166  0.6513 -0.9341
  154MOL   H11727963   4.835   7.159   6.179 -0.1195 -0.3689 -2.5325
  154MOL   H11827964   4.851   7.003   5.898 -1.4883  0.6903 -0.8206
  154MOL   C11927965   4.965   7.316   6.103  0.2176  0.5850 -0.3807
  154MOL   C12027966   4.914   7.426   6.187  0.2922 -0.5787  0.4176
  154MOL   C12127967   4.765   7.428   6.161  0.0278 -1.2159 -0.0808
  154MOL   O12227968   4.687   7.359   6.230  0.0812  0.6024 -0.1880
  154MOL   O12327969   4.730   7.487   6.047 -0.5511 -0.2753 -0.6977
  154MOL   H12427970   4.920   7.324   6.004  1.5146 -1.3737 -1.1672
  154MOL   H12527971   5.071   7.323   6.078 -0.1491  2.2336 -1.5741
  154MOL   H12627972   4.939   7.402   6.290  0.7578 -1.2440  0.1542
  154MOL   H12727973   4.636   7.491   6.038 -0.8558  1.2181  2.3331
  154MOL   C12827974   4.984   7.555   6.145  0.5053  0.1147  0.0401
  154MOL   C12927975   5.135   7.568   6.167 -0.6002 -0.2550 -0.5131
  154MOL   C13027976   5.149   7.684   6.265  0.2499  0.0705 -0.4780
  154MOL   O13127977   5.186   7.799   6.243 -0.2086 -0.6141  0.5029
  154MOL   O13227978   5.128   7.634   6.391 -0.2947  0.2161 -0.7142
  154MOL   H13327979   4.922   7.629   6.194  1.2671 -0.1677  1.4394
  154MOL   H13427980   4.958   7.573   6.040 -0.9524  0.6663  0.4924
  154MOL   H13527981   5.167   7.487   6.232 -1.0939 -1.2398 -1.5021
  154MOL   H13627982   5.154   7.700   6.453 -1.1755 -0.0752 -0.0227
  154MOL   C13727983   5.225   7.576   6.045  0.1065 -0.2773 -0.2430
  154MOL   C13827984   5.355   7.485   6.045  0.0646 -0.5292 -0.3713
  154MOL   C13927985   5.475   7.564   6.105 -0.5170  0.3466 -0.3426
  154MOL   O14027986   5.558   7.614   6.034 -0.3073  0.1532 -0.0384
  154MOL   O14127987   5.471   7.564   6.241  0.4292  0.2912  0.0536
  154MOL   H14227988   5.254   7.681   6.037  1.2212 -0.4374  1.4451
  154MOL   H14327989   5.164   7.559   5.956 -1.1223 -1.5080  0.8124
  154MOL   H14427990   5.334   7.399   6.108 -0.9128  0.7650  1.1058
  154MOL   H14527991   5.553   7.604   6.267  0.3706 -0.4375  1.4062
  154MOL   C14627992   5.378   7.436   5.899  0.3544  0.6712  0.3805
  154MOL   C14727993   5.451   7.299   5.885  0.3045  0.6224 -0.1662
  154MOL   C14827994   5.366   7.183   5.948  0.2704 -0.7647 -0.0394
  154MOL   O14927995   5.387   7.127   6.057 -0.0343 -0.4436  0.5081
  154MOL   O15027996   5.263   7.149   5.868  0.3163 -0.3693 -0.0806
  154MOL   H15127997   5.425   7.520   5.848  0.8660  2.0301  2.9954
  154MOL   H15227998   5.287   7.408   5.846  1.4290 -1.7712 -0.2665
  154MOL   H15327999   5.451   7.284   5.778 -0.7440 -0.8349  0.0202
  154MOL   H15428000   5.209   7.086   5.914 -0.9656  1.0327  0.3874
  154MOL   C15528001   5.594   7.300   5.943 -0.5430  1.0129 -0.8290
  154MOL   C15628002   5.692   7.196   5.887 -0.1449  0.6068  0.0122
  154MOL   C15728003   5.677   7.060   5.961  0.4652 -0.7101  0.3152
  154MOL   O15828004   5.710   7.044   6.077 -0.2624 -0.1567  0.0890
  154MOL   O15928005   5.620   6.965   5.885  0.6949 -0.3019 -0.1598
  154MOL   H16028006   5.590   7.287   6.051  1.1691 -0.2447 -0.8974
  154MOL   H16128007   5.636   7.401   5.934 -0.2109  0.9493  0.0135
  154MOL   H16228008   5.663   7.188   5.782 -0.0151  2.6635 -0.2043
  154MOL   H16328009   5.585   6.898   5.942  0.8559 -0.0144  0.2780
  154MOL   C16428010   5.846   7.246   5.889  0.1120  0.1346  0.2529
  154MOL   C16528011   5.945   7.148   5.817  0.7216  0.2210  0.2616
  154MOL   C16628012   6.091   7.182   5.849  0.7264  0.4480 -0.3526
  154MOL   O16728013   6.175   7.214   5.766  0.0000  0.1457 -0.0900
  154MOL   O16828014   6.109   7.165   5.982  0.2615  0.4937 -0.3244
  154MOL   H16928015   5.879   7.247   5.993  0.3960 -0.2736  0.1706
  154MOL   H17028016   5.844   7.348   5.852 -0.6569 -0.0589 -0.2501
  154MOL   H17128017   5.932   7.054   5.869 -1.2122  0.8242  0.8971
  154MOL   H17228018   6.196   7.182   6.013 -0.2483  0.3050  1.2638
  154MOL   C17328019   5.917   7.146   5.668  0.0712  0.1841 -0.3701
  154MOL   C17428020   6.022   7.069   5.576  0.2725 -0.6942  0.5631
  154MOL   C17528021   6.045   6.922   5.597 -0.5126  0.4438 -0.0902
  154MOL   O17628022   5.998   6.861   5.696 -0.2121  0.0970  0.0357
  154MOL   O17728023   6.124   6.869   5.504  0.7092  0.3067 -0.5890
  154MOL   H17828024   5.918   7.249   5.631  1.7808  0.0614 -0.7414
  154MOL   H17928025   5.814   7.114   5.655 -0.1840  1.2596 -1.0212
  154MOL   H18028026   5.980   7.088   5.477 -1.7537 -1.4450  1.2400
  154MOL   H18128027   6.128   6.775   5.516 -0.8901  0.1015 -1.5372
  154MOL   H18228028   6.121   7.112   5.565  0.0916 -0.6418 -0.9561
  155MOL     C128029   2.548   5.573   5.229  1.2137 -0.3648  0.3032
  155MOL     C228030   2.480   5.592   5.095  0.0168 -0.3707 -0.2684
  155MOL     C328031   2.468   5.451   5.023 -0.0796 -0.1516 -0.1205
  155MOL     O428032   2.477   5.343   5.088  0.0881  0.0355  0.2121
  155MOL     O528033   2.445   5.457   4.887  0.0807 -0.5691  0.1356
  155MOL     H628034   2.654   5.550   5.220  1.4048  0.6509  0.0183
  155MOL     H728035   2.538   5.663   5.290  1.9072 -0.4644  0.5735
  155MOL     H828036   2.378   5.624   5.117  0.2559 -0.4314  0.9146
  155MOL     H928037   2.418   5.369   4.864  1.8285 -0.9001 -0.7626
  155MOL    H1028038   2.504   5.493   5.290  0.1441  0.4668  0.6343
  155MOL    C1128039   2.546   5.701   5.005  0.1583 -0.8090 -0.9391
  155MOL    C1228040   2.693   5.655   4.954  0.7039 -0.6172  0.2721
  155MOL    C1328041   2.809   5.734   5.006 -0.7432 -0.2229 -0.0549
  155MOL    O1428042   2.898   5.785   4.936 -0.2882 -0.4059  0.3319
  155MOL    O1528043   2.814   5.743   5.144 -0.0862 -0.4180  0.7901
  155MOL    H1628044   2.558   5.798   5.053 -2.1819 -0.2716 -1.3987
  155MOL    H1728045   2.488   5.720   4.915 -1.4747  0.6740  0.3956
  155MOL    H1828046   2.717   5.559   5.000  1.3808 -1.2179 -1.3017
  155MOL    H1928047   2.885   5.799   5.169  0.3923  0.7297 -2.8780
  155MOL    C2028048   2.701   5.629   4.802  0.7787  0.2593  1.2398
  155MOL    C2128049   2.812   5.537   4.739  1.0450 -0.4070  0.2416
  155MOL    C2228050   2.846   5.581   4.593 -0.0422 -0.9132  0.4820
  155MOL    O2328051   2.948   5.649   4.570  0.0189 -0.8003  0.3729
  155MOL    O2428052   2.748   5.547   4.502  1.0128  1.0003 -0.3227
  155MOL    H2528053   2.710   5.728   4.757 -1.2237  0.4331  1.1435
  155MOL    H2628054   2.604   5.592   4.769  1.9672 -1.3906 -0.5002
  155MOL    H2728055   2.905   5.548   4.795  0.7885 -0.2131  0.6359
  155MOL    H2828056   2.793   5.551   4.419  1.4385 -1.6610 -0.2397
  155MOL    C2928057   2.774   5.387   4.753  0.3292  0.4961 -0.6171
  155MOL    C3028058   2.886   5.291   4.703  0.0415 -0.7546 -0.0346
  155MOL    C3128059   2.866   5.244   4.557 -0.1817 -0.7958 -0.7529
  155MOL    O3228060   2.957   5.231   4.477 -0.3306  0.6021  0.3463
  155MOL    O3328061   2.737   5.205   4.531 -0.1185  0.1674 -0.0728
  155MOL    H3428062   2.682   5.369   4.698  0.4223  0.0173 -0.6240
  155MOL    H3528063   2.758   5.371   4.860 -1.2077  0.4192 -0.8463
  155MOL    H3628064   2.981   5.344   4.701 -0.3928  0.0049 -1.1738
  155MOL    H3728065   2.742   5.164   4.446 -1.0120 -2.7048  1.2037
  155MOL    C3828066   2.926   5.171   4.791 -0.2171  0.5603  0.2709
  155MOL    C3928067   2.817   5.075   4.836 -0.1769  0.0893  0.1328
  155MOL    C4028068   2.790   5.083   4.987  0.1294  0.0857  0.2120
  155MOL    O4128069   2.853   5.030   5.072  0.4051  0.0994 -0.3382
  155MOL    O4228070   2.680   5.163   5.012 -0.0529 -0.0925 -0.0469
  155MOL    H4328071   2.981   5.215   4.873 -2.0390  2.4055  0.5439
  155MOL    H4428072   3.003   5.106   4.749 -1.8535 -2.5272  1.8208
  155MOL    H4528073   2.724   5.113   4.794 -0.8585 -0.3039  1.2785
  155MOL    H4628074   2.666   5.159   5.105 -0.3474 -1.7678 -0.1500
  155MOL    C4728075   2.841   4.922   4.798 -0.2281  0.0178 -0.7829
  155MOL    C4828076   2.880   4.882   4.652  0.0493 -0.2320  0.8451
  155MOL    C4928077   2.760   4.831   4.582 -0.3716  0.2331  0.6307
  155MOL    O5028078   2.723   4.877   4.470 -0.3079 -0.2635  0.5623
  155MOL    O5128079   2.715   4.711   4.621 -0.0229  0.6909  0.9229
  155MOL    H5228080   2.753   4.868   4.833  1.1529  0.4707  3.7655
  155MOL    H5328081   2.926   4.893   4.860  1.9648  1.3070 -3.1147
  155MOL    H5428082   2.920   4.968   4.597 -0.3083 -0.5859  0.0242
  155MOL    H5528083   2.640   4.688   4.569  0.5413  0.2608  0.2939
  155MOL    C5628084   3.010   4.794   4.631  0.0412  0.8728  0.5519
  155MOL    C5728085   3.151   4.854   4.617  0.1932 -0.3294  0.8767
  155MOL    C5828086   3.203   4.921   4.747 -0.8105 -0.2225  0.1206
  155MOL    O5928087   3.264   5.028   4.753 -0.2576 -0.0080 -0.0760
  155MOL    O6028088   3.170   4.851   4.859 -0.1351  0.3050  0.3124
  155MOL    H6128089   2.990   4.735   4.541 -0.9983  0.0811  1.2925
  155MOL    H6228090   3.004   4.707   4.696  0.6859  1.0677  0.8801
  155MOL    H6328091   3.205   4.761   4.602  0.2846 -0.2200  0.5189
  155MOL    H6428092   3.206   4.896   4.933  0.6762  0.7211 -0.3190
  155MOL    C6528093   3.174   4.941   4.487 -0.6131 -0.1182 -0.2672
  155MOL    C6628094   3.304   4.934   4.400 -0.4389 -0.3918 -0.3132
  155MOL    C6728095   3.320   5.069   4.324 -0.6838 -0.2145  0.0726
  155MOL    O6828096   3.254   5.112   4.227 -0.2794  0.3346 -0.0758
  155MOL    O6928097   3.426   5.139   4.380  1.1712 -0.3995  0.0527
  155MOL    H7028098   3.156   5.044   4.517 -0.9255 -0.3499  0.3625
  155MOL    H7128099   3.090   4.920   4.420 -0.7614  1.0245 -0.4547
  155MOL    H7228100   3.388   4.918   4.467 -0.5650 -2.2547 -0.5505
  155MOL    H7328101   3.448   5.223   4.344 -0.3848 -0.6065 -1.4328
  155MOL    C7428102   3.304   4.806   4.309 -0.1026  0.2338 -0.5306
  155MOL    C7528103   3.437   4.752   4.245  0.2976 -0.3005 -0.7156
  155MOL    C7628104   3.476   4.819   4.114 -0.3261 -0.0272 -0.0864
  155MOL    O7728105   3.387   4.844   4.027 -0.1359  0.7650 -0.3668
  155MOL    O7828106   3.610   4.839   4.101  0.1812 -0.2899  0.1531
  155MOL    H7928107   3.231   4.810   4.228 -0.5477 -3.6032 -0.4224
  155MOL    H8028108   3.264   4.733   4.379 -2.3706  0.5572 -1.4595
  155MOL    H8128109   3.517   4.776   4.315  1.3213  0.7116 -2.2137
  155MOL    H8228110   3.613   4.872   4.012 -0.4410  1.5839  0.8033
  155MOL    C8328111   3.421   4.600   4.231 -0.9407 -0.1781  0.0494
  155MOL    C8428112   3.555   4.521   4.206 -0.0385  0.9959 -0.0775
  155MOL    C8528113   3.527   4.386   4.139 -1.2403  0.2717  1.0814
  155MOL    O8628114   3.542   4.274   4.190 -0.2655  0.1038  0.1099
  155MOL    O8728115   3.463   4.410   4.026 -0.2919  0.5169 -0.2368
  155MOL    H8828116   3.353   4.583   4.148 -1.0356  1.3879 -0.2192
  155MOL    H8928117   3.372   4.549   4.314  0.0042 -0.4000  0.4728
  155MOL    H9028118   3.617   4.566   4.129 -1.2924  3.2639  0.1987
  155MOL    H9128119   3.448   4.323   3.991 -0.9299  1.8074 -3.3752
  155MOL    C9228120   3.632   4.506   4.337  0.9004 -0.3715 -0.3165
  155MOL    C9328121   3.775   4.447   4.323 -0.8209 -1.1324  0.5975
  155MOL    C9428122   3.793   4.346   4.434  0.1345  0.6592  0.2187
  155MOL    O9528123   3.795   4.226   4.421  0.5726  0.3376  0.1757
  155MOL    O9628124   3.810   4.409   4.550 -0.2431  0.6801 -0.1375
  155MOL    H9728125   3.568   4.446   4.403  1.3883 -0.5866 -0.0358
  155MOL    H9828126   3.649   4.604   4.382  0.3248 -0.0600 -0.7782
  155MOL    H9928127   3.785   4.396   4.227 -0.2202 -0.6269  0.3900
  155MOL   H10028128   3.837   4.345   4.615 -1.0996  0.9869  0.5277
  155MOL   C10128129   3.888   4.557   4.334  0.4597 -0.1401 -0.0670
  155MOL   C10228130   3.941   4.602   4.200 -0.0906 -0.0056 -0.2869
  155MOL   C10328131   4.030   4.493   4.137 -0.1092 -0.1516  0.3850
  155MOL   O10428132   4.154   4.476   4.164 -0.0908  0.3996 -0.1269
  155MOL   O10528133   3.953   4.415   4.059  0.1243 -0.2244 -0.5659
  155MOL   H10628134   3.976   4.516   4.385  0.9933  0.7758 -0.2375
  155MOL   H10728135   3.863   4.640   4.399 -0.9962 -1.3633  0.9700
  155MOL   H10828136   3.849   4.602   4.141  0.0722  2.6463 -0.6174
  155MOL   H10928137   4.005   4.336   4.057 -1.6897 -1.4240 -1.9891
  155MOL   C11028138   4.008   4.739   4.205 -0.0731 -0.2573  0.4735
  155MOL   C11128139   4.049   4.821   4.078 -0.3196  0.4265 -0.2257
  155MOL   C11228140   4.146   4.938   4.121  0.1228  0.0996 -0.1463
  155MOL   O11328141   4.126   4.994   4.230  0.1813  0.0816 -0.3741
  155MOL   O11428142   4.237   4.971   4.028  0.1130 -0.0021  0.0210
  155MOL   H11528143   4.090   4.726   4.276  0.9063  0.7975 -0.4470
  155MOL   H11628144   3.933   4.800   4.255 -1.3366 -1.5041  0.1489
  155MOL   H11728145   4.113   4.757   4.018 -0.6343 -1.3048  1.2632
  155MOL   H11828146   4.301   5.037   4.048  1.5580 -1.4716  0.3494
  155MOL   C11928147   3.933   4.879   3.998 -0.4803 -0.1402  1.1577
  155MOL   C12028148   3.963   4.884   3.846  0.3090  0.3055 -0.1347
  155MOL   C12128149   3.884   4.987   3.761 -0.0185 -0.0217  0.7338
  155MOL   O12228150   3.816   4.969   3.662 -0.2587  1.2407 -0.2890
  155MOL   O12328151   3.897   5.108   3.817  0.3588  0.1964 -0.4036
  155MOL   H12428152   3.893   4.970   4.042  0.6127  0.8527  0.1713
  155MOL   H12528153   3.850   4.809   4.006  1.0538 -2.4539 -1.8561
  155MOL   H12628154   4.068   4.913   3.835  0.2292  1.1001  1.1921
  155MOL   H12728155   3.855   5.167   3.756 -1.4586 -0.3095  0.3233
  155MOL   C12828156   3.958   4.739   3.781 -0.1780  0.4424  0.2475
  155MOL   C12928157   4.096   4.689   3.733 -0.3730 -0.2519  0.6253
  155MOL   C13028158   4.156   4.768   3.613  0.0276  0.4639  0.7511
  155MOL   O13128159   4.106   4.772   3.501  0.3687 -0.3977  0.4748
  155MOL   O13228160   4.259   4.850   3.649 -0.5697  0.5089 -0.4916
  155MOL   H13328161   3.893   4.734   3.694 -1.2755 -1.6066  1.1632
  155MOL   H13428162   3.921   4.676   3.861 -0.0238 -0.0535 -0.0711
  155MOL   H13528163   4.159   4.707   3.821  0.6884  0.8199 -0.3358
  155MOL   H13628164   4.276   4.907   3.576  0.4105 -0.9622 -1.4326
  155MOL   C13728165   4.094   4.536   3.699  0.0625  0.3116 -0.0651
  155MOL   C13828166   4.237   4.473   3.681  0.2675 -0.5876  0.3301
  155MOL   C13928167   4.245   4.399   3.547 -0.0841  0.0148 -0.0702
  155MOL   O14028168   4.262   4.278   3.539  0.0981  0.2350 -0.2530
  155MOL   O14128169   4.247   4.487   3.438  0.6053  0.6863 -0.5412
  155MOL   H14228170   4.038   4.538   3.605  0.1331  0.8672 -0.0976
  155MOL   H14328171   4.037   4.490   3.779 -2.0498  2.2616 -0.3912
  155MOL   H14428172   4.321   4.543   3.679 -0.5658  0.4189 -0.6348
  155MOL   H14528173   4.258   4.433   3.361 -0.8758 -2.5072  1.3468
  155MOL   C14628174   4.271   4.386   3.802 -0.2364  0.3950 -0.1480
  155MOL   C14728175   4.424   4.357   3.826  0.8071 -0.8051  0.3733
  155MOL   C14828176   4.438   4.235   3.912 -0.0184  0.4693 -0.5024
  155MOL   O14928177   4.356   4.197   3.990  0.1779 -0.1310  0.4216
  155MOL   O15028178   4.558   4.180   3.891 -0.4719  0.4412 -0.0517
  155MOL   H15128179   4.215   4.292   3.799 -0.3799  0.4892 -0.3873
  155MOL   H15228180   4.234   4.439   3.889 -0.2124 -1.3256  0.9372
  155MOL   H15328181   4.460   4.339   3.725 -1.9886 -1.0740 -0.6336
  155MOL   H15428182   4.597   4.222   3.816 -0.8370  0.6999 -0.0941
  155MOL   C15528183   4.512   4.474   3.872  0.1672  0.1736 -0.4933
  155MOL   C15628184   4.496   4.513   4.020  0.0081 -0.2588  0.3360
  155MOL   C15728185   4.442   4.656   4.019 -0.1611  0.1210  0.6078
  155MOL   O15828186   4.490   4.756   3.970  0.3129  0.0343 -0.2965
  155MOL   O15928187   4.330   4.669   4.093  1.0573  0.1128  0.2516
  155MOL   H16028188   4.482   4.559   3.811 -2.0536 -0.2889 -0.1149
  155MOL   H16128189   4.616   4.447   3.854  0.2188 -0.3165  0.4825
  155MOL   H16228190   4.418   4.451   4.063 -0.4324 -0.1482 -0.3106
  155MOL   H16328191   4.288   4.592   4.130  1.6328 -1.0395 -1.4313
  155MOL   C16428192   4.624   4.496   4.108 -0.1456  0.5947 -0.3284
  155MOL   C16528193   4.608   4.538   4.259  0.3652  0.3422 -0.1509
  155MOL   C16628194   4.746   4.556   4.331 -1.1196 -0.8217  0.2598
  155MOL   O16728195   4.771   4.496   4.434  0.0639  0.0479  0.0337
  155MOL   O16828196   4.823   4.655   4.279 -0.0564  0.2238 -0.6929
  155MOL   H16928197   4.713   4.540   4.063  0.8022 -3.2843 -2.4222
  155MOL   H17028198   4.655   4.393   4.123 -0.8608  0.2958 -0.8732
  155MOL   H17128199   4.556   4.634   4.264 -1.5686 -0.6881 -0.1243
  155MOL   H17228200   4.907   4.664   4.322 -0.2767  0.9983 -0.4248
  155MOL   C17328201   4.494   4.454   4.333  0.5602 -0.2114 -0.2245
  155MOL   C17428202   4.511   4.299   4.337  0.4094  0.2512  0.2501
  155MOL   C17528203   4.389   4.235   4.410 -0.1890 -0.5308 -0.0406
  155MOL   O17628204   4.312   4.299   4.475  0.0573 -0.1205  0.1778
  155MOL   O17728205   4.390   4.102   4.398 -0.1954 -0.0932  0.2264
  155MOL   H17828206   4.399   4.471   4.281 -0.1443  0.4165  1.2365
  155MOL   H17928207   4.475   4.498   4.430 -0.7501 -0.1223 -0.5036
  155MOL   H18028208   4.517   4.269   4.232  0.7343  2.9639 -0.5396
  155MOL   H18128209   4.319   4.062   4.446 -3.0679  3.4663 -0.8475
  155MOL   H18228210   4.608   4.278   4.382  1.1553 -0.5778 -1.6784
  156MOL     C128211   7.259   5.760   6.142  0.3286  0.0301 -0.7351
  156MOL     C228212   7.291   5.621   6.203 -0.1564  0.2125 -0.0008
  156MOL     C328213   7.347   5.637   6.344 -0.9055 -0.3302  0.6119
  156MOL     O428214   7.340   5.546   6.421  0.0565  0.0487 -0.5218
  156MOL     O528215   7.418   5.750   6.361  0.4181 -0.5520  0.4672
  156MOL     H628216   7.214   5.768   6.043  1.1874  0.6892 -1.0737
  156MOL     H728217   7.203   5.826   6.208  0.5593 -0.4650 -0.0352
  156MOL     H828218   7.200   5.564   6.222 -1.3957  1.6132 -1.6380
  156MOL     H928219   7.439   5.742   6.452 -0.4056  2.7248  1.0278
  156MOL    H1028220   7.349   5.819   6.129  0.1777  0.4520  0.0799
  156MOL    C1128221   7.369   5.529   6.116 -0.2590  0.1702 -0.2033
  156MOL    C1228222   7.523   5.518   6.126 -0.2006 -0.1323 -0.2413
  156MOL    C1328223   7.600   5.653   6.116 -0.5142 -0.0145  0.4400
  156MOL    O1428224   7.595   5.727   6.021 -0.4546  0.0802 -0.8780
  156MOL    O1528225   7.674   5.686   6.225 -0.7874  0.6986 -0.5217
  156MOL    H1628226   7.339   5.551   6.013  1.8069  2.1256 -0.4379
  156MOL    H1728227   7.332   5.428   6.134  2.6500 -0.8191  0.5291
  156MOL    H1828228   7.548   5.464   6.217  1.8891 -0.0401 -0.7424
  156MOL    H1928229   7.660   5.622   6.293  0.2375 -0.9829 -1.8730
  156MOL    C2028230   7.565   5.419   6.013 -0.4092  0.3306  0.5752
  156MOL    C2128231   7.715   5.358   6.022  0.1961  0.0958  0.0280
  156MOL    C2228232   7.751   5.256   5.907  0.1997 -0.5560 -0.0181
  156MOL    O2328233   7.678   5.228   5.814 -0.2016  0.5781  0.2267
  156MOL    O2428234   0.029   5.217   5.910  0.1769 -0.2322  0.4632
  156MOL    H2528235   7.560   5.465   5.914 -0.6737 -0.3978  0.2516
  156MOL    H2628236   7.500   5.332   6.014  0.0846 -0.0457  0.4523
  156MOL    H2728237   7.780   5.441   5.999 -1.9100  1.7857 -0.0074
  156MOL    H2828238   0.048   5.175   5.828  0.2609 -0.2312  0.4813
  156MOL    C2928239   7.757   5.301   6.165  0.1947 -0.3894 -0.0430
  156MOL    C3028240   7.690   5.163   6.198  0.0227  0.1460  0.0117
  156MOL    C3128241   7.541   5.180   6.232  0.0558 -0.6003  0.3803
  156MOL    O3228242   7.494   5.220   6.341 -0.4609  0.0400 -0.1101
  156MOL    O3328243   7.464   5.129   6.137  0.4652  0.2021 -0.7019
  156MOL    H3428244   7.740   5.386   6.231  1.3400  2.2818 -3.0489
  156MOL    H3528245   0.013   5.293   6.158  0.1729 -0.9116  0.1560
  156MOL    H3628246   7.690   5.106   6.105 -0.4507 -0.5428  0.4273
  156MOL    H3728247   7.379   5.139   6.178  1.0728 -1.7432  1.1863
  156MOL    C3828248   7.772   5.087   6.307  0.0709  0.1925 -0.7546
  156MOL    C3928249   7.777   4.931   6.309  0.3638 -0.0338 -0.2166
  156MOL    C4028250   7.649   4.859   6.347 -0.2695  0.6203  0.3355
  156MOL    O4128251   7.564   4.900   6.427  0.9556 -0.4656  0.3953
  156MOL    O4228252   7.640   4.744   6.272  0.2052 -0.4779  0.2109
  156MOL    H4328253   7.750   5.129   6.405 -1.9756  0.5272 -1.3321
  156MOL    H4428254   0.026   5.104   6.294  1.0788 -3.0621  2.4097
  156MOL    H4528255   7.808   4.901   6.208  0.7519 -0.3469 -0.0095
  156MOL    H4628256   7.550   4.716   6.281  0.5082 -1.3684  0.5448
  156MOL    C4728257   0.034   4.875   6.402  1.2111 -0.2111  0.2768
  156MOL    C4828258   0.148   4.817   6.320 -0.7544  0.1675  0.1202
  156MOL    C4928259   0.238   4.924   6.250  0.3283  0.2986  0.3463
  156MOL    O5028260   0.249   4.928   6.125  0.2621 -0.0755 -0.4145
  156MOL    O5128261   0.303   5.001   6.337 -0.2617  0.4522 -0.1340
  156MOL    H5228262   0.000   4.805   6.478  1.2982 -1.5023 -0.8523
  156MOL    H5328263   0.069   4.966   6.452 -0.8538  1.3684 -1.0728
  156MOL    H5428264   0.226   4.796   6.393  0.4398 -1.0657 -1.4715
  156MOL    H5528265   0.366   5.040   6.277  0.9963  0.2249  1.0338
  156MOL    C5628266   0.120   4.681   6.247 -0.6358 -0.3797  0.0610
  156MOL    C5728267   0.087   4.552   6.334  0.0803  0.0026  0.4748
  156MOL    C5828268   0.210   4.531   6.433  0.7569  0.6254 -0.1916
  156MOL    O5928269   0.328   4.553   6.397 -0.5999  0.0267  0.3528
  156MOL    O6028270   0.174   4.491   6.558 -0.0113 -0.1929 -0.0466
  156MOL    H6128271   0.212   4.653   6.196 -2.2439 -2.1411 -1.9740
  156MOL    H6228272   0.056   4.694   6.160 -0.2273 -3.7968 -0.8352
  156MOL    H6328273   7.849   4.562   6.393 -0.6766 -1.9329 -0.3061
  156MOL    H6428274   0.255   4.483   6.606 -0.1016  2.6599  0.6813
  156MOL    C6528275   0.047   4.440   6.243 -0.3477  0.0931  0.3151
  156MOL    C6628276   0.047   4.293   6.294 -0.4498  0.7450  0.2713
  156MOL    C6728277   7.800   4.264   6.404 -0.1984  0.3787 -0.0329
  156MOL    O6828278   7.825   4.227   6.517 -0.6732 -0.1925 -0.8534
  156MOL    O6928279   7.677   4.301   6.367 -0.2709  0.2998 -0.6848
  156MOL    H7028280   0.105   4.445   6.151 -0.6751  2.2872  0.2145
  156MOL    H7128281   7.809   4.474   6.193 -1.2701 -1.1226  1.1381
  156MOL    H7228282   0.010   4.238   6.208  0.8825 -1.4291  1.0548
  156MOL    H7328283   7.622   4.297   6.444  0.3651  0.2498 -0.2313
  156MOL    C7428284   0.188   4.232   6.328  0.4562  0.1038  1.0397
  156MOL    C7528285   0.191   4.078   6.320 -0.6243  0.2668 -0.1223
  156MOL    C7628286   0.231   4.011   6.455  0.8241 -0.0163 -0.1501
  156MOL    O7728287   0.352   3.995   6.484  0.1186  0.0455 -0.0555
  156MOL    O7828288   0.120   3.961   6.518 -0.4176  0.3526 -0.4141
  156MOL    H7928289   0.212   4.263   6.430 -0.5198  3.7620  0.2651
  156MOL    H8028290   0.272   4.281   6.278  0.8739 -0.2820  1.3563
  156MOL    H8128291   0.097   4.042   6.276 -1.2357  0.6422  0.8683
  156MOL    H8228292   0.156   3.907   6.587  0.1552 -0.7102 -1.5294
  156MOL    C8328293   0.300   4.036   6.208  0.1496  0.0537  0.1449
  156MOL    C8428294   0.338   3.893   6.164  0.2731  0.1159  0.8094
  156MOL    C8528295   0.476   3.848   6.198  0.0649 -0.4678 -0.2712
  156MOL    O8628296   0.575   3.907   6.158 -0.1589  0.0262  0.0981
  156MOL    O8728297   0.489   3.742   6.271  0.4847  0.0287 -0.4414
  156MOL    H8828298   0.397   4.080   6.229  0.1813 -0.0638  0.2460
  156MOL    H8928299   0.259   4.082   6.118 -0.0320 -0.2376  0.0796
  156MOL    H9028300   0.270   3.820   6.207  1.3438  0.4486  3.1563
  156MOL    H9128301   0.579   3.742   6.299  0.0702  2.2831  1.0266
  156MOL    C9228302   0.318   3.872   6.010  1.3601  0.0490  0.5631
  156MOL    C9328303   0.175   3.880   5.957  0.6849 -0.3653 -0.3891
  156MOL    C9428304   0.077   3.795   6.034  0.7471  1.1030  0.2576
  156MOL    O9528305   7.844   3.838   6.112  0.6129 -0.1309  0.0813
  156MOL    O9628306   0.081   3.665   5.993 -0.3141  0.2072  0.6726
  156MOL    H9728307   0.358   3.773   5.985  0.5060 -0.0707 -0.3521
  156MOL    H9828308   0.382   3.937   5.950 -1.0330  2.5006  0.5905
  156MOL    H9928309   0.129   3.978   5.972 -0.4702 -0.5826 -2.3639
  156MOL   H10028310   0.011   3.613   6.028 -2.8063  1.6332 -1.9253
  156MOL   C10128311   0.157   3.860   5.806  0.3690  0.1884 -0.4106
  156MOL   C10228312   0.192   3.987   5.711  0.4875 -0.0201  0.9313
  156MOL   C10328313   0.078   4.029   5.614  0.8865 -0.2402  0.1330
  156MOL   O10428314   0.094   4.071   5.505  0.3605 -0.3661  0.1369
  156MOL   O10528315   7.814   4.017   5.677  0.1258 -0.4156  0.4350
  156MOL   H10628316   0.054   3.830   5.786 -0.1930  2.5558 -1.1456
  156MOL   H10728317   0.216   3.773   5.776  0.8523  0.0395  0.9416
  156MOL   H10828318   0.197   4.070   5.780 -0.6770  0.9376 -0.1159
  156MOL   H10928319   7.744   4.035   5.615  1.8293  0.0595 -1.3906
  156MOL   C11028320   0.319   3.958   5.635 -0.2760 -0.1070  0.2341
  156MOL   C11128321   0.396   4.088   5.586  0.3163  0.1447 -0.0732
  156MOL   C11228322   0.497   4.053   5.475  0.1001 -0.6348  0.2652
  156MOL   O11328323   0.553   3.941   5.463  0.4991 -0.1391 -0.7278
  156MOL   O11428324   0.510   4.157   5.386 -0.1128  0.0519  0.5036
  156MOL   H11528325   0.299   3.884   5.557  0.7929  0.1518 -0.3065
  156MOL   H11628326   0.388   3.905   5.701 -1.1915 -1.0662  0.4388
  156MOL   H11728327   0.325   4.157   5.540 -0.4422  0.4858  1.5604
  156MOL   H11828328   0.452   4.232   5.393 -1.1944 -0.6536 -0.6886
  156MOL   C11928329   0.477   4.153   5.702  0.4498 -0.4522  0.5087
  156MOL   C12028330   0.516   4.310   5.698  0.6892 -0.1227  0.8749
  156MOL   C12128331   0.629   4.345   5.605  0.0281 -0.9254 -0.5002
  156MOL   O12228332   0.634   4.457   5.552 -0.0309  0.1130 -0.0579
  156MOL   O12328333   0.719   4.250   5.591  0.2966 -0.3210  0.2549
  156MOL   H12428334   0.557   4.083   5.728 -0.0278 -0.7379  1.2079
  156MOL   H12528335   0.408   4.145   5.785 -1.0675  0.7882 -0.6124
  156MOL   H12628336   0.428   4.365   5.663  0.0185 -1.1392  0.9411
  156MOL   H12728337   0.784   4.265   5.523 -0.4044  0.6223 -0.2093
  156MOL   C12828338   0.527   4.358   5.847 -0.5199 -0.0714 -0.3620
  156MOL   C12928339   0.663   4.333   5.925  0.9980  0.1260  0.5466
  156MOL   C13028340   0.692   4.181   5.937 -0.5009 -0.3431  0.2105
  156MOL   O13128341   0.788   4.113   5.891  0.2525 -0.4263  0.0011
  156MOL   O13228342   0.592   4.148   6.022 -0.2312  0.2739  0.1872
  156MOL   H13328343   0.445   4.317   5.907 -0.7836  3.7418  2.0744
  156MOL   H13428344   0.502   4.464   5.843 -0.0074  0.0805  0.3358
  156MOL   H13528345   0.742   4.376   5.863 -0.1566 -1.1354 -1.8917
  156MOL   H13628346   0.603   4.059   6.051 -1.6974 -0.6004 -1.8083
  156MOL   C13728347   0.637   4.407   6.066  0.5884  0.2468 -0.3379
  156MOL   C13828348   0.746   4.409   6.178  0.0880  0.6027  0.1758
  156MOL   C13928349   0.873   4.466   6.114  0.1765  0.2436 -0.1394
  156MOL   O14028350   0.942   4.398   6.032 -0.0931 -0.5239  0.0717
  156MOL   O14128351   0.892   4.602   6.148 -0.4324  0.8755 -0.3744
  156MOL   H14228352   0.541   4.385   6.114  0.0635  2.6440 -0.1749
  156MOL   H14328353   0.601   4.509   6.046 -2.4626 -0.5111  0.8855
  156MOL   H14428354   0.714   4.484   6.251 -0.2181 -0.1369  0.7978
  156MOL   H14528355   0.979   4.632   6.125  0.1424 -1.5912 -1.5214
  156MOL   C14628356   0.776   4.277   6.249 -0.1396 -0.3410  0.6393
  156MOL   C14728357   0.848   4.281   6.383  0.7764  0.4006  0.2295
  156MOL   C14828358   0.994   4.324   6.375 -0.6338 -0.1321 -0.2732
  156MOL   O14928359   1.088   4.249   6.375 -0.1430 -0.2814  0.4537
  156MOL   O15028360   1.009   4.457   6.385 -1.0019  0.0212  0.3646
  156MOL   H15128361   0.825   4.201   6.188 -1.1241  0.3072 -0.9788
  156MOL   H15228362   0.677   4.232   6.258 -0.7849  0.8353 -0.4956
  156MOL   H15328363   0.795   4.356   6.440 -1.8951 -1.4861  0.3513
  156MOL   H15428364   1.101   4.480   6.385 -1.1413  0.6230 -0.9960
  156MOL   C15528365   0.834   4.146   6.455 -0.4642 -0.3439  0.0270
  156MOL   C15628366   0.693   4.086   6.494 -0.7267  0.4732  0.1224
  156MOL   C15728367   0.646   4.141   6.632 -0.7020  0.2662 -0.4305
  156MOL   O15828368   0.723   4.174   6.723 -0.0292  0.0703 -0.2447
  156MOL   O15928369   0.512   4.147   6.637  0.1333 -0.0297 -0.0700
  156MOL   H16028370   0.904   4.152   6.538  3.2369 -0.7654 -2.9800
  156MOL   H16128371   0.873   4.074   6.384 -1.9370  0.3409 -1.5232
  156MOL   H16228372   0.620   4.120   6.421 -0.8358  1.8214  0.8454
  156MOL   H16328373   0.482   4.095   6.564 -2.0274 -1.1092  1.5231
  156MOL   C16428374   0.692   3.928   6.488  0.0242 -0.0198 -0.5918
  156MOL   C16528375   0.789   3.839   6.568  0.6792 -0.4249 -0.0097
  156MOL   C16628376   0.815   3.696   6.511  0.6948  0.3970  0.1251
  156MOL   O16728377   0.927   3.637   6.533  0.1286 -0.6416  0.0450
  156MOL   O16828378   0.713   3.651   6.435 -0.1916 -0.3037 -0.2474
  156MOL   H16928379   0.707   3.907   6.382  0.1683  0.9522 -0.7685
  156MOL   H17028380   0.593   3.886   6.507  1.0904 -2.0456  0.7111
  156MOL   H17128381   0.884   3.890   6.586  0.8776 -0.7744 -0.0649
  156MOL   H17228382   0.746   3.568   6.405 -1.7823 -1.5023  1.1829
  156MOL   C17328383   0.720   3.819   6.706 -0.9987  0.2089 -1.0105
  156MOL   C17428384   0.805   3.778   6.824  0.8252 -0.5547 -0.2779
  156MOL   C17528385   0.878   3.900   6.880  0.6323 -0.0087 -0.3009
  156MOL   O17628386   0.933   3.988   6.813  0.1471  0.2590 -0.0552
  156MOL   O17728387   0.889   3.882   7.018 -0.3117 -0.4248  0.1914
  156MOL   H17828388   0.642   3.745   6.692 -1.1317  0.4525 -1.5999
  156MOL   H17928389   0.673   3.910   6.745 -0.5028 -0.4882  1.2478
  156MOL   H18028390   0.755   3.738   6.912  2.1262  2.0480  1.7293
  156MOL   H18128391   0.929   3.952   7.067 -2.1975 -0.4972  1.9117
  156MOL   H18228392   0.888   3.713   6.798  3.5823  2.3790  0.7269
  157MOL     C128393   7.397   2.092   1.956  0.2523 -0.5378 -0.0698
  157MOL     C228394   7.490   2.205   2.002 -0.0059  0.2366 -0.1823
  157MOL     C328395   7.514   2.178   2.152 -0.3695  0.1719 -0.3866
  157MOL     O428396   7.631   2.165   2.195  0.3839  0.2876  0.0492
  157MOL     O528397   7.413   2.176   2.230 -0.3346  0.2497  0.1297
  157MOL     H628398   7.294   2.111   1.985  0.1931 -0.6099 -0.2315
  157MOL     H728399   7.383   2.093   1.848 -2.7405 -0.3215  0.2793
  157MOL     H828400   7.586   2.187   1.954 -0.4632 -0.0559 -0.9882
  157MOL     H928401   7.441   2.174   2.320  2.7775  1.7259 -0.7386
  157MOL    H1028402   7.417   1.990   1.989  0.0031 -0.2664  0.9205
  157MOL    C1128403   7.434   2.342   1.968 -0.2029  0.3320 -0.4107
  157MOL    C1228404   7.534   2.452   1.939  0.3057  0.2973  0.0982
  157MOL    C1328405   7.596   2.446   1.805  0.3285 -0.8241  0.7835
  157MOL    O1428406   7.604   2.344   1.735  0.2897  0.5594  0.3160
  157MOL    O1528407   7.635   2.570   1.769  0.5566  0.6592 -0.0230
  157MOL    H1628408   7.375   2.377   2.053  0.5903  3.5306 -1.1142
  157MOL    H1728409   7.365   2.329   1.884  0.2179 -4.3432 -0.1291
  157MOL    H1828410   7.472   2.541   1.935 -0.4712 -0.2523 -0.3175
  157MOL    H1928411   7.650   2.573   1.676 -2.2087 -1.5953 -0.6454
  157MOL    C2028412   7.645   2.458   2.048  0.1765 -0.2753  0.3774
  157MOL    C2128413   7.731   2.591   2.062  0.2887  0.5949  0.3614
  157MOL    C2228414   7.841   2.573   2.168  0.0946  0.3161 -0.8799
  157MOL    O2328415   7.840   2.636   2.275 -0.5581 -0.0852 -0.3309
  157MOL    O2428416   0.075   2.472   2.135 -0.4372  0.5142  0.0964
  157MOL    H2528417   7.713   2.373   2.044  0.7465  0.2061 -0.2190
  157MOL    H2628418   7.589   2.454   2.142  0.3648 -0.6626  0.4709
  157MOL    H2728419   7.785   2.593   1.968 -0.0896 -1.9983  0.0613
  157MOL    H2828420   0.069   2.432   2.050  1.8918  1.2414 -0.4518
  157MOL    C2928421   7.644   2.719   2.070  0.2517 -0.0798  0.1784
  157MOL    C3028422   7.721   2.848   2.043  0.1719  0.0671  0.2924
  157MOL    C3128423   7.623   2.957   2.087 -0.1272  0.5110 -0.9628
  157MOL    O3228424   7.515   2.973   2.028  0.2013 -0.6616 -0.0850
  157MOL    O3328425   7.681   3.044   2.173  0.0518 -0.2814  0.2686
  157MOL    H3428426   7.595   2.717   2.168  0.1887  0.3569  0.1529
  157MOL    H3528427   7.560   2.713   2.000 -0.9590  0.1003  1.5872
  157MOL    H3628428   7.813   2.848   2.102  1.8112 -0.3649 -2.1462
  157MOL    H3728429   7.629   3.123   2.181 -0.9095 -0.6127 -2.3220
  157MOL    C3828430   7.765   2.856   1.889  0.3748  0.1323 -0.3893
  157MOL    C3928431   0.004   2.982   1.853  0.2321  0.1269 -1.1632
  157MOL    C4028432   7.806   3.035   1.720 -0.0600 -0.1904 -1.0335
  157MOL    O4128433   7.838   2.981   1.614  0.1162  0.4175  0.1344
  157MOL    O4228434   7.701   3.123   1.741 -0.2838 -0.2035  0.0961
  157MOL    H4328435   7.668   2.847   1.840 -0.2329  0.5030  0.7298
  157MOL    H4428436   7.822   2.770   1.854  2.5721  0.8534  1.3388
  157MOL    H4528437   7.844   3.067   1.919 -0.3231  1.2366 -2.6880
  157MOL    H4628438   7.671   3.161   1.659  1.3694  2.5736  0.7166
  157MOL    C4728439   0.156   2.951   1.856  0.4466 -1.1864 -0.1711
  157MOL    C4828440   0.221   2.925   1.984 -0.6260 -0.2995 -0.0488
  157MOL    C4928441   0.219   3.041   2.089  0.8646  0.2542 -0.2968
  157MOL    O5028442   0.230   3.158   2.056 -0.2981 -0.1449  0.0135
  157MOL    O5128443   0.220   2.998   2.215 -0.0428  0.3340  0.5899
  157MOL    H5228444   0.208   3.033   1.806  1.7002 -2.6063 -1.2345
  157MOL    H5328445   0.178   2.864   1.795  1.7451 -0.5534 -0.6277
  157MOL    H5428446   0.159   2.844   2.023  0.0390 -0.1507  1.3492
  157MOL    H5528447   0.211   3.074   2.270 -1.3074  0.6751 -0.0715
  157MOL    C5628448   0.361   2.857   1.966  0.9141  0.6919  0.3989
  157MOL    C5728449   0.395   2.714   2.019 -0.0361 -0.0307  0.4705
  157MOL    C5828450   0.410   2.704   2.166  0.0692 -0.2203  0.6647
  157MOL    O5928451   0.492   2.765   2.226  0.0469  0.1853 -0.3126
  157MOL    O6028452   0.322   2.616   2.220  0.1894 -0.0762  0.3211
  157MOL    H6128453   0.428   2.923   2.021 -0.2773 -1.1067  4.2420
  157MOL    H6228454   0.381   2.868   1.860 -2.3022  1.3482 -0.1832
  157MOL    H6328455   0.304   2.660   1.991  2.6073 -3.8664 -1.1286
  157MOL    H6428456   0.337   2.626   2.313  3.1527 -0.6113 -0.0515
  157MOL    C6528457   0.506   2.649   1.933 -0.1623 -0.6871  0.3445
  157MOL    C6628458   0.464   2.526   1.848 -0.9396  0.1228 -0.0649
  157MOL    C6728459   0.395   2.573   1.721 -0.2756  0.3649  0.1902
  157MOL    O6828460   0.286   2.530   1.689  0.1251 -0.6733 -0.1115
  157MOL    O6928461   0.459   2.671   1.655 -0.2231  0.0027  0.0582
  157MOL    H7028462   0.581   2.623   2.008  1.3853  2.1990 -0.1088
  157MOL    H7128463   0.560   2.722   1.872 -0.4273  1.7680  2.9166
  157MOL    H7228464   0.553   2.477   1.808 -0.9917  1.0364 -1.3556
  157MOL    H7328465   0.397   2.717   1.601 -3.9258 -0.0987  3.8991
  157MOL    C7428466   0.393   2.415   1.926 -0.4033  0.3820 -0.4183
  157MOL    C7528467   0.459   2.350   2.045  0.3871 -0.3958 -0.4539
  157MOL    C7628468   0.590   2.279   2.002 -0.0388 -0.2466  0.0802
  157MOL    O7728469   0.601   2.162   1.967  0.0621 -0.9166 -0.3008
  157MOL    O7828470   0.696   2.363   2.031 -0.2366 -0.2000 -0.1425
  157MOL    H7928471   0.377   2.336   1.853 -1.6142  0.5909 -0.3898
  157MOL    H8028472   0.294   2.444   1.962 -0.2523  0.9574 -0.4551
  157MOL    H8128473   0.485   2.424   2.122  1.3662 -2.1775  0.9654
  157MOL    H8228474   0.775   2.311   2.035  0.8937  1.3262 -1.7740
  157MOL    C8328475   0.367   2.241   2.109 -0.5575 -0.1179  0.6932
  157MOL    C8428476   0.414   2.169   2.242 -0.4578  0.0280 -0.0960
  157MOL    C8528477   0.338   2.037   2.263 -0.6872  1.0061  0.0804
  157MOL    O8628478   0.386   1.931   2.304 -0.0936 -0.6202 -0.3192
  157MOL    O8728479   0.209   2.055   2.229 -0.2988 -0.2960 -0.0638
  157MOL    H8828480   0.345   2.176   2.024 -1.8437  0.1137  0.8308
  157MOL    H8928481   0.276   2.295   2.136 -0.4471  0.2737  0.2864
  157MOL    H9028482   0.515   2.131   2.231 -0.8505 -0.6650 -1.4405
  157MOL    H9128483   0.155   1.979   2.243 -0.3690 -0.2491 -0.0804
  157MOL    C9228484   0.407   2.256   2.369  0.4527  0.0873 -0.0782
  157MOL    C9328485   0.545   2.267   2.453  0.1677 -0.5072  0.0306
  157MOL    C9428486   0.522   2.243   2.604 -0.0221 -0.8964 -0.5333
  157MOL    O9528487   0.477   2.329   2.684 -0.1904 -0.0817  0.6791
  157MOL    O9628488   0.550   2.119   2.639 -0.2489 -0.0124 -0.5859
  157MOL    H9728489   0.324   2.232   2.435 -0.4534 -0.9563 -1.5757
  157MOL    H9828490   0.393   2.354   2.324 -1.1626  0.1836  0.6089
  157MOL    H9928491   0.609   2.188   2.414  0.3542 -0.8880  1.0844
  157MOL   H10028492   0.553   2.109   2.733 -0.8520  0.3774 -0.5212
  157MOL   C10128493   0.624   2.413   2.420 -0.4174 -0.4560  0.5124
  157MOL   C10228494   0.776   2.401   2.432 -0.1234  0.0491  0.5466
  157MOL   C10328495   0.831   2.538   2.466  0.2680 -0.1373  0.8248
  157MOL   O10428496   0.864   2.616   2.378 -0.1677 -0.2200  0.0082
  157MOL   O10528497   0.823   2.579   2.597 -0.0270  0.2154  0.6712
  157MOL   H10628498   0.586   2.492   2.484 -0.2841 -0.7918  1.0032
  157MOL   H10728499   0.603   2.455   2.321  2.9102  0.2281  0.0397
  157MOL   H10828500   0.791   2.333   2.515  3.3145  0.0217  0.0020
  157MOL   H10928501   0.848   2.669   2.609  2.4003 -0.5097  1.4275
  157MOL   C11028502   0.849   2.325   2.318 -0.1053 -0.1506  0.2666
  157MOL   C11128503   0.987   2.258   2.355  0.9850 -0.6875  0.8963
  157MOL   C11228504   0.970   2.158   2.469  0.0117  0.1771  0.1560
  157MOL   O11328505   1.007   2.188   2.578 -0.4669  0.2947 -0.0408
  157MOL   O11428506   0.899   2.051   2.439 -0.5302 -0.0277 -0.4837
  157MOL   H11528507   0.866   2.393   2.235  1.5026  1.0456  1.5432
  157MOL   H11628508   0.789   2.242   2.281 -1.9325  1.0196  0.5459
  157MOL   H11728509   0.997   2.201   2.262 -0.0485  0.9314 -0.2255
  157MOL   H11828510   0.889   2.005   2.521  0.0534  2.1618  0.8604
  157MOL   C11928511   1.098   2.362   2.377 -0.1309  1.0901  0.0290
  157MOL   C12028512   1.244   2.311   2.363 -0.2813 -0.7649 -0.3234
  157MOL   C12128513   1.346   2.409   2.422  0.4042  0.4862  0.2626
  157MOL   O12228514   1.371   2.516   2.373 -0.3300  0.3386 -0.4264
  157MOL   O12328515   1.435   2.351   2.504 -0.2892  0.4650 -0.0773
  157MOL   H12428516   1.092   2.399   2.480  0.3898 -1.6536  1.1006
  157MOL   H12528517   1.088   2.446   2.309 -2.4669 -0.1580 -1.2385
  157MOL   H12628518   1.267   2.217   2.414 -3.1773 -1.0639  0.5268
  157MOL   H12728519   1.518   2.397   2.510  1.0222 -1.8802  0.4909
  157MOL   C12828520   1.285   2.271   2.219 -0.2085 -0.2291 -0.3892
  157MOL   C12928521   1.269   2.118   2.174 -0.2770  0.5800  0.6094
  157MOL   C13028522   1.379   2.027   2.226  0.2986  0.6426 -0.0434
  157MOL   O13128523   1.476   2.072   2.283 -0.7151 -0.2569 -0.1581
  157MOL   O13228524   1.350   1.893   2.209  0.8576 -0.1210 -0.6671
  157MOL   H13328525   1.393   2.280   2.207 -0.0519  0.9676  1.8016
  157MOL   H13428526   1.260   2.352   2.151  0.0381  0.6742  0.5963
  157MOL   H13528527   1.174   2.075   2.206  0.1776 -1.9712 -1.3424
  157MOL   H13628528   1.405   1.837   2.261 -0.1194  0.2959  0.8337
  157MOL   C13728529   1.257   2.110   2.019  0.0648  0.6837  0.4601
  157MOL   C13828530   1.133   2.181   1.962  0.2287 -0.3281 -0.3139
  157MOL   C13928531   0.996   2.120   1.999 -0.3837 -0.1956  0.0577
  157MOL   O14028532   0.901   2.196   2.024 -0.2718  0.4251  0.4042
  157MOL   O14128533   0.989   1.984   2.009  0.5544 -0.9035 -0.5032
  157MOL   H14228534   1.256   2.006   1.989  2.1566  1.0708 -1.0347
  157MOL   H14328535   1.344   2.160   1.977  1.4235 -1.2079  0.9846
  157MOL   H14428536   1.126   2.280   2.007 -0.5891 -0.1043 -0.9145
  157MOL   H14528537   0.902   1.951   2.022 -0.9156  2.2321 -2.0300
  157MOL   C14628538   1.146   2.205   1.813 -0.0369  0.2749  0.6613
  157MOL   C14728539   1.052   2.301   1.747 -0.7753  0.3931  0.2752
  157MOL   C14828540   1.041   2.280   1.595  0.2604  1.2571 -0.0679
  157MOL   O14928541   1.099   2.339   1.508 -0.6102 -0.2258  0.3571
  157MOL   O15028542   0.972   2.165   1.571  0.1764  0.2459  0.3911
  157MOL   H15128543   1.120   2.110   1.766 -2.3822  1.1481  0.1435
  157MOL   H15228544   1.246   2.243   1.791  0.4140  0.4712  2.9019
  157MOL   H15328545   0.951   2.277   1.779  0.4480 -3.2981  1.6130
  157MOL   H15428546   0.974   2.135   1.482 -0.1926  0.9735  0.1279
  157MOL   C15528547   1.088   2.452   1.788  0.1272  0.7110  0.6547
  157MOL   C15628548   0.970   2.548   1.792 -0.4486 -0.5383  0.4521
  157MOL   C15728549   0.903   2.567   1.656 -0.1272 -0.0103  0.6074
  157MOL   O15828550   0.949   2.643   1.568  0.3065  0.0169 -0.4314
  157MOL   O15928551   0.788   2.494   1.636  0.1079 -0.2592  0.3114
  157MOL   H16028552   1.163   2.490   1.719 -1.6894  0.2108 -1.6971
  157MOL   H16128553   1.149   2.451   1.878  3.8742 -2.4110 -1.7538
  157MOL   H16228554   0.899   2.511   1.865 -0.4360 -1.5900 -0.0659
  157MOL   H16328555   0.743   2.502   1.554 -0.0437  4.0154  0.6967
  157MOL   C16428556   1.018   2.682   1.849  0.2223  0.9861  0.1445
  157MOL   C16528557   0.924   2.785   1.914  1.1219 -0.2335  0.1407
  157MOL   C16628558   0.860   2.745   2.047 -0.6170 -0.4187  0.0146
  157MOL   O16728559   0.764   2.803   2.098  0.7297 -1.0354  0.2618
  157MOL   O16828560   0.917   2.634   2.111  0.1203  0.1187 -0.5712
  157MOL   H16928561   1.079   2.729   1.773 -0.6280  0.0985 -1.0999
  157MOL   H17028562   1.093   2.665   1.926  2.5447  6.3079 -0.6960
  157MOL   H17128563   0.996   2.849   1.967  0.1473  0.9335  0.0882
  157MOL   H17228564   0.862   2.629   2.188  2.5576 -0.4594  1.1989
  157MOL   C17328565   0.830   2.867   1.826  0.7135 -0.4713  0.4089
  157MOL   C17428566   0.903   2.951   1.708  0.3120 -0.1646 -0.2923
  157MOL   C17528567   0.816   2.949   1.590  0.1512 -0.3972 -0.0167
  157MOL   O17628568   0.696   2.975   1.594  0.0940  0.3182  0.2249
  157MOL   O17728569   0.893   2.948   1.478 -0.3202  0.1758  0.2900
  157MOL   H17828570   0.773   2.939   1.884  1.5573  0.1287  0.5101
  157MOL   H17928571   0.746   2.812   1.784 -0.7100  1.3652  0.8117
  157MOL   H18028572   0.911   3.055   1.741  2.4010 -0.8598  1.5696
  157MOL   H18128573   0.843   2.948   1.397 -1.0764 -0.0872  0.7457
  157MOL   H18228574   1.004   2.916   1.687  0.4206 -0.9276  1.4002
  158MOL     C128575   5.889   3.026   3.727  0.4647 -0.3363  0.5968
  158MOL     C228576   5.990   3.139   3.693 -0.2684  0.3559 -0.6908
  158MOL     C328577   6.063   3.101   3.569  0.1273 -0.3380 -0.0952
  158MOL     O428578   6.151   3.011   3.560  0.0945 -0.4161  1.1314
  158MOL     O528579   6.001   3.153   3.461  0.8025 -0.1672  0.5938
  158MOL     H628580   5.936   2.934   3.761 -0.6979 -0.0632  3.0911
  158MOL     H728581   5.833   3.064   3.813 -1.3328  0.9251 -1.0766
  158MOL     H828582   5.931   3.231   3.682  1.3949  1.8448  2.2699
  158MOL     H928583   6.024   3.103   3.384  1.3171  0.1243  0.5547
  158MOL    H1028584   5.817   3.006   3.648  0.4440 -0.7517  0.7237
  158MOL    C1128585   6.086   3.162   3.818  0.1689 -0.8636 -0.1227
  158MOL    C1228586   6.053   3.284   3.918 -0.1177 -0.2090  0.1363
  158MOL    C1328587   5.903   3.272   3.961 -0.8537 -0.5044 -0.1061
  158MOL    O1428588   5.815   3.335   3.899  0.2273 -0.6290 -0.3170
  158MOL    O1528589   5.889   3.183   4.063  0.4673  0.3002  0.1279
  158MOL    H1628590   6.190   3.178   3.789  0.8414  1.5381  3.3015
  158MOL    H1728591   6.074   3.069   3.874  0.8102 -0.4909  0.6529
  158MOL    H1828592   6.110   3.275   4.010 -0.9616 -1.7816  0.5329
  158MOL    H1928593   5.798   3.165   4.080  0.3833  0.4701 -0.1398
  158MOL    C2028594   6.073   3.426   3.852 -0.2009  0.3772  0.0344
  158MOL    C2128595   6.224   3.471   3.846  0.4588  0.1314  0.4942
  158MOL    C2228596   6.265   3.534   3.985 -0.1459 -0.4678  0.6795
  158MOL    O2328597   6.223   3.644   4.025  0.4670  0.7588  0.2748
  158MOL    O2428598   6.341   3.454   4.066 -0.4454  0.5550  0.9215
  158MOL    H2528599   6.012   3.501   3.902 -0.7232 -0.6344  0.9398
  158MOL    H2628600   6.025   3.420   3.754  0.8770  0.5461 -0.5152
  158MOL    H2728601   6.285   3.383   3.825  0.8804  0.3351  0.8356
  158MOL    H2828602   6.338   3.496   4.151  1.6546  1.2342  0.7022
  158MOL    C2928603   6.232   3.572   3.731  0.4726 -0.1415 -0.0794
  158MOL    C3028604   6.372   3.646   3.725 -0.2867 -0.8102 -0.3811
  158MOL    C3128605   6.370   3.780   3.643 -0.1538 -0.2215  0.4157
  158MOL    O3228606   6.455   3.812   3.560  0.0550 -0.6220 -0.1364
  158MOL    O3328607   6.252   3.851   3.655  0.2702 -0.3894 -0.9481
  158MOL    H3428608   6.156   3.650   3.733  2.4251  1.7835  2.2870
  158MOL    H3528609   6.210   3.511   3.643  1.7144  1.3666 -1.4442
  158MOL    H3628610   6.388   3.679   3.827 -1.6855  0.7217 -0.6361
  158MOL    H3728611   6.272   3.935   3.618  1.0830  1.3021  3.0704
  158MOL    C3828612   6.485   3.556   3.676  0.1105 -0.3539  0.0819
  158MOL    C3928613   6.632   3.603   3.666 -0.1757  0.7185 -0.0415
  158MOL    C4028614   6.710   3.524   3.554  0.5438  0.1444  0.1797
  158MOL    O4128615   6.722   3.571   3.441  0.3189 -0.2900 -0.2766
  158MOL    O4228616   6.742   3.400   3.590 -0.3803  0.1376 -0.1215
  158MOL    H4328617   6.459   3.523   3.575  2.1893 -2.8183  0.2841
  158MOL    H4428618   6.473   3.462   3.730 -0.3483  0.2856  1.0879
  158MOL    H4528619   6.644   3.710   3.647  0.6783  0.0805 -3.3910
  158MOL    H4628620   6.802   3.358   3.529 -0.7363  0.8302 -0.9507
  158MOL    C4728621   6.703   3.578   3.807  0.0854 -0.4142  0.3816
  158MOL    C4828622   6.664   3.667   3.930 -0.0473 -0.2680  0.1501
  158MOL    C4928623   6.667   3.816   3.893  0.0466  0.1621  0.2455
  158MOL    O5028624   6.772   3.875   3.857 -0.7777 -0.1611  0.1889
  158MOL    O5128625   6.542   3.873   3.889  0.5002  0.5621 -0.2548
  158MOL    H5228626   6.810   3.585   3.787 -0.0910 -1.8875 -1.2001
  158MOL    H5328627   6.690   3.473   3.834 -0.3616 -0.3829  0.2943
  158MOL    H5428628   6.566   3.637   3.966 -1.1950  0.3096 -2.3607
  158MOL    H5528629   6.538   3.957   3.845  2.0070  0.7699 -0.0133
  158MOL    C5628630   6.761   3.647   4.046  0.4344  0.4702  0.2728
  158MOL    C5728631   6.729   3.713   4.183 -0.2891  0.7664  0.1841
  158MOL    C5828632   6.584   3.737   4.213  0.6536  0.0107 -0.5830
  158MOL    O5928633   6.507   3.650   4.234 -0.1819  0.5336 -0.0890
  158MOL    O6028634   6.550   3.867   4.204 -0.4869 -0.5953  0.1189
  158MOL    H6128635   6.868   3.655   4.028  0.3664 -0.4186 -0.5580
  158MOL    H6228636   6.748   3.541   4.070  0.5586  0.6321  1.0688
  158MOL    H6328637   6.740   3.632   4.255 -1.1321 -2.0027 -2.6403
  158MOL    H6428638   6.464   3.881   4.239 -1.2879 -1.7709 -1.3455
  158MOL    C6528639   6.819   3.832   4.212  0.1484  0.7485  0.4151
  158MOL    C6628640   6.961   3.795   4.262 -0.0555  0.2715 -0.2874
  158MOL    C6728641   6.968   3.736   4.397 -0.7990  0.4078 -0.3312
  158MOL    O6828642   6.869   3.741   4.471  0.0002 -0.3716 -0.4377
  158MOL    O6928643   7.080   3.662   4.426 -0.3053  0.0461  0.6002
  158MOL    H7028644   6.774   3.897   4.287 -0.8140 -0.4914  0.9286
  158MOL    H7128645   6.818   3.901   4.128 -2.8452  2.1712  1.5554
  158MOL    H7228646   7.001   3.727   4.187  0.9111  1.7676 -1.1599
  158MOL    H7328647   7.073   3.620   4.510 -0.9731 -0.4541  0.2982
  158MOL    C7428648   7.046   3.926   4.263 -0.5309  0.3900 -0.0888
  158MOL    C7528649   7.185   3.931   4.186  0.0948  0.4082 -0.4720
  158MOL    C7628650   7.301   3.876   4.262  0.4740 -0.1378 -0.3520
  158MOL    O7728651   7.325   3.896   4.383  0.7798  0.5920  0.5887
  158MOL    O7828652   7.365   3.784   4.185  0.4377  0.0053 -0.3354
  158MOL    H7928653   7.031   3.984   4.354 -1.5596  0.3754 -0.2327
  158MOL    H8028654   6.987   3.998   4.207 -0.3339  0.2085 -0.5370
  158MOL    H8128655   7.163   3.872   4.097  1.2824 -1.8196  0.6704
  158MOL    H8228656   7.421   3.726   4.234 -1.5366 -1.5487  0.1365
  158MOL    C8328657   7.221   4.072   4.133  0.1672  0.1913  0.3449
  158MOL    C8428658   7.336   4.071   4.038 -1.0150  0.2416 -0.4073
  158MOL    C8528659   7.417   4.206   4.035 -0.1572 -0.2934  0.1312
  158MOL    O8628660   7.466   4.256   3.935 -0.6538  0.2825 -0.5034
  158MOL    O8728661   7.433   4.259   4.161 -0.1833  0.1011  0.4131
  158MOL    H8828662   7.230   4.139   4.218 -1.6347 -0.4336  1.0542
  158MOL    H8928663   7.139   4.120   4.079 -0.4481 -1.1501  0.0831
  158MOL    H9028664   7.419   4.013   4.079 -0.1583  0.6537 -1.5172
  158MOL    H9128665   7.486   4.335   4.182 -0.7842  0.7568 -0.3952
  158MOL    C9228666   7.304   4.009   3.895 -0.6274 -0.2085 -0.3442
  158MOL    C9328667   7.406   3.894   3.861  0.2814  0.3910 -0.1826
  158MOL    C9428668   7.518   3.955   3.782  0.2631 -0.2392  0.7669
  158MOL    O9528669   7.618   3.990   3.840 -0.0851  0.3815 -0.5013
  158MOL    O9628670   7.499   3.964   3.646  0.6434 -0.3549 -0.0604
  158MOL    H9728671   7.282   4.075   3.811  1.1540  2.3628  1.1246
  158MOL    H9828672   7.208   3.957   3.903  0.6075 -2.7609 -1.5701
  158MOL    H9928673   7.447   3.848   3.951  2.4661  0.0620 -1.3237
  158MOL   H10028674   7.574   4.008   3.608  1.8327 -3.3655 -1.3401
  158MOL   C10128675   7.347   3.763   3.798 -0.4362  0.2527  0.1526
  158MOL   C10228676   7.236   3.792   3.688 -0.9682  0.0314 -0.0898
  158MOL   C10328677   7.093   3.769   3.737 -0.3992  0.1546  0.6327
  158MOL   O10428678   7.055   3.667   3.793  0.1070  0.2443 -0.5078
  158MOL   O10528679   7.021   3.882   3.730 -0.2926 -0.3004  0.6649
  158MOL   H10628680   7.324   3.698   3.882  1.4004 -0.4954  0.1008
  158MOL   H10728681   7.422   3.716   3.734  1.2083  2.1766  0.6008
  158MOL   H10828682   7.259   3.897   3.667 -0.9219 -0.1307 -0.8643
  158MOL   H10928683   6.943   3.865   3.781  0.1017 -1.3111  0.9398
  158MOL   C11028684   7.254   3.703   3.563  0.3352 -0.0555 -0.0518
  158MOL   C11128685   7.193   3.772   3.442  0.5219  0.1533  0.6554
  158MOL   C11228686   7.098   3.678   3.360 -0.2713  0.3961  0.8350
  158MOL   O11328687   7.111   3.642   3.246  0.5747 -0.0858  0.5619
  158MOL   O11428688   6.988   3.641   3.425  0.0870  0.7563  0.5678
  158MOL   H11528689   7.204   3.610   3.588 -0.2169  0.7674  1.9830
  158MOL   H11628690   7.359   3.684   3.538  0.3056  0.0926 -0.2916
  158MOL   H11728691   7.125   3.845   3.486  0.4721  0.4903  0.0151
  158MOL   H11828692   6.941   3.574   3.378  0.5594  0.2003  0.8853
  158MOL   C11928693   7.298   3.843   3.356  0.1665  0.5431  0.1141
  158MOL   C12028694   7.251   3.957   3.266  0.3038  0.8204  0.7778
  158MOL   C12128695   7.371   4.017   3.195 -1.0685 -0.1822  0.5516
  158MOL   O12228696   7.487   3.964   3.203  0.1393  0.2661 -0.0423
  158MOL   O12328697   7.338   4.116   3.107  0.5064 -0.1827  0.4454
  158MOL   H12428698   7.353   3.776   3.289 -0.8593  1.0634 -1.2669
  158MOL   H12528699   7.377   3.891   3.414 -0.1493 -0.5348  1.4600
  158MOL   H12628700   7.189   3.906   3.192 -1.3119  0.1463  2.5760
  158MOL   H12728701   7.246   4.132   3.121  0.2118 -0.4463 -1.0870
  158MOL   C12828702   7.175   4.077   3.341 -0.8405  0.1197 -1.7047
  158MOL   C12928703   7.019   4.066   3.319  0.7179 -0.0855 -0.1313
  158MOL   C13028704   6.983   4.103   3.170  0.4319 -0.9387 -1.1966
  158MOL   O13128705   6.893   4.059   3.102 -0.2797  0.8841  0.0967
  158MOL   O13228706   7.075   4.192   3.116  0.3374  0.3865 -0.7811
  158MOL   H13328707   7.196   4.182   3.320  0.4149  0.3818  0.6579
  158MOL   H13428708   7.207   4.077   3.446 -3.0599 -0.5425 -0.9955
  158MOL   H13528709   6.982   3.964   3.330  1.9301 -0.3989  1.1956
  158MOL   H13628710   7.044   4.206   3.028  0.4001 -2.7791 -1.3636
  158MOL   C13728711   6.933   4.148   3.417  0.1139 -0.7510 -0.5456
  158MOL   C13828712   6.776   4.157   3.399 -0.1591 -0.0765 -0.2247
  158MOL   C13928713   6.706   4.021   3.397 -0.5675 -0.1316  0.6834
  158MOL   O14028714   6.659   3.968   3.294 -0.5733  0.3748 -0.1605
  158MOL   O14128715   6.674   3.993   3.524  0.5581 -0.3195 -0.1952
  158MOL   H14228716   6.982   4.244   3.429  0.6184 -0.8786 -1.5387
  158MOL   H14328717   6.948   4.111   3.519 -1.2748  0.6832  0.1952
  158MOL   H14428718   6.750   4.202   3.495 -0.6246 -1.3876  0.2758
  158MOL   H14528719   6.613   3.921   3.525  2.5521 -2.1132 -1.8280
  158MOL   C14628720   6.737   4.255   3.285  0.4751 -0.3870 -0.2819
  158MOL   C14728721   6.623   4.343   3.327 -0.0663  0.3898 -0.2836
  158MOL   C14828722   6.491   4.266   3.368  0.3545  0.6760 -0.6371
  158MOL   O14928723   6.420   4.279   3.466  0.1359 -0.3722 -0.3764
  158MOL   O15028724   6.444   4.199   3.261  0.2857 -0.3115 -0.3131
  158MOL   H15128725   6.700   4.198   3.200  2.1387 -3.1493  0.7679
  158MOL   H15228726   6.831   4.305   3.263  1.1938 -0.4822  2.3450
  158MOL   H15328727   6.648   4.395   3.419 -0.3760  0.2827 -0.1378
  158MOL   H15428728   6.353   4.179   3.275 -0.0465 -1.0687 -3.1379
  158MOL   C15528729   6.601   4.447   3.210 -0.4595 -0.6677 -0.0769
  158MOL   C15628730   6.662   4.585   3.241 -0.5481  0.6526 -0.3678
  158MOL   C15728731   6.591   4.658   3.350 -0.1813 -0.5379 -0.4169
  158MOL   O15828732   6.473   4.652   3.364  0.3889  0.0276 -0.3286
  158MOL   O15928733   6.670   4.749   3.425 -0.4596 -0.4396 -0.4295
  158MOL   H16028734   6.497   4.477   3.204 -0.2359  0.8076  2.4013
  158MOL   H16128735   6.628   4.404   3.114 -2.3953 -0.1528 -0.8658
  158MOL   H16228736   6.767   4.575   3.268  0.2262  1.4512 -2.9163
  158MOL   H16328737   6.601   4.786   3.478  0.0364 -1.1562  0.7441
  158MOL   C16428738   6.684   4.664   3.113 -0.1117 -0.5209  0.4677
  158MOL   C16528739   6.566   4.734   3.037 -0.3144 -0.1263 -0.3727
  158MOL   C16628740   6.491   4.653   2.931 -0.1095  0.2715 -0.0618
  158MOL   O16728741   6.519   4.541   2.888  0.1723  0.6964  0.3405
  158MOL   O16828742   6.393   4.735   2.884  0.0709 -0.6389 -0.0706
  158MOL   H16928743   6.739   4.594   3.051  2.1724  0.5402  1.2296
  158MOL   H17028744   6.756   4.739   3.147 -0.1361  0.3010 -1.2192
  158MOL   H17128745   6.487   4.760   3.107  2.1436  1.7681  1.8165
  158MOL   H17228746   6.345   4.710   2.807  0.0432  0.1762 -0.3217
  158MOL   C17328747   6.608   4.869   2.974  0.4234  0.0289 -0.6049
  158MOL   C17428748   6.734   4.872   2.887 -0.1945  0.2723  0.3703
  158MOL   C17528749   6.759   5.008   2.820  0.1066  0.3600  0.3794
  158MOL   O17628750   6.709   5.107   2.860 -0.7371 -0.5898  0.3181
  158MOL   O17728751   6.848   5.004   2.711  0.3064  0.0868 -0.0721
  158MOL   H17828752   6.616   4.941   3.056  1.0124 -3.4419  2.5271
  158MOL   H17928753   6.533   4.911   2.907 -0.6142 -0.7898  0.0348
  158MOL   H18028754   6.824   4.853   2.945 -0.3598  0.0572  0.5579
  158MOL   H18128755   6.849   5.085   2.664  1.5866  0.0445 -0.1313
  158MOL   H18228756   6.717   4.798   2.809  2.3110  2.6747 -2.5838
  159MOL     C128757   7.731   5.576   1.617 -0.0136 -0.2211 -0.2794
  159MOL     C228758   7.696   5.434   1.671  0.6548 -0.6795 -1.0149
  159MOL     C328759   7.775   5.408   1.799 -0.5655  1.1170 -0.0901
  159MOL     O428760   0.045   5.424   1.813  0.1942  0.6304  0.4672
  159MOL     O528761   7.698   5.348   1.889  0.0783  0.6606  0.2676
  159MOL     H628762   7.698   5.609   1.518  1.8350  2.1192 -0.1463
  159MOL     H728763   7.664   5.647   1.664  0.3486 -0.8463  1.1989
  159MOL     H828764   7.589   5.430   1.691  0.4824 -1.3029 -2.0070
  159MOL     H928765   7.737   5.324   1.972  0.0895  2.2316  0.7308
  159MOL    H1028766   7.838   5.594   1.627  0.1097 -0.5948 -0.8370
  159MOL    C1128767   7.715   5.332   1.563  0.6360  0.5821 -0.8350
  159MOL    C1228768   7.671   5.185   1.586  0.0195 -0.8713  0.0927
  159MOL    C1328769   7.774   5.093   1.651  0.5252 -0.1060 -0.4961
  159MOL    O1428770   0.036   5.095   1.623 -0.6124 -0.1347 -0.0075
  159MOL    O1528771   7.720   5.014   1.749 -0.6059  0.5363  0.3895
  159MOL    H1628772   7.822   5.329   1.544  0.8536 -0.2909  0.4685
  159MOL    H1728773   7.668   5.376   1.476 -0.4422  0.3609 -0.3758
  159MOL    H1828774   7.588   5.195   1.657  0.5699  1.3070  0.4787
  159MOL    H1928775   7.790   4.954   1.769 -0.5421  0.6286  0.4392
  159MOL    C2028776   7.605   5.119   1.464  1.0892 -0.5528  0.4817
  159MOL    C2128777   7.512   4.996   1.480 -0.1652 -0.6611 -0.1843
  159MOL    C2228778   7.482   4.937   1.334  0.0193  0.5172  0.4935
  159MOL    O2328779   7.524   4.829   1.304 -0.1145 -0.3651 -0.5768
  159MOL    O2428780   7.432   5.030   1.251  0.0085 -0.1723 -0.2703
  159MOL    H2528781   7.679   5.087   1.391  1.3396 -1.4102  1.0979
  159MOL    H2628782   7.542   5.193   1.415  2.7786  0.3514 -0.3786
  159MOL    H2728783   7.575   4.912   1.509  0.6973 -0.2416 -0.8210
  159MOL    H2828784   7.435   4.997   1.162 -1.6882 -0.0466 -0.4034
  159MOL    C2928785   7.394   5.013   1.577 -0.4312 -0.2554 -0.1605
  159MOL    C3028786   7.361   4.889   1.663 -0.3636 -0.9563 -0.0688
  159MOL    C3128787   7.301   4.773   1.587  0.1915 -0.6047  0.1805
  159MOL    O3228788   7.372   4.695   1.519 -0.1553 -0.2365  0.6865
  159MOL    O3328789   7.168   4.764   1.593  0.3631 -0.0994 -0.3615
  159MOL    H3428790   7.305   5.030   1.515  0.9975  2.8279 -1.4679
  159MOL    H3528791   7.403   5.104   1.636 -1.8780 -0.7276  0.8012
  159MOL    H3628792   7.459   4.873   1.707 -0.2942  2.0142  0.9544
  159MOL    H3728793   7.134   4.687   1.550  1.5960 -1.0497  0.3182
  159MOL    C3828794   7.274   4.917   1.791  0.5852  0.7583  0.4629
  159MOL    C3928795   7.320   5.024   1.886 -0.0898 -0.0596 -0.5481
  159MOL    C4028796   7.459   5.010   1.950  0.6810 -0.0491 -0.4827
  159MOL    O4128797   7.541   5.102   1.966 -0.1047  0.0206  0.3218
  159MOL    O4228798   7.480   4.881   1.994 -0.0460 -0.2535 -0.1981
  159MOL    H4328799   7.275   4.827   1.853  1.7732  1.7890  1.9525
  159MOL    H4428800   7.167   4.928   1.771 -0.0033 -1.1247  2.3589
  159MOL    H4528801   7.320   5.121   1.837 -0.7996  0.0444 -0.3502
  159MOL    H4628802   7.569   4.873   2.025  1.0397  0.7492 -2.9396
  159MOL    C4728803   7.216   5.035   2.004  0.2057 -0.0482 -0.2786
  159MOL    C4828804   7.077   5.094   1.972 -0.0320 -0.8045 -0.0298
  159MOL    C4928805   7.070   5.245   1.940 -0.6089  0.0057  0.1139
  159MOL    O5028806   7.156   5.303   1.878  1.1994 -0.2486  0.1052
  159MOL    O5128807   6.967   5.318   1.997  0.0531  0.6040 -0.0179
  159MOL    H5228808   7.243   5.107   2.081  1.3266  1.5822 -2.1501
  159MOL    H5328809   7.213   4.941   2.059 -1.8087 -0.8627 -1.7119
  159MOL    H5428810   7.041   5.062   1.874 -2.1424  1.1589  0.0639
  159MOL    H5528811   6.980   5.411   1.984 -1.2350  0.4647 -2.6027
  159MOL    C5628812   6.982   5.042   2.079  0.1149 -0.9860 -0.1239
  159MOL    C5728813   6.908   4.908   2.063 -0.5918 -0.4813 -0.0241
  159MOL    C5828814   6.998   4.786   2.086  0.1241  0.0513  0.0557
  159MOL    O5928815   7.021   4.699   2.004  0.2585 -0.6860  0.1519
  159MOL    O6028816   7.035   4.766   2.217  0.1249  0.3653 -0.1385
  159MOL    H6128817   6.901   5.113   2.095  1.3415  0.2554  0.6678
  159MOL    H6228818   7.030   5.050   2.176 -0.0749  2.7011 -0.2902
  159MOL    H6328819   6.835   4.905   2.144 -1.8322 -1.5551 -1.1519
  159MOL    H6428820   7.087   4.691   2.240  0.7608  0.7085 -0.4368
  159MOL    C6528821   6.823   4.896   1.931 -0.7355  0.5630  0.0161
  159MOL    C6628822   6.704   4.993   1.918  0.0741  0.4240  0.0430
  159MOL    C6728823   6.597   4.956   2.018  0.7363 -0.4357  0.4082
  159MOL    O6828824   6.581   4.843   2.068 -0.5780  0.3797  0.1652
  159MOL    O6928825   6.515   5.062   2.039 -0.4162  0.1427 -0.1671
  159MOL    H7028826   6.793   4.793   1.913 -1.6694  0.4096  2.3194
  159MOL    H7128827   6.888   4.922   1.847  0.2281  2.2966  1.2618
  159MOL    H7228828   6.739   5.088   1.957  1.5773 -1.2489  2.9870
  159MOL    H7328829   6.453   5.031   2.103 -0.8600 -0.9177 -1.1016
  159MOL    C7428830   6.653   5.021   1.768  0.3899  0.3521 -0.3798
  159MOL    C7528831   6.598   4.895   1.697 -0.3701 -0.1928 -0.5126
  159MOL    C7628832   6.599   4.914   1.544 -0.0163  0.2549 -0.0245
  159MOL    O7728833   6.613   5.031   1.491  0.1499 -0.3296 -0.4906
  159MOL    O7828834   6.604   4.799   1.476  0.0383 -0.2446  0.0818
  159MOL    H7928835   6.733   5.087   1.732  1.4460  0.2165  1.6551
  159MOL    H8028836   6.569   5.091   1.776  2.3970  2.6523  1.4549
  159MOL    H8128837   6.689   4.835   1.704  0.1521  0.7324  0.8769
  159MOL    H8228838   6.605   4.828   1.386  1.0324  0.9014  0.4528
  159MOL    C8328839   6.474   4.816   1.755 -0.5815  0.0028  0.1347
  159MOL    C8428840   6.344   4.899   1.750  0.0737  0.2380  0.4361
  159MOL    C8528841   6.262   4.901   1.884 -0.1465  0.4892 -0.5893
  159MOL    O8628842   6.266   4.815   1.972 -0.7605 -0.6257  0.3491
  159MOL    O8728843   6.216   5.028   1.914 -0.1410  0.2701  0.3469
  159MOL    H8828844   6.493   4.768   1.851 -0.3508  0.3742  0.2777
  159MOL    H8928845   6.467   4.729   1.691  1.6885 -0.3859  0.3555
  159MOL    H9028846   6.371   5.005   1.754  0.1328  0.1984  1.2786
  159MOL    H9128847   6.227   5.096   1.850  0.4645 -2.0540 -2.1148
  159MOL    C9228848   6.250   4.889   1.625 -0.2153 -0.3016 -0.0426
  159MOL    C9328849   6.168   4.757   1.614 -0.2865  0.5299  0.1525
  159MOL    C9428850   6.260   4.640   1.588  0.0225 -0.5850  0.5575
  159MOL    O9528851   6.284   4.556   1.675 -0.6734  0.3557  0.7256
  159MOL    O9628852   6.321   4.648   1.470  0.1154 -0.8437 -0.0340
  159MOL    H9728853   6.294   4.910   1.527 -1.3317 -0.1753 -0.5272
  159MOL    H9828854   6.186   4.975   1.643  0.6064  0.7156 -1.8243
  159MOL    H9928855   6.131   4.740   1.715  1.7963  0.8831  1.0060
  159MOL   H10028856   6.393   4.589   1.452  1.4769  0.7861  0.0121
  159MOL   C10128857   6.054   4.759   1.522  0.0117  0.0405  0.2441
  159MOL   C10228858   5.936   4.663   1.553 -0.3159  0.0845 -0.3141
  159MOL   C10328859   5.853   4.660   1.426 -1.0255  0.2068  0.4992
  159MOL   O10428860   5.784   4.749   1.391 -0.1825 -0.2672 -0.1102
  159MOL   O10528861   5.884   4.546   1.352  0.0571  0.0530  0.4024
  159MOL   H10628862   6.081   4.733   1.419 -0.3173 -2.5036  0.7536
  159MOL   H10728863   6.015   4.861   1.524  0.5077  0.2434 -0.2642
  159MOL   H10828864   5.984   4.568   1.573 -0.4108  0.0794 -0.1146
  159MOL   H10928865   5.825   4.553   1.279  0.2230 -2.9346 -0.0778
  159MOL   C11028866   5.851   4.723   1.669  0.0232  0.3085  0.6007
  159MOL   C11128867   5.735   4.624   1.703  0.3609  0.2447 -0.2651
  159MOL   C11228868   5.609   4.676   1.637  0.3222 -0.3246 -0.3487
  159MOL   O11328869   5.553   4.637   1.536 -0.2197  0.3363  0.6137
  159MOL   O11428870   5.569   4.784   1.703 -0.3593 -0.4461 -0.1676
  159MOL   H11528871   5.829   4.829   1.666  1.2017  0.5343 -2.3842
  159MOL   H11628872   5.922   4.740   1.750  0.5701  1.6621 -0.1467
  159MOL   H11728873   5.738   4.522   1.666  0.3720 -0.5681  1.8818
  159MOL   H11828874   5.511   4.828   1.643  0.5530  0.3977 -0.4391
  159MOL   C11928875   5.724   4.607   1.858 -0.1179  0.5825 -0.1537
  159MOL   C12028876   5.854   4.547   1.928  0.3353  0.0357 -0.4067
  159MOL   C12128877   5.893   4.408   1.881  0.3322 -0.2039  0.9147
  159MOL   O12228878   6.010   4.367   1.884 -0.0102 -0.0426  0.5370
  159MOL   O12328879   5.779   4.335   1.846 -0.9198  0.3534  0.1678
  159MOL   H12428880   5.634   4.553   1.888 -1.2700  2.4346 -0.1863
  159MOL   H12528881   5.710   4.708   1.897  0.8702  0.2878  1.0067
  159MOL   H12628882   5.943   4.605   1.903  0.5068 -0.6129 -1.2867
  159MOL   H12728883   5.814   4.249   1.826  0.3216  1.4636 -2.8749
  159MOL   C12828884   5.829   4.550   2.087 -0.0070  0.7292 -0.5230
  159MOL   C12928885   5.851   4.684   2.165 -0.0888 -0.1929 -0.4576
  159MOL   C13028886   5.974   4.766   2.109 -0.1668  0.6769  0.1222
  159MOL   O13128887   5.955   4.865   2.036 -0.2035  0.1773  0.1652
  159MOL   O13228888   6.087   4.696   2.125 -0.0337 -0.1558  0.3643
  159MOL   H13328889   5.898   4.477   2.127 -1.2198 -0.6380 -0.8673
  159MOL   H13428890   5.736   4.505   2.124  0.5255 -0.4279 -0.5827
  159MOL   H13528891   5.759   4.736   2.135 -1.3657 -1.6304  0.8676
  159MOL   H13628892   6.160   4.738   2.083  0.1217  1.2923  2.0024
  159MOL   C13728893   5.847   4.673   2.324  0.8708  0.3675 -0.0157
  159MOL   C13828894   5.797   4.804   2.396 -0.6311  0.6725 -0.0533
  159MOL   C13928895   5.915   4.904   2.414  0.3461 -0.2653  0.8502
  159MOL   O14028896   6.028   4.870   2.455 -0.2116  0.2251  0.3975
  159MOL   O14128897   5.882   5.026   2.369 -0.0379  0.0265 -0.0720
  159MOL   H14228898   5.937   4.626   2.363  0.9645 -0.1194 -0.8271
  159MOL   H14328899   5.768   4.599   2.335 -1.2305  2.4116 -1.0271
  159MOL   H14428900   5.721   4.855   2.337  0.0692  1.6002 -0.1673
  159MOL   H14528901   5.939   5.098   2.390 -0.4277  0.7292 -1.3813
  159MOL   C14628902   5.750   4.778   2.539  0.6789  0.4874 -0.4526
  159MOL   C14728903   5.595   4.758   2.562 -0.8838  0.5345  0.6098
  159MOL   C14828904   5.503   4.872   2.510  0.7623  0.1070  0.5726
  159MOL   O14928905   5.517   4.991   2.518 -0.1291 -0.0212  0.2399
  159MOL   O15028906   5.389   4.822   2.450 -0.1236 -0.2237 -0.6996
  159MOL   H15128907   5.794   4.843   2.614 -2.5127  2.0596  0.1391
  159MOL   H15228908   5.794   4.687   2.577 -0.7707  0.2867  0.7891
  159MOL   H15328909   5.560   4.664   2.520  2.1511 -0.5747  0.4534
  159MOL   H15428910   5.327   4.890   2.426 -0.2441 -0.2509 -0.4760
  159MOL   C15528911   5.565   4.740   2.713  0.2778  0.4400 -0.0138
  159MOL   C15628912   5.424   4.707   2.767  0.2958 -0.1881 -0.3214
  159MOL   C15728913   5.416   4.733   2.916 -0.0081 -0.1047 -0.5069
  159MOL   O15828914   5.331   4.799   2.974 -0.4138  0.0565  0.4456
  159MOL   O15928915   5.493   4.651   2.986 -0.6299  0.5694 -0.3544
  159MOL   H16028916   5.606   4.827   2.766  1.3284 -0.2484  0.3309
  159MOL   H16128917   5.639   4.671   2.753  2.0259  0.7058 -2.6439
  159MOL   H16228918   5.355   4.770   2.712  0.5860 -0.3664 -0.8909
  159MOL   H16328919   5.480   4.657   3.079  1.4377 -2.2370  0.1722
  159MOL   C16428920   5.394   4.557   2.735  0.0795  0.2897  0.4136
  159MOL   C16528921   5.245   4.514   2.746 -0.3579 -0.1017 -0.6439
  159MOL   C16628922   5.246   4.368   2.798  0.3709  0.3454  0.7224
  159MOL   O16728923   5.301   4.273   2.746 -0.0731 -0.0830 -0.0781
  159MOL   O16828924   5.167   4.360   2.915  0.0736  0.3673  0.1428
  159MOL   H16928925   5.456   4.496   2.801  1.4343  1.0787 -0.0833
  159MOL   H17028926   5.439   4.541   2.637  0.5703  0.9387  0.5249
  159MOL   H17128927   5.202   4.577   2.824  2.3009 -0.3259  1.0335
  159MOL   H17228928   5.163   4.274   2.954 -1.5113 -0.1107 -1.0084
  159MOL   C17328929   5.164   4.539   2.617 -0.3168 -0.2917  0.7827
  159MOL   C17428930   5.224   4.474   2.486 -0.1475  0.1339  0.5097
  159MOL   C17528931   5.132   4.477   2.357 -1.0087 -0.5327  0.1435
  159MOL   O17628932   5.124   4.579   2.288 -0.2754  0.2832  0.0114
  159MOL   O17728933   5.063   4.360   2.342 -0.2081 -1.1285  0.8095
  159MOL   H17828934   5.156   4.646   2.595  0.2007  0.1077  2.4971
  159MOL   H17928935   5.061   4.503   2.626 -0.6993 -0.2306 -2.6109
  159MOL   H18028936   5.313   4.534   2.464  0.1639 -0.3136  0.5439
  159MOL   H18128937   4.998   4.377   2.276  0.8027 -0.5043 -0.0400
  159MOL   H18228938   5.252   4.374   2.519 -0.4101 -0.2161 -0.3318
  160MOL     C128939   4.774   6.762   0.349 -0.0997  0.5171 -0.3517
  160MOL     C228940   4.704   6.636   0.407 -0.8472 -0.1755 -0.2364
  160MOL     C328941   4.653   6.556   0.286 -0.0334 -0.5962 -0.1192
  160MOL     O428942   4.712   6.462   0.232 -0.3517  0.2465  0.3862
  160MOL     O528943   4.539   6.613   0.236 -0.5886 -0.3921  0.3701
  160MOL     H628944   4.841   6.810   0.420  2.1460 -1.2742 -1.2209
  160MOL     H728945   4.832   6.722   0.266  1.8186  1.3220  0.5844
  160MOL     H828946   4.778   6.576   0.460  1.2659  0.8078 -1.9834
  160MOL     H928947   4.510   6.562   0.162 -0.6789 -0.0099  0.1395
  160MOL    H1028948   4.693   6.829   0.318 -2.1191 -0.4534  2.6173
  160MOL    C1128949   4.593   6.679   0.506 -0.1008  0.0500 -1.0517
  160MOL    C1228950   4.642   6.682   0.652  0.5239 -0.7647  0.0560
  160MOL    C1328951   4.662   6.538   0.693 -0.9104 -0.8792 -0.0316
  160MOL    O1428952   4.580   6.454   0.677 -0.8261 -0.3044 -0.7348
  160MOL    O1528953   4.787   6.513   0.739  0.0304  0.2375 -0.3223
  160MOL    H1628954   4.503   6.619   0.497  0.2646 -0.5134 -0.9853
  160MOL    H1728955   4.562   6.775   0.465 -2.4291  0.2445  1.0817
  160MOL    H1828956   4.742   6.723   0.664 -0.3722  1.0197  1.8370
  160MOL    H1928957   4.812   6.427   0.769  0.3461  0.6801  0.7289
  160MOL    C2028958   4.536   6.761   0.736  0.1482 -0.0102 -0.2297
  160MOL    C2128959   4.512   6.905   0.692  0.7251  0.8994 -0.0699
  160MOL    C2228960   4.536   7.005   0.807 -0.0140 -0.6110 -0.3187
  160MOL    O2328961   4.502   6.983   0.926  0.4767 -0.3016 -0.4595
  160MOL    O2428962   4.591   7.119   0.753 -0.0269  0.2847 -0.0156
  160MOL    H2528963   4.555   6.749   0.843 -3.7202  0.2688  0.5567
  160MOL    H2628964   4.442   6.709   0.721 -0.8411  0.9703  2.2173
  160MOL    H2728965   4.588   6.929   0.618  0.5690 -0.7809 -0.7839
  160MOL    H2828966   4.616   7.185   0.815  2.1910  1.0409 -1.6542
  160MOL    C2928967   4.371   6.920   0.636  0.5317 -0.3385 -0.3114
  160MOL    C3028968   4.317   7.063   0.596 -0.6308  0.1335 -0.5142
  160MOL    C3128969   4.166   7.058   0.569  0.3236 -0.3704 -0.2600
  160MOL    O3228970   4.107   6.961   0.521 -0.0714 -0.5758  0.0720
  160MOL    O3328971   4.106   7.178   0.594  0.3816 -0.1877  0.1370
  160MOL    H3428972   4.299   6.885   0.710  0.3921 -0.1259 -0.3449
  160MOL    H3528973   4.361   6.869   0.540 -0.3773  2.2130 -1.6430
  160MOL    H3628974   4.328   7.136   0.677 -1.3684  0.4279 -0.6748
  160MOL    H3728975   4.013   7.164   0.586  0.7437 -1.2741 -2.4311
  160MOL    C3828976   4.398   7.125   0.475 -0.4678  1.1942  0.1215
  160MOL    C3928977   4.376   7.277   0.450 -0.3987 -0.6197 -0.1587
  160MOL    C4028978   4.447   7.313   0.315  0.2421 -0.0175  0.3028
  160MOL    O4128979   4.565   7.333   0.320 -0.4112  0.2420  0.2692
  160MOL    O4228980   4.367   7.319   0.204  0.2417 -0.5386  0.1005
  160MOL    H4328981   4.357   7.064   0.395 -0.3757  0.2612  0.7724
  160MOL    H4428982   4.503   7.097   0.481 -1.2717 -1.9133  1.0084
  160MOL    H4528983   4.269   7.296   0.438 -0.3795 -1.7356 -2.4751
  160MOL    H4628984   4.420   7.320   0.127  1.1441  0.2643  0.7251
  160MOL    C4728985   4.430   7.355   0.567 -0.0524  0.1882  0.1618
  160MOL    C4828986   4.414   7.505   0.556 -0.4818  0.1556 -0.1410
  160MOL    C4928987   4.479   7.557   0.681  0.3744 -0.8663  0.4215
  160MOL    O5028988   4.423   7.584   0.786  0.7986  0.0029 -0.2337
  160MOL    O5128989   4.616   7.560   0.671  0.0326 -0.2883 -0.0881
  160MOL    H5228990   4.536   7.332   0.577 -0.2393 -0.8608 -0.2123
  160MOL    H5328991   4.382   7.324   0.660 -0.2911  1.5443  0.5088
  160MOL    H5428992   4.477   7.543   0.476 -0.4110 -0.2503 -0.2782
  160MOL    H5528993   4.661   7.554   0.754  1.0213 -0.2774 -0.6104
  160MOL    C5628994   4.271   7.561   0.535 -0.0440  0.0419 -0.0969
  160MOL    C5728995   4.234   7.618   0.397 -0.0548 -0.2339 -0.4064
  160MOL    C5828996   4.298   7.751   0.365  0.1423  0.1644  0.5819
  160MOL    O5928997   4.372   7.766   0.270 -0.4161  0.3549  0.3067
  160MOL    O6028998   4.240   7.852   0.433 -0.8684  0.7286 -0.0594
  160MOL    H6128999   4.245   7.634   0.611  0.1511 -0.1957  0.1974
  160MOL    H6229000   4.193   7.490   0.562 -1.6218  1.4865 -0.7483
  160MOL    H6329001   4.269   7.546   0.323 -0.2324  1.1514 -1.8536
  160MOL    H6429002   4.271   0.083   0.402 -1.8343  0.3707 -2.0388
  160MOL    C6529003   4.078   7.631   0.385 -0.4271  0.7397  1.0014
  160MOL    C6629004   3.995   7.504   0.346  0.2153  0.0273 -0.8052
  160MOL    C6729005   4.048   7.439   0.219  0.6340  0.0151 -0.3030
  160MOL    O6829006   4.102   7.504   0.128  0.1033  0.1420  0.6709
  160MOL    O6929007   4.047   7.303   0.233 -0.6836 -0.1874  0.1839
  160MOL    H7029008   4.044   7.707   0.315  0.8755  0.4691  0.0501
  160MOL    H7129009   4.043   7.653   0.485  1.6882 -1.2965  2.2461
  160MOL    H7229010   4.013   7.431   0.425 -1.3324 -1.1224 -1.4908
  160MOL    H7329011   4.088   7.261   0.159  0.9736  0.5867  0.6443
  160MOL    C7429012   3.844   7.538   0.344 -0.0319  0.5516  1.0170
  160MOL    C7529013   3.759   7.546   0.473  0.1811 -0.2122 -0.5089
  160MOL    C7629014   3.706   7.404   0.505  0.6971 -0.1110  0.2249
  160MOL    O7729015   3.728   7.349   0.612  0.1908  0.1846 -0.2525
  160MOL    O7829016   3.636   7.347   0.401 -0.5637  0.3763 -0.1358
  160MOL    H7929017   3.790   7.485   0.266  0.3775 -0.4624  1.4122
  160MOL    H8029018   3.829   7.637   0.301 -2.1327  0.3110  1.1237
  160MOL    H8129019   3.839   7.561   0.546 -0.7497  2.3002  0.0401
  160MOL    H8229020   3.604   7.261   0.423  0.1432 -0.1845 -1.2730
  160MOL    C8329021   3.653   7.658   0.487 -0.0194 -0.0581 -0.6364
  160MOL    C8429022   3.683   7.792   0.572 -0.3240 -0.1756 -0.0636
  160MOL    C8529023   3.818   0.009   0.541 -0.3834 -0.3212  0.1521
  160MOL    O8629024   3.908   0.043   0.615 -0.2861  0.0249 -0.0921
  160MOL    O8729025   3.816   0.046   0.405  0.1767  0.2455  0.4179
  160MOL    H8829026   3.560   7.630   0.536  1.3181  0.8333  2.5114
  160MOL    H8929027   3.622   7.694   0.389  0.2233  2.9419  0.3395
  160MOL    H9029028   3.604   0.010   0.549  1.2294  2.2423  1.8392
  160MOL    H9129029   3.891   0.088   0.366 -0.3173  1.8875  1.1886
  160MOL    C9229030   3.667   7.783   0.722 -0.1988  0.4715  0.1805
  160MOL    C9329031   3.568   0.024   0.792  0.3521 -0.0342 -0.0816
  160MOL    C9429032   3.422   0.002   0.737 -0.1873 -0.2607 -0.0097
  160MOL    O9529033   3.359   0.090   0.689  0.2284 -0.5389  0.1806
  160MOL    O9629034   3.375   7.733   0.767 -0.2040 -0.4006 -0.0996
  160MOL    H9729035   3.767   7.769   0.763  0.4314 -0.0387 -1.4539
  160MOL    H9829036   3.640   7.679   0.744  1.9522 -0.4511 -1.2847
  160MOL    H9929037   3.559   7.848   0.897 -0.7434  1.0580  0.1377
  160MOL   H10029038   3.283   7.745   0.747  0.2027  2.0196 -0.7106
  160MOL   C10129039   3.611   0.171   0.791  0.2795  0.1563 -0.0868
  160MOL   C10229040   3.719   0.202   0.898 -0.2082  0.0577  0.2684
  160MOL   C10329041   3.652   0.190   1.038  0.5583 -0.3180  0.2930
  160MOL   O10429042   3.704   0.119   1.125  0.0397 -0.2027  0.1344
  160MOL   O10529043   3.547   0.282   1.055 -0.3216 -0.5780 -0.2013
  160MOL   H10629044   3.533   0.247   0.798  0.2111  0.2002 -1.2631
  160MOL   H10729045   3.661   0.192   0.697 -0.5051 -1.0242 -0.7707
  160MOL   H10829046   3.789   0.120   0.889  0.7153  1.0428 -1.9066
  160MOL   H10929047   3.514   0.260   1.141 -1.1785 -0.1522 -0.4226
  160MOL   C11029048   3.788   0.349   0.868  1.0470 -0.0420  0.4202
  160MOL   C11129049   3.888   0.402   0.975 -0.5698  0.1644  0.7851
  160MOL   C11229050   3.807   0.477   1.080  0.1161 -0.6492  0.5214
  160MOL   O11329051   3.749   0.581   1.060 -0.5938  0.3003 -0.7156
  160MOL   O11429052   3.802   0.402   1.195  0.1704  0.4968 -0.5337
  160MOL   H11529053   3.701   0.414   0.863 -1.6698 -3.4063  1.6569
  160MOL   H11629054   3.841   0.325   0.776 -0.3543  0.6942 -0.6018
  160MOL   H11729055   3.939   0.316   1.018  0.8374  2.0657  3.0171
  160MOL   H11829056   3.747   0.439   1.262 -0.0299  1.3930 -1.1915
  160MOL   C11929057   3.988   0.493   0.907 -0.1361 -0.6499 -0.4223
  160MOL   C12029058   4.120   0.526   0.998 -0.7934 -0.2873  0.5768
  160MOL   C12129059   4.128   0.676   1.036  0.1557  0.0979 -0.1884
  160MOL   O12229060   4.122   0.712   1.151  0.2566 -0.3210  0.2469
  160MOL   O12329061   4.135   0.755   0.927  0.4171  0.1263  0.2008
  160MOL   H12429062   3.931   0.582   0.879  2.0191  0.6112 -0.9000
  160MOL   H12529063   4.017   0.436   0.819  0.1107 -1.5358  0.2281
  160MOL   H12629064   4.100   0.480   1.095 -3.8265 -1.3563 -0.4987
  160MOL   H12729065   4.122   0.848   0.930 -0.4423  0.2075 -3.3125
  160MOL   C12829066   4.251   0.460   0.942 -0.3423 -0.1323 -0.0843
  160MOL   C12929067   4.270   0.319   0.994  0.3648  0.4171  0.8582
  160MOL   C13029068   4.339   0.343   1.127 -0.5006 -0.3110 -0.2406
  160MOL   O13129069   4.298   0.412   1.220  0.5405  0.4522 -0.0220
  160MOL   O13229070   4.460   0.281   1.132 -0.0581  0.3189 -0.2499
  160MOL   H13329071   4.338   0.520   0.970 -1.5507  0.9750  1.3610
  160MOL   H13429072   4.245   0.461   0.833 -0.0891 -1.7628 -0.1247
  160MOL   H13529073   4.174   0.271   1.014  0.5807  0.2191  1.4385
  160MOL   H13629074   4.506   0.316   1.207  1.4174 -0.3817 -0.7974
  160MOL   C13729075   4.365   0.233   0.902 -0.2348  0.4885 -0.4751
  160MOL   C13829076   4.337   0.220   0.754  0.5702  0.8460  0.2262
  160MOL   C13929077   4.191   0.167   0.742  0.3268 -0.0835 -0.1440
  160MOL   O14029078   4.139   0.090   0.826 -0.2371  0.1467 -0.0526
  160MOL   O14129079   4.139   0.209   0.626  1.0400  0.0485 -0.4658
  160MOL   H14229080   4.376   0.132   0.941  2.2950  1.4021  1.3216
  160MOL   H14329081   4.466   0.273   0.898 -0.8925  2.2471 -0.0440
  160MOL   H14429082   4.345   0.318   0.707  2.0456 -0.2632 -1.9341
  160MOL   H14529083   4.064   0.152   0.615  1.6931 -1.1220  0.9576
  160MOL   C14629084   4.445   0.127   0.689  0.5062 -0.1585 -0.2545
  160MOL   C14729085   4.594   0.156   0.693  0.2224  0.1008 -0.2171
  160MOL   C14829086   4.625   0.301   0.649 -0.0665 -0.0135 -1.1430
  160MOL   O14929087   4.627   0.337   0.530 -0.3122 -0.3365 -0.0533
  160MOL   O15029088   4.631   0.388   0.759 -0.1227 -0.0329  0.0204
  160MOL   H15129089   4.419   0.122   0.583 -2.2937  2.1220  0.2517
  160MOL   H15229090   4.426   0.025   0.724  0.4996 -0.3574 -0.8418
  160MOL   H15329091   4.629   0.156   0.796 -1.2170 -0.6882  0.2877
  160MOL   H15429092   4.639   0.480   0.743 -2.2010 -0.0463 -1.2556
  160MOL   C15529093   4.674   0.047   0.618 -0.1848 -0.0530  0.0361
  160MOL   C15629094   4.826   0.076   0.608 -0.1090  0.3491  0.3154
  160MOL   C15729095   4.902   7.820   0.530 -0.3983  0.6112  0.6502
  160MOL   O15829096   5.002   7.759   0.568  0.0788 -0.0075  0.2877
  160MOL   O15929097   4.838   7.803   0.412  0.4358 -0.3995  0.0476
  160MOL   H16029098   4.626   0.026   0.522  1.1359 -1.3738 -0.3317
  160MOL   H16129099   4.667   7.804   0.668 -1.8981  0.1783  0.2756
  160MOL   H16229100   4.833   0.166   0.547  1.0481 -0.0301 -0.1384
  160MOL   H16329101   4.870   7.730   0.362 -0.8413 -0.8285 -0.1630
  160MOL   C16429102   4.902   0.100   0.738  0.3820  0.3039  0.3301
  160MOL   C16529103   4.894   7.851   0.862 -0.0067  0.4181  0.0748
  160MOL   C16629104   4.773   0.025   0.959 -0.1708 -0.2618  0.9005
  160MOL   O16729105   4.764   0.108   1.045 -0.4515 -0.5743 -0.1082
  160MOL   O16829106   4.675   7.785   0.934  0.0200 -1.2860 -0.4475
  160MOL   H16929107   4.877   0.196   0.783 -2.3748 -0.3910  0.3329
  160MOL   H17029108   5.006   0.107   0.707 -0.2456 -0.9207 -2.1433
  160MOL   H17129109   4.876   7.755   0.813  0.5621 -0.6139  1.8457
  160MOL   H17229110   4.612   7.782   1.005  0.6609 -0.7548  0.1368
  160MOL   C17329111   5.023   7.842   0.948 -0.4469 -0.6325  0.5583
  160MOL   C17429112   5.034   7.711   1.025  0.1210  0.1332  0.5480
  160MOL   C17529113   5.141   7.716   1.141 -0.2878  0.1281  0.4357
  160MOL   O17629114   5.214   7.816   1.165 -0.1197  0.1836  1.0042
  160MOL   O17729115   5.150   7.593   1.212 -0.1477 -0.4443 -0.0961
  160MOL   H17829116   5.033   0.072   1.017 -0.2581 -1.1436  1.1539
  160MOL   H17929117   5.111   0.000   0.884 -0.5398 -0.4978  0.4536
  160MOL   H18029118   4.940   7.687   1.074  0.6387 -3.0064  0.1396
  160MOL   H18129119   5.207   7.590   1.287  0.5724 -1.6876 -0.6819
  160MOL   H18229120   5.061   7.629   0.958  0.0577  1.1629 -0.7470
  161MOL     C129121   0.131   2.945   2.572 -0.2337  0.4034  0.0755
  161MOL     C229122   0.239   2.846   2.610  0.0416  0.3840  0.2545
  161MOL     C329123   0.222   2.709   2.539  0.3091  0.5175  1.2133
  161MOL     O429124   0.313   2.667   2.474  0.3549  0.3328  0.2253
  161MOL     O529125   0.099   2.650   2.546  0.3924 -0.1247  0.3959
  161MOL     H629126   0.120   2.941   2.464  1.5139 -0.5909 -0.0839
  161MOL     H729127   0.032   2.926   2.613 -1.2710  1.0085 -2.1264
  161MOL     H829128   0.335   2.883   2.573 -0.0543  0.4828  0.1072
  161MOL     H929129   0.097   2.578   2.484  0.5128  1.2400 -1.2375
  161MOL    H1029130   0.168   3.044   2.601  2.0986 -0.7202  1.1310
  161MOL    C1129131   0.245   2.828   2.770 -0.5854 -0.0576  0.4989
  161MOL    C1229132   0.384   2.784   2.831  0.2804  0.1993  0.8803
  161MOL    C1329133   0.411   2.628   2.829 -0.7274 -0.5238  0.0284
  161MOL    O1429134   0.371   2.550   2.917  0.9197 -0.3870 -0.3503
  161MOL    O1529135   0.489   2.598   2.726  0.4114 -0.0776 -0.5799
  161MOL    H1629136   0.166   2.758   2.799 -1.1997  0.2287 -0.4374
  161MOL    H1729137   0.214   2.925   2.808  0.0744  0.6868 -0.8095
  161MOL    H1829138   0.469   2.827   2.778 -1.8747  0.5137 -2.4942
  161MOL    H1929139   0.514   2.507   2.729  2.8757  0.6090  3.0368
  161MOL    C2029140   0.390   2.838   2.977  0.2328  0.2284  0.0698
  161MOL    C2129141   0.431   2.992   2.974  0.5647  0.1677 -0.5554
  161MOL    C2229142   0.585   3.011   2.962  0.1421 -0.1291 -0.0053
  161MOL    O2329143   0.664   2.936   3.018  0.1315  0.6070  0.6754
  161MOL    O2429144   0.608   3.122   2.890  0.3364  0.7271  0.3746
  161MOL    H2529145   0.467   2.791   3.039  2.1538  2.0816 -0.8242
  161MOL    H2629146   0.289   2.812   3.008  0.0970 -1.3593 -1.6367
  161MOL    H2729147   0.386   3.040   2.887  0.4785  0.6804 -0.2305
  161MOL    H2829148   0.701   3.139   2.885  0.3177  0.2689 -2.2813
  161MOL    C2929149   0.389   3.069   3.103  0.4702  0.1817  0.1912
  161MOL    C3029150   0.237   3.110   3.117 -0.7327 -0.3654  0.8015
  161MOL    C3129151   0.196   3.206   3.001  0.3500 -0.7353 -0.7810
  161MOL    O3229152   0.264   3.290   2.948  0.1483  0.3505  0.4420
  161MOL    O3329153   0.066   3.174   2.965 -0.2112 -0.2871 -0.6832
  161MOL    H3429154   0.447   3.161   3.107 -1.4409  1.3593  2.0701
  161MOL    H3529155   0.433   3.012   3.185  0.5011  1.1751  0.8666
  161MOL    H3629156   0.175   3.023   3.099 -0.7965 -0.0719 -0.4644
  161MOL    H3729157   0.053   3.188   2.872  2.6101 -1.7867 -1.4009
  161MOL    C3829158   0.211   3.167   3.255 -0.2541  0.0847 -0.0910
  161MOL    C3929159   0.222   3.074   3.378 -0.1198  0.9050 -0.1850
  161MOL    C4029160   0.140   2.944   3.344  0.4236 -0.0255 -0.7465
  161MOL    O4129161   0.020   2.943   3.335 -0.4908 -0.2902 -0.0629
  161MOL    O4229162   0.213   2.831   3.317  0.1031  0.5564  0.0096
  161MOL    H4329163   0.116   3.219   3.251  0.4862  1.4875  0.2477
  161MOL    H4429164   0.292   3.239   3.272  1.7109 -1.7391 -1.4183
  161MOL    H4529165   0.319   3.029   3.396 -1.1675 -0.7402  1.5498
  161MOL    H4629166   0.163   2.756   3.288  0.1633  1.2984 -2.0927
  161MOL    C4729167   0.165   3.157   3.500 -0.0775 -0.7645  0.8131
  161MOL    C4829168   0.144   3.086   3.628 -0.1846  0.3971 -0.7338
  161MOL    C4929169   0.044   3.158   3.717  0.5589 -0.2617 -0.1670
  161MOL    O5029170   0.017   3.280   3.713 -0.4351 -0.6010  0.4153
  161MOL    O5129171   7.837   3.072   3.804  0.1571  0.7833 -0.5511
  161MOL    H5229172   0.070   3.200   3.467  0.9395  1.4400  0.6295
  161MOL    H5329173   0.231   3.238   3.531 -0.0693 -0.1963 -0.6216
  161MOL    H5429174   0.086   2.999   3.597 -0.3579  0.8600 -1.7314
  161MOL    H5529175   7.771   3.113   3.859 -0.8458 -4.5836  2.6576
  161MOL    C5629176   0.270   3.046   3.706 -0.2170  0.1566  0.7429
  161MOL    C5729177   0.313   2.907   3.690 -0.2659  0.1823  0.7591
  161MOL    C5829178   0.208   2.806   3.754 -0.2379  0.0212  0.0546
  161MOL    O5929179   0.166   2.812   3.874 -0.2686  0.0329  0.6200
  161MOL    O6029180   0.168   2.720   3.656 -0.2669  0.1520 -0.3057
  161MOL    H6129181   0.246   3.049   3.812  0.9051  3.5590  0.9368
  161MOL    H6229182   0.360   3.104   3.685 -1.1713  1.5048  0.3802
  161MOL    H6329183   0.305   2.898   3.581  4.1652 -0.3147  0.3743
  161MOL    H6429184   0.111   2.652   3.688  0.1490 -0.4374 -0.8094
  161MOL    C6529185   0.457   2.874   3.732 -0.0072 -0.4431 -0.3435
  161MOL    C6629186   0.571   2.887   3.623  0.2774  0.0981 -0.6739
  161MOL    C6729187   0.545   2.815   3.491  0.3547 -0.0952 -0.1800
  161MOL    O6829188   0.478   2.713   3.486  0.0972 -0.0897 -0.4603
  161MOL    O6929189   0.600   2.868   3.376 -0.2661 -0.1739  0.0862
  161MOL    H7029190   0.460   2.772   3.771  2.2893 -1.0488 -2.0077
  161MOL    H7129191   0.480   2.932   3.822 -2.2027  1.8976 -1.2575
  161MOL    H7229192   0.598   2.991   3.603 -0.8629  0.4233 -0.5692
  161MOL    H7329193   0.576   2.809   3.306 -0.1978  2.0181 -1.8522
  161MOL    C7429194   0.701   2.829   3.689 -0.0614  0.5178 -0.2752
  161MOL    C7529195   0.833   2.877   3.630 -0.2453  0.4410 -0.0331
  161MOL    C7629196   0.904   2.755   3.575 -0.1270 -0.1308  0.4571
  161MOL    O7729197   1.006   2.716   3.632 -0.7448 -0.1096  0.8169
  161MOL    O7829198   0.841   2.686   3.473 -0.0912  0.2036  0.3420
  161MOL    H7929199   0.687   2.721   3.684 -0.8197  0.4402  2.7439
  161MOL    H8029200   0.694   2.856   3.794  1.0563 -0.4399  0.0574
  161MOL    H8129201   0.813   2.939   3.542 -0.0617  0.0789 -0.3307
  161MOL    H8229202   0.893   2.612   3.444  4.1377  2.5899  1.4208
  161MOL    C8329203   0.913   2.965   3.731  0.5673  0.1046  0.4396
  161MOL    C8429204   0.973   3.087   3.662 -0.0115  0.3481 -0.4802
  161MOL    C8529205   1.093   3.044   3.574 -0.2471  0.1149 -0.4308
  161MOL    O8629206   1.210   3.030   3.608 -0.6048  0.2859 -0.0328
  161MOL    O8729207   1.055   3.022   3.443 -0.1687  0.1442  0.7085
  161MOL    H8829208   0.991   2.910   3.783 -1.1876 -2.3607  0.5621
  161MOL    H8929209   0.848   2.998   3.812 -0.2633  0.2913 -0.2953
  161MOL    H9029210   0.897   3.119   3.590 -1.2367  0.4892  0.8669
  161MOL    H9129211   1.133   2.987   3.402 -0.9937 -1.1422  0.2103
  161MOL    C9229212   1.009   3.198   3.764  0.1418  0.3231  0.2521
  161MOL    C9329213   0.904   3.305   3.789 -0.0980 -0.1703  0.4391
  161MOL    C9429214   0.784   3.241   3.859 -0.3164  0.6465  0.5661
  161MOL    O9529215   0.768   3.235   3.980  0.9085  0.0199 -0.3267
  161MOL    O9629216   0.693   3.191   3.771 -0.2259 -0.1821 -0.2616
  161MOL    H9729217   1.104   3.244   3.738 -0.0735 -0.4616 -2.1074
  161MOL    H9829218   1.030   3.150   3.859 -1.8111  0.7552  0.9264
  161MOL    H9929219   0.955   3.367   3.863 -1.6792  1.8684 -0.1312
  161MOL   H10029220   0.624   3.169   3.831  2.0591 -1.0364  2.1287
  161MOL   C10129221   0.862   3.400   3.675 -0.1164 -0.1623 -0.5676
  161MOL   C10229222   0.969   3.490   3.610  0.6196  0.4619 -0.3433
  161MOL   C10329223   0.990   3.618   3.689  0.1447 -0.0559  0.7368
  161MOL   O10429224   0.959   3.727   3.649  0.2783  0.1333 -0.2447
  161MOL   O10529225   1.047   3.593   3.809  0.4196  0.7329  0.2215
  161MOL   H10629226   0.777   3.458   3.711 -0.6287 -0.8509 -0.6784
  161MOL   H10729227   0.826   3.328   3.603 -0.8247 -0.7585  0.3692
  161MOL   H10829228   1.068   3.444   3.621 -0.3947 -1.6676  0.1710
  161MOL   H10929229   1.068   3.673   3.855  2.0433 -0.2573  1.2786
  161MOL   C11029230   0.940   3.510   3.464 -0.2703 -0.0991 -0.3062
  161MOL   C11129231   0.989   3.387   3.379 -0.0471  0.2451 -0.4037
  161MOL   C11229232   1.143   3.380   3.368 -0.2956  0.0755  0.2411
  161MOL   O11329233   1.215   3.475   3.377  0.4063  0.0454 -0.1842
  161MOL   O11429234   1.184   3.253   3.327 -0.0778  0.4864  0.0994
  161MOL   H11529235   1.006   3.592   3.435  0.6555 -0.9223 -0.5525
  161MOL   H11629236   0.839   3.543   3.442 -0.1656  1.2390  1.1188
  161MOL   H11729237   0.965   3.295   3.432 -0.6033  0.2548 -0.6333
  161MOL   H11829238   1.120   3.186   3.308 -0.3343  0.9011 -0.5383
  161MOL   C11929239   0.918   3.389   3.249  0.6220  0.6248 -0.3561
  161MOL   C12029240   0.783   3.322   3.261 -0.8619 -0.3086  0.0395
  161MOL   C12129241   0.787   3.172   3.281 -0.6815 -0.3662 -0.1080
  161MOL   O12229242   0.858   3.097   3.216 -0.5634  0.1828  0.0702
  161MOL   O12329243   0.703   3.135   3.382  0.1281  0.7074 -0.2917
  161MOL   H12429244   0.972   3.354   3.161 -1.0775 -1.2039 -0.7012
  161MOL   H12529245   0.889   3.490   3.224 -0.4330 -0.0790 -2.0508
  161MOL   H12629246   0.739   3.363   3.352  1.7524  1.6986  0.4441
  161MOL   H12729247   0.690   3.041   3.378 -1.2788  0.8069  1.2705
  161MOL   C12829248   0.699   3.354   3.130 -0.9515 -0.3221  0.1980
  161MOL   C12929249   0.623   3.486   3.137  0.2366  0.6869  0.3710
  161MOL   C13029250   0.492   3.481   3.215  0.3356 -0.5496 -0.1653
  161MOL   O13129251   0.380   3.495   3.162 -0.1642  0.6772  0.0474
  161MOL   O13229252   0.501   3.448   3.350 -0.3396 -0.0481  0.7264
  161MOL   H13329253   0.621   3.282   3.107 -1.5743  0.2304  0.5910
  161MOL   H13429254   0.759   3.328   3.043  0.2886 -3.2466  1.8135
  161MOL   H13529255   0.673   3.555   3.205 -0.4235  1.0527  0.4889
  161MOL   H13629256   0.415   3.427   3.383 -0.7997  0.6758  0.0055
  161MOL   C13729257   0.600   3.545   2.988  0.4429  0.4605 -0.5656
  161MOL   C13829258   0.723   3.601   2.917 -0.3009  0.3708 -0.5914
  161MOL   C13929259   0.778   3.736   2.974  0.1901 -0.5121  0.2164
  161MOL   O14029260   0.738   3.847   2.940 -0.2059  0.0052 -0.1352
  161MOL   O14129261   0.872   3.727   3.075  0.0393 -0.5118 -0.2718
  161MOL   H14229262   0.517   3.614   2.976 -0.6327 -0.4424  1.4948
  161MOL   H14329263   0.562   3.456   2.939 -0.4094  0.2329  0.5032
  161MOL   H14429264   0.810   3.536   2.928  0.2815  0.9796 -1.4660
  161MOL   H14529265   0.907   3.813   3.095 -0.9636 -0.5969  1.9806
  161MOL   C14629266   0.701   3.628   2.769 -0.5033  0.7055 -0.0079
  161MOL   C14729267   0.826   3.652   2.691 -0.3024  0.9031  0.0243
  161MOL   C14829268   0.795   3.730   2.565  0.2810  0.3287 -0.0398
  161MOL   O14929269   0.694   3.802   2.557 -0.5061 -0.1733  0.2126
  161MOL   O15029270   0.882   3.714   2.461 -0.1202  0.9638 -0.4488
  161MOL   H15129271   0.629   3.710   2.765 -0.7170  0.5324  0.2382
  161MOL   H15229272   0.660   3.539   2.723 -4.0938  1.8967  0.6843
  161MOL   H15329273   0.888   3.723   2.746  0.6681  1.0116 -1.1894
  161MOL   H15429274   0.848   3.732   2.374 -1.0618  1.6067  0.0409
  161MOL   C15529275   0.905   3.518   2.655  0.2742 -0.5773 -0.0150
  161MOL   C15629276   1.063   3.532   2.675 -0.4239  0.2068  0.1187
  161MOL   C15729277   1.101   3.553   2.819 -0.1796 -0.0000 -0.6229
  161MOL   O15829278   1.099   3.654   2.884  0.2186  0.5527  0.1965
  161MOL   O15929279   1.140   3.432   2.874 -0.1241 -0.4320  0.1032
  161MOL   H16029280   0.879   3.475   2.559 -1.3262  1.4040 -0.4990
  161MOL   H16129281   0.883   3.438   2.726 -3.5904  0.1829 -0.2750
  161MOL   H16229282   1.093   3.431   2.647 -1.5788 -0.3348  0.7754
  161MOL   H16329283   1.172   3.451   2.961 -2.0715  1.0133  0.5434
  161MOL   C16429284   1.140   3.622   2.581  0.3469  0.7270  0.5331
  161MOL   C16529285   1.295   3.591   2.561 -0.0719  0.2516  0.4897
  161MOL   C16629286   1.333   3.453   2.503  0.6064 -0.0041 -0.1097
  161MOL   O16729287   1.269   3.353   2.512 -0.3178  0.6486  0.4985
  161MOL   O16829288   1.450   3.458   2.443 -0.6752 -0.2032  0.3377
  161MOL   H16929289   1.139   3.726   2.612 -1.4992  1.2739 -1.2548
  161MOL   H17029290   1.098   3.612   2.481  1.2457  2.2287 -0.0120
  161MOL   H17129291   1.322   3.670   2.491 -0.8271  0.8238  0.8455
  161MOL   H17229292   1.489   3.376   2.417  3.0531  1.3287  0.7073
  161MOL   C17329293   1.382   3.630   2.680  0.2399 -0.4301 -0.0471
  161MOL   C17429294   1.533   3.661   2.650  0.2160 -0.0113  0.2408
  161MOL   C17529295   1.602   3.739   2.751 -0.2561  0.3420  0.3161
  161MOL   O17629296   1.556   3.770   2.859  0.0913 -0.0313 -0.2743
  161MOL   O17729297   1.728   3.769   2.696  0.2648  0.1412  0.1697
  161MOL   H17829298   1.383   3.550   2.755  0.1849  1.3482  1.8915
  161MOL   H17929299   1.327   3.702   2.740  0.6203 -0.1018 -0.0849
  161MOL   H18029300   1.588   3.569   2.629  2.1817  1.2090 -0.0190
  161MOL   H18129301   1.779   3.827   2.750 -2.2256 -0.5273  3.4131
  161MOL   H18229302   1.540   3.717   2.557 -1.3961  1.0143  0.7127
  162MOL     C129303   3.300   4.446   4.582 -0.5466  0.1719  0.0627
  162MOL     C229304   3.304   4.296   4.636  0.0610 -0.0623 -0.3820
  162MOL     C329305   3.378   4.201   4.543  0.2332 -0.2770 -0.1213
  162MOL     O429306   3.321   4.130   4.461  0.8989 -0.4255 -0.3081
  162MOL     O529307   3.512   4.207   4.557  0.5729 -0.1224 -0.1679
  162MOL     H629308   3.207   4.479   4.534  0.6598  1.8779 -1.1905
  162MOL     H729309   3.300   4.522   4.660 -2.0220  1.0103 -0.7223
  162MOL     H829310   3.366   4.304   4.725 -0.6144  0.2865  0.0665
  162MOL     H929311   3.561   4.149   4.501 -1.2074 -1.9298  0.0852
  162MOL    H1029312   3.385   4.471   4.518 -0.8265 -0.2826 -0.4931
  162MOL    C1129313   3.166   4.232   4.678  0.1824  0.0854  0.2857
  162MOL    C1229314   3.096   4.301   4.800  0.1441 -0.4143  0.7791
  162MOL    C1329315   3.172   4.264   4.933 -0.5383  0.9212 -0.2046
  162MOL    O1429316   3.259   4.336   4.984 -0.5981 -0.1601  0.5381
  162MOL    O1529317   3.141   4.144   4.990  0.0009  0.0162  0.1107
  162MOL    H1629318   3.180   4.130   4.712 -0.7106 -0.3641 -0.6637
  162MOL    H1729319   3.104   4.241   4.589  1.5694 -1.3972 -0.8549
  162MOL    H1829320   3.124   4.403   4.772 -2.8294 -0.3477 -2.1683
  162MOL    H1929321   3.192   4.119   5.066  0.3169 -0.6293 -0.3109
  162MOL    C2029322   2.939   4.292   4.818 -0.7042  0.1175  0.2144
  162MOL    C2129323   2.870   4.418   4.752 -0.0288 -0.3849  0.1244
  162MOL    C2229324   2.839   4.519   4.865 -0.2567 -0.6589  0.0226
  162MOL    O2329325   2.733   4.531   4.927 -0.1140  0.5587 -0.5387
  162MOL    O2429326   2.955   4.580   4.898  0.3706  0.3212 -0.5641
  162MOL    H2529327   2.915   4.281   4.924 -2.8065  0.7679 -0.1784
  162MOL    H2629328   2.912   4.200   4.766 -0.3243 -0.6853  1.4132
  162MOL    H2729329   2.936   4.463   4.677  0.2470  0.0467  0.6272
  162MOL    H2829330   2.936   4.630   4.976 -0.4610  1.3531 -1.4071
  162MOL    C2929331   2.736   4.385   4.685 -0.0686 -0.4127  0.4781
  162MOL    C3029332   2.749   4.292   4.561  0.3071 -0.7914 -0.2651
  162MOL    C3129333   2.826   4.348   4.449 -0.0920 -0.4819 -0.2738
  162MOL    O3229334   2.933   4.298   4.416  0.1749 -0.0689 -0.2450
  162MOL    O3329335   2.776   4.460   4.396 -0.3048 -0.2798  0.5291
  162MOL    H3429336   2.673   4.472   4.663 -0.0225 -0.1487  1.3694
  162MOL    H3529337   2.685   4.330   4.763  0.5775  0.3483  1.4606
  162MOL    H3629338   2.813   4.210   4.596  1.5890  0.1714 -0.3087
  162MOL    H3729339   2.832   4.489   4.326 -0.6458  0.5808  0.6047
  162MOL    C3829340   2.618   4.229   4.520  0.7838 -0.0648 -0.1240
  162MOL    C3929341   2.608   4.081   4.469  0.4428  0.6332 -0.8270
  162MOL    C4029342   2.648   4.060   4.323 -0.4945  0.2633  0.3419
  162MOL    O4129343   2.711   4.143   4.262 -0.2903  0.3979 -0.6436
  162MOL    O4229344   2.609   3.942   4.260 -0.2892  0.0246  0.4101
  162MOL    H4329345   2.577   4.302   4.449  0.5477 -1.3341 -1.3100
  162MOL    H4429346   2.555   4.240   4.608  0.1919 -1.2927 -0.3807
  162MOL    H4529347   2.696   4.035   4.514  0.5471  0.1623 -1.5010
  162MOL    H4629348   2.635   3.950   4.169  0.4702 -2.1497  0.3858
  162MOL    C4729349   2.464   4.017   4.492  0.0043 -0.2638 -0.0077
  162MOL    C4829350   2.408   4.016   4.638  0.3056  0.5860 -0.2501
  162MOL    C4929351   2.500   3.938   4.724  0.4050 -0.5152 -0.4487
  162MOL    O5029352   2.487   3.818   4.750 -0.6649 -0.0854 -0.5571
  162MOL    O5129353   2.606   4.010   4.770  0.1760 -0.8689  0.5283
  162MOL    H5229354   2.478   3.912   4.468  3.1372  0.1953 -0.3575
  162MOL    H5329355   2.391   4.063   4.425  0.9218 -1.7722 -2.0799
  162MOL    H5429356   2.409   4.115   4.685  1.3023  0.7331 -0.5743
  162MOL    H5529357   2.661   3.954   4.822  1.1589 -1.7769 -1.4384
  162MOL    C5629358   2.262   3.955   4.638 -1.1013  1.1249 -0.1037
  162MOL    C5729359   2.172   3.971   4.763  0.1450  1.0280  0.0251
  162MOL    C5829360   2.039   3.888   4.769 -0.1653 -0.3001 -0.1992
  162MOL    O5929361   1.999   3.817   4.682  0.3647  0.0322  0.0917
  162MOL    O6029362   1.966   3.924   4.881 -0.5026 -0.2513  0.4770
  162MOL    H6129363   2.270   3.848   4.620  1.9592  1.0592  1.3761
  162MOL    H6229364   2.211   3.986   4.547 -0.3008 -0.2390 -1.0283
  162MOL    H6329365   2.249   3.941   4.834  0.9243  1.6980 -0.5245
  162MOL    H6429366   1.888   3.872   4.877  0.3576 -1.6754  1.9409
  162MOL    C6529367   2.138   4.121   4.780 -0.0402  0.4701  0.3545
  162MOL    C6629368   2.172   4.196   4.908  0.6077 -0.4818  0.6848
  162MOL    C6729369   2.324   4.203   4.939  0.0392  0.3803  0.0272
  162MOL    O6829370   2.381   4.108   4.989  0.2968 -0.1383 -0.1519
  162MOL    O6929371   2.380   4.321   4.924  0.2665  0.6812  0.1030
  162MOL    H7029372   2.032   4.139   4.759 -0.0623 -1.7349 -1.6467
  162MOL    H7129373   2.175   4.173   4.692  1.2097  0.8271  1.0759
  162MOL    H7229374   2.140   4.300   4.895 -0.9433 -0.7847  1.8723
  162MOL    H7329375   2.471   4.315   4.948  0.5437  0.1596 -1.0314
  162MOL    C7429376   2.078   4.169   5.028 -0.5005 -0.3288  0.3564
  162MOL    C7529377   2.078   4.273   5.155 -0.7395 -0.0552 -1.3323
  162MOL    C7629378   2.209   4.262   5.236  0.0648  0.4264  0.2038
  162MOL    O7729379   2.285   4.356   5.260 -0.7586  0.1009  0.4155
  162MOL    O7829380   2.228   4.138   5.290 -0.2533 -0.5159  0.4280
  162MOL    H7929381   2.092   4.070   5.072  2.8031  0.5160  1.3214
  162MOL    H8029382   1.978   4.167   4.985 -0.9051 -0.1629  1.2637
  162MOL    H8129383   2.089   4.376   5.120  2.9123  0.0137 -0.2146
  162MOL    H8229384   2.305   4.121   5.341  1.0031 -1.4782 -1.7232
  162MOL    C8329385   1.956   4.263   5.249 -0.2396  0.6944 -0.0771
  162MOL    C8429386   1.822   4.303   5.183  0.4863  0.3599  0.5893
  162MOL    C8529387   1.838   4.447   5.117  0.1052  0.0583 -0.1027
  162MOL    O8629388   1.890   4.539   5.180 -0.3484  0.4035 -0.3497
  162MOL    O8729389   1.801   4.449   4.982 -0.0463  0.0383 -0.5814
  162MOL    H8829390   1.979   4.330   5.332 -0.8935  1.9434 -0.8814
  162MOL    H8929391   1.953   4.164   5.294  1.1164  0.8380  0.3769
  162MOL    H9029392   1.805   4.231   5.103 -0.8509  0.1260  1.0590
  162MOL    H9129393   1.800   4.539   4.953 -0.8871  0.3580  0.4373
  162MOL    C9229394   1.705   4.317   5.281 -0.1872 -0.2840  0.1096
  162MOL    C9329395   1.569   4.274   5.230 -0.1458  0.3679 -0.1927
  162MOL    C9429396   1.466   4.381   5.232 -0.3129  0.0849 -0.0816
  162MOL    O9529397   1.366   4.386   5.305 -0.2335 -0.4924  0.6170
  162MOL    O9629398   1.501   4.491   5.158 -0.6251 -0.0071 -0.7017
  162MOL    H9729399   1.708   4.408   5.340  0.0965  1.4983 -2.5643
  162MOL    H9829400   1.730   4.255   5.367  0.6601  1.9265  1.5117
  162MOL    H9929401   1.578   4.249   5.124 -1.6426  2.0133 -0.7259
  162MOL   H10029402   1.433   4.558   5.154  1.4406  2.0889 -1.8929
  162MOL   C10129403   1.521   4.143   5.291  0.6395 -0.2450  0.1825
  162MOL   C10229404   1.611   4.020   5.273  0.4831 -0.5973  1.3022
  162MOL   C10329405   1.607   3.973   5.123  0.3622 -0.4819 -0.7769
  162MOL   O10429406   1.707   3.969   5.052 -0.8714 -0.0124 -0.3054
  162MOL   O10529407   1.480   3.940   5.084 -0.0110  0.1030 -0.3945
  162MOL   H10629408   1.418   4.111   5.275  1.1885 -2.8184  1.5808
  162MOL   H10729409   1.518   4.154   5.400 -1.5197 -0.8004  0.2061
  162MOL   H10829410   1.718   4.037   5.289  0.7319  0.9105 -1.4944
  162MOL   H10929411   1.476   3.904   4.996 -2.0450  2.9039 -1.5385
  162MOL   C11029412   1.570   3.912   5.372  0.1229  0.4587  0.8186
  162MOL   C11129413   1.665   3.789   5.375 -0.0291 -0.0002  0.5161
  162MOL   C11229414   1.600   3.684   5.469 -0.1520 -0.1741  0.5152
  162MOL   O11329415   1.552   3.708   5.581 -0.0391  0.2816  0.3003
  162MOL   O11429416   1.610   3.557   5.416 -0.5549  0.1634  0.0157
  162MOL   H11529417   1.466   3.881   5.357  0.0173  1.5076 -0.7773
  162MOL   H11629418   1.573   3.950   5.474 -0.5004 -0.6558  1.2517
  162MOL   H11729419   1.683   3.747   5.276  0.5812  2.1242 -0.3026
  162MOL   H11829420   1.553   3.511   5.475  0.7069  0.8975  1.8411
  162MOL   C11929421   1.803   3.833   5.426  0.0322 -0.0006  0.3176
  162MOL   C12029422   1.931   3.754   5.371 -0.5881  0.0047 -0.1939
  162MOL   C12129423   1.921   3.606   5.408  0.1824  0.0487 -0.0676
  162MOL   O12229424   1.952   3.558   5.515  0.3446 -0.3770  0.1495
  162MOL   O12329425   1.868   3.531   5.307 -0.4254  0.4390  0.2163
  162MOL   H12429426   1.798   3.834   5.534  1.0170 -0.3939  0.3663
  162MOL   H12529427   1.838   3.933   5.401  0.8035  0.3060  2.5301
  162MOL   H12629428   1.939   3.751   5.262 -1.4991  0.6552 -0.2883
  162MOL   H12729429   1.870   3.441   5.335 -0.0916  0.2150 -0.5373
  162MOL   C12829430   2.065   3.820   5.420  0.0489  0.0073  0.2997
  162MOL   C12929431   2.192   3.747   5.388 -0.7558  0.0121 -0.3977
  162MOL   C13029432   2.309   3.777   5.483 -0.0614 -0.1060 -0.6516
  162MOL   O13129433   2.337   3.697   5.576 -0.0346 -0.0482  0.1940
  162MOL   O13229434   2.367   3.895   5.454 -0.3011  0.3032  0.2568
  162MOL   H13329435   2.066   3.833   5.528 -1.1906  0.3971  0.2799
  162MOL   H13429436   2.068   3.926   5.395  1.5847 -0.4989 -1.7600
  162MOL   H13529437   2.181   3.639   5.402 -2.0127  0.1065 -0.5661
  162MOL   H13629438   2.444   3.915   5.504 -1.3225  2.5125  0.9966
  162MOL   C13729439   2.223   3.758   5.236  0.5471  0.5311 -0.3037
  162MOL   C13829440   2.188   3.625   5.155  0.3292  0.8292  0.1366
  162MOL   C13929441   2.309   3.535   5.169 -0.4886  0.5148  0.5201
  162MOL   O14029442   2.412   3.561   5.111 -0.2069  0.3077  0.3987
  162MOL   O14129443   2.278   3.421   5.233  0.0322  0.0050 -0.0239
  162MOL   H14229444   2.326   3.790   5.220  0.3492  1.2938 -0.0526
  162MOL   H14329445   2.162   3.839   5.195 -1.1037 -0.6308 -0.1950
  162MOL   H14429446   2.093   3.584   5.189 -0.8935 -0.7947 -4.8551
  162MOL   H14529447   2.356   3.368   5.240  0.0909  0.0889 -0.0410
  162MOL   C14629448   2.163   3.678   5.004 -0.3424 -0.0446 -0.1684
  162MOL   C14729449   2.118   3.574   4.901 -0.4054 -0.5069 -0.7760
  162MOL   C14829450   1.976   3.525   4.941  0.8885 -0.1255 -0.6515
  162MOL   O14929451   1.878   3.587   4.903  0.2804  0.5954 -0.1544
  162MOL   O15029452   1.986   3.415   5.026 -0.5011  0.1316 -0.2017
  162MOL   H15129453   2.251   3.733   4.970 -2.3978  1.6640 -2.8973
  162MOL   H15229454   2.083   3.751   5.015 -2.9845 -2.6918 -1.1675
  162MOL   H15329455   2.095   3.629   4.810 -0.4496  0.7681 -0.0100
  162MOL   H15429456   1.895   3.390   5.037 -0.6271  0.6705 -0.0245
  162MOL   C15529457   2.210   3.445   4.866 -0.3660 -0.2015  0.3651
  162MOL   C15629458   2.216   3.396   4.721 -0.1994 -0.1297 -0.3574
  162MOL   C15729459   2.082   3.339   4.667 -0.0897 -0.0487 -0.3083
  162MOL   O15829460   2.006   3.269   4.736 -0.0036 -0.0592  0.0941
  162MOL   O15929461   2.070   3.366   4.533  0.1366  0.5567  0.0004
  162MOL   H16029462   2.186   3.354   4.922  1.9949 -0.5338  0.8935
  162MOL   H16129463   2.312   3.470   4.894  0.6382 -1.5705 -1.8833
  162MOL   H16229464   2.239   3.488   4.667  0.5529 -0.1684 -0.1142
  162MOL   H16329465   1.991   3.329   4.497 -0.9583  0.9936  1.8933
  162MOL   C16429466   2.324   3.291   4.703  0.3600 -0.3550 -1.2268
  162MOL   C16529467   2.349   3.238   4.559 -0.0892  0.1571  0.1569
  162MOL   C16629468   2.439   3.114   4.586 -0.2223  0.2646  0.7509
  162MOL   O16729469   2.393   3.004   4.582  0.0525  0.3282  0.9581
  162MOL   O16829470   2.569   3.138   4.624 -0.5573 -0.4267  0.0074
  162MOL   H16929471   2.307   3.208   4.772 -0.3740  2.9708  2.8277
  162MOL   H17029472   2.420   3.336   4.731  0.5016 -1.7755  0.6587
  162MOL   H17129473   2.261   3.201   4.507  1.6944  0.0270 -2.8584
  162MOL   H17229474   2.620   3.063   4.650  1.9289  0.9885 -0.6388
  162MOL   C17329475   2.407   3.338   4.460 -0.0660  0.3669  0.1133
  162MOL   C17429476   2.536   3.420   4.490 -0.5402 -0.6873  0.5983
  162MOL   C17529477   2.493   3.566   4.525  0.4145  0.5964 -0.5261
  162MOL   O17629478   2.475   3.656   4.449 -0.4346  0.4469 -0.4999
  162MOL   O17729479   2.457   3.585   4.656  0.0403  0.1163  0.3994
  162MOL   H17829480   2.327   3.411   4.450 -0.6837 -0.5303 -1.7128
  162MOL   H17929481   2.422   3.291   4.363  3.8508  1.1804  0.2428
  162MOL   H18029482   2.597   3.406   4.580 -1.9928 -0.2680  1.6773
  162MOL   H18129483   2.436   3.672   4.687  3.4770  1.6083 -1.2773
  162MOL   H18229484   2.612   3.423   4.412  0.6214 -0.0340  1.7241
  163MOL     C129485   2.374   0.129   5.145 -0.3988  0.2465 -0.3600
  163MOL     C229486   2.355   0.073   5.010 -0.5272 -0.3932 -0.3044
  163MOL     C329487   2.210   0.026   4.993 -0.1108  0.6323  0.4058
  163MOL     O429488   2.146   7.841   5.094 -0.3509  0.5555  0.2593
  163MOL     O529489   2.173   0.006   4.859 -0.0204  0.3206 -0.1588
  163MOL     H629490   2.292   0.193   5.178 -0.2468  0.3100 -0.1041
  163MOL     H729491   2.391   0.052   5.220  2.1252  0.6826 -0.4472
  163MOL     H829492   2.363   0.162   4.948  0.9609  0.3884  0.9865
  163MOL     H929493   2.115   7.789   4.832 -2.0755  1.7619  0.4092
  163MOL    H1029494   2.460   0.196   5.138 -0.5042  0.4264  0.0609
  163MOL    C1129495   2.464   7.818   4.977  0.4939 -0.3537  0.3896
  163MOL    C1229496   2.501   7.822   4.825  0.8781  0.3900  0.2623
  163MOL    C1329497   2.544   7.680   4.787  0.2239 -0.0017  0.3526
  163MOL    O1429498   2.499   7.612   4.693  0.2430  0.6137 -1.0380
  163MOL    O1529499   2.659   7.646   4.866  0.1831  0.0911  0.4299
  163MOL    H1629500   2.423   7.723   5.010  0.3572 -0.3156  0.3300
  163MOL    H1729501   2.552   7.835   5.038 -0.6770 -2.0532  2.5875
  163MOL    H1829502   2.408   7.845   4.773  0.7491 -2.7807 -0.9780
  163MOL    H1929503   2.708   7.569   4.843 -0.4130 -0.1808  0.0570
  163MOL    C2029504   2.611   0.072   4.787  0.0006  0.1953  0.0129
  163MOL    C2129505   2.608   0.121   4.642 -0.2724 -0.0075  0.6444
  163MOL    C2229506   2.686   0.029   4.550  0.1363  0.5168 -0.0567
  163MOL    O2329507   2.795   7.833   4.583 -0.0482  0.5881 -0.2511
  163MOL    O2429508   2.609   0.000   4.442  0.3727  0.9445 -0.4995
  163MOL    H2529509   2.707   0.041   4.828 -0.0102  1.8883  1.3883
  163MOL    H2629510   2.597   0.156   4.855  1.3556 -1.3970  2.3206
  163MOL    H2729511   2.504   0.116   4.611 -0.1309 -1.1065  0.3288
  163MOL    H2829512   2.525   0.043   4.434 -0.2601 -0.5234 -2.1378
  163MOL    C2929513   2.627   0.275   4.627 -0.2895  0.1128 -0.2451
  163MOL    C3029514   2.490   0.351   4.648 -1.0390 -0.1765 -0.0398
  163MOL    C3129515   2.394   0.342   4.525 -0.3154 -1.0109  0.0906
  163MOL    O3229516   2.441   0.304   4.415  0.1677  0.6361 -0.1448
  163MOL    O3329517   2.267   0.378   4.552  0.1788  0.0821 -0.3079
  163MOL    H3429518   2.657   0.294   4.524 -1.5057 -1.0637 -0.8368
  163MOL    H3529519   2.700   0.321   4.693  0.3275  0.8116 -1.3986
  163MOL    H3629520   2.446   0.308   4.738 -0.6281  0.5358  0.5115
  163MOL    H3729521   2.204   0.385   4.482  0.2148  0.3216 -0.3173
  163MOL    C3829522   2.518   0.500   4.668 -0.5546  0.0937 -0.0888
  163MOL    C3929523   2.537   0.552   4.815  0.1902  0.4975 -0.2393
  163MOL    C4029524   2.406   0.545   4.894  0.4852  0.2937 -0.5816
  163MOL    O4129525   2.385   0.460   4.985 -0.2150 -0.3155 -0.2702
  163MOL    O4229526   2.327   0.652   4.863  0.5237 -0.1404  0.2664
  163MOL    H4329527   2.444   0.561   4.616  0.0532 -0.7465 -2.0000
  163MOL    H4429528   2.609   0.511   4.609  0.4646 -2.4103  0.9720
  163MOL    H4529529   2.608   0.492   4.873  0.3646  0.4206 -0.5307
  163MOL    H4629530   2.241   0.636   4.898  0.7516  0.2007  0.9747
  163MOL    C4729531   2.589   0.697   4.817  0.7869  0.4468  0.4216
  163MOL    C4829532   2.532   0.799   4.708 -0.1756 -0.2404  0.0115
  163MOL    C4929533   2.623   0.791   4.588 -0.2675 -0.9175  0.7204
  163MOL    O5029534   2.589   0.744   4.480 -0.4571  0.3320  0.3698
  163MOL    O5129535   2.738   0.865   4.602  0.3527 -0.4502 -0.0853
  163MOL    H5229536   2.697   0.701   4.810  0.7005  2.2228 -0.1777
  163MOL    H5329537   2.557   0.741   4.912  0.3311 -0.3519  0.6454
  163MOL    H5429538   2.436   0.763   4.671 -0.2310  0.2708 -0.3445
  163MOL    H5529539   2.787   0.871   4.522  0.6966  0.7029  0.1991
  163MOL    C5629540   2.497   0.948   4.757  0.0133  0.3119  0.1322
  163MOL    C5729541   2.365   1.007   4.702 -0.0505 -0.4912 -0.6730
  163MOL    C5829542   2.245   0.935   4.764  0.5658 -0.0460 -0.2101
  163MOL    O5929543   2.173   0.856   4.698 -0.3460 -0.7976 -0.4872
  163MOL    O6029544   2.216   0.962   4.895 -0.5001  0.5662  0.0988
  163MOL    H6129545   2.588   1.007   4.745  0.4355 -0.1634  0.9755
  163MOL    H6229546   2.478   0.948   4.864 -3.3230  2.4787 -0.3790
  163MOL    H6329547   2.367   1.106   4.748  1.1593 -1.3151  1.0857
  163MOL    H6429548   2.132   0.923   4.914 -0.6670 -0.6720 -3.0519
  163MOL    C6529549   2.360   1.021   4.549  0.3205  0.5568 -0.3480
  163MOL    C6629550   2.467   1.115   4.480 -0.2745  0.2400 -0.4037
  163MOL    C6729551   2.429   1.257   4.525  0.1858 -0.8102 -0.2138
  163MOL    O6829552   2.482   1.316   4.615  0.0485 -0.3569 -0.1445
  163MOL    O6929553   2.338   1.315   4.451  0.0083 -0.0913  0.2576
  163MOL    H7029554   2.260   1.055   4.523  0.3040 -0.3755 -1.5443
  163MOL    H7129555   2.370   0.922   4.504 -3.2739 -0.6054  1.2175
  163MOL    H7229556   2.566   1.084   4.513 -0.5258 -1.5964 -1.2989
  163MOL    H7329557   2.323   1.405   4.479  0.9810 -0.2039  1.1950
  163MOL    C7429558   2.476   1.089   4.329  0.3456  0.7662  0.5755
  163MOL    C7529559   2.607   1.150   4.258  0.2653  0.0643  0.0199
  163MOL    C7629560   2.575   1.299   4.212 -1.0008  0.2097 -0.0034
  163MOL    O7729561   2.461   1.339   4.191  0.4035 -0.2798 -0.4397
  163MOL    O7829562   2.691   1.365   4.193 -0.0276 -0.5296 -0.3455
  163MOL    H7929563   2.385   1.116   4.274 -1.2229 -0.6864  2.3870
  163MOL    H8029564   2.494   0.983   4.310 -0.6860  0.5478  0.7911
  163MOL    H8129565   2.690   1.160   4.328  1.1354  1.5759 -1.2130
  163MOL    H8229566   2.666   1.453   4.169  2.2746 -0.1196 -1.3380
  163MOL    C8329567   2.647   1.064   4.135  0.3803 -0.2660 -0.0499
  163MOL    C8429568   2.774   0.984   4.138 -0.1398 -0.3036  0.4544
  163MOL    C8529569   2.768   0.889   4.253 -0.4563 -0.3074 -0.6609
  163MOL    O8629570   2.830   0.913   4.358 -0.1956 -0.4415 -0.2385
  163MOL    O8729571   2.677   0.782   4.233 -0.1512 -0.3856 -0.6593
  163MOL    H8829572   2.660   1.127   4.047 -0.3452 -0.2348 -0.1383
  163MOL    H8929573   2.560   1.008   4.099 -0.5636  0.8603  0.4234
  163MOL    H9029574   2.775   0.922   4.048 -1.8282 -0.0714  0.2622
  163MOL    H9129575   2.657   0.740   4.315 -1.4341  0.2095 -0.6491
  163MOL    C9229576   2.905   1.075   4.141  0.0376 -0.2924  0.1375
  163MOL    C9329577   2.919   1.167   4.018  0.6371  0.2558 -0.0213
  163MOL    C9429578   2.937   1.078   3.889 -0.1223  0.3612 -0.1535
  163MOL    O9529579   3.041   1.020   3.858  0.1447  0.1518  0.0431
  163MOL    O9629580   2.827   1.070   3.812  0.1026  0.2005  0.0804
  163MOL    H9729581   2.994   1.014   4.152 -0.0593 -0.9811 -2.4203
  163MOL    H9829582   2.896   1.125   4.237 -2.1499  0.3646 -0.3641
  163MOL    H9929583   2.832   1.231   4.005  0.6927  0.8885  2.5325
  163MOL   H10029584   2.832   1.019   3.733 -1.5253  1.0046 -0.5737
  163MOL   C10129585   3.043   1.262   4.049 -0.4376  0.3494 -0.7223
  163MOL   C10229586   3.093   1.363   3.943 -0.1458 -0.0689 -0.0891
  163MOL   C10329587   3.222   1.415   3.993 -0.6357  0.3463  0.0354
  163MOL   O10429588   3.227   1.493   4.090  0.1564 -0.1068  0.0650
  163MOL   O10529589   3.332   1.384   3.912 -0.1723 -0.3225  0.3436
  163MOL   H10629590   3.120   1.186   4.068 -2.3843 -2.0398 -2.1132
  163MOL   H10729591   3.025   1.305   4.147 -0.0548 -3.6644  1.2268
  163MOL   H10829592   3.110   1.298   3.858  1.3014 -0.9205  0.8323
  163MOL   H10929593   3.407   1.428   3.949  0.0781 -0.9152  0.5441
  163MOL   C11029594   2.977   1.461   3.917 -0.1912  0.2225  1.1001
  163MOL   C11129595   2.944   1.483   3.772 -0.1890 -0.5227  0.6610
  163MOL   C11229596   3.062   1.547   3.685 -0.4013  0.0244  0.0634
  163MOL   O11329597   3.160   1.604   3.737  0.2748  0.2402 -0.1128
  163MOL   O11429598   3.029   1.537   3.555 -0.0403 -0.3047  0.6128
  163MOL   H11529599   2.986   1.560   3.961  0.2372  1.1379 -1.0089
  163MOL   H11629600   2.882   1.432   3.962 -0.1842  0.3496  1.1966
  163MOL   H11729601   2.922   1.390   3.719  1.9434 -1.1748  0.8890
  163MOL   H11829602   3.095   1.573   3.497  0.4625 -2.0549  0.0887
  163MOL   C11929603   2.825   1.581   3.774 -0.1146 -0.2145 -0.5056
  163MOL   C12029604   2.692   1.522   3.805  0.3196  0.1162 -0.0830
  163MOL   C12129605   2.651   1.402   3.706 -0.4562  0.5345  0.7137
  163MOL   O12229606   2.604   1.299   3.747  0.4350 -0.2788 -0.1178
  163MOL   O12329607   2.687   1.427   3.575  0.2134 -0.4806  0.1157
  163MOL   H12429608   2.825   1.637   3.680  0.9441  1.4379  0.4569
  163MOL   H12529609   2.832   1.663   3.845  2.6964  0.3024 -1.3276
  163MOL   H12629610   2.685   1.483   3.906 -2.7419  0.3762 -0.1366
  163MOL   H12729611   2.721   1.513   3.556 -0.6592 -0.1429  0.0766
  163MOL   C12829612   2.585   1.635   3.800 -0.3028 -0.2606 -0.0832
  163MOL   C12929613   2.447   1.601   3.835  0.2075 -0.3101 -0.0503
  163MOL   C13029614   2.365   1.560   3.709  0.2077  0.7134 -0.5553
  163MOL   O13129615   2.403   1.571   3.592 -0.3335 -0.1066 -0.2253
  163MOL   O13229616   2.254   1.490   3.746 -0.2168 -0.2831  0.1413
  163MOL   H13329617   2.590   1.682   3.702 -0.0618  2.3682  1.1420
  163MOL   H13429618   2.633   1.710   3.864 -2.0560  0.1392  0.8030
  163MOL   H13529619   2.446   1.512   3.898 -0.6943 -1.3382 -1.5009
  163MOL   H13629620   2.209   1.440   3.680 -1.3993  1.8192 -0.6902
  163MOL   C13729621   2.365   1.712   3.921  0.2252  0.6999  1.1243
  163MOL   C13829622   2.438   1.785   4.047 -0.4342  0.8390  1.2032
  163MOL   C13929623   2.489   1.675   4.139  0.0506 -0.0904 -0.1957
  163MOL   O14029624   2.598   1.621   4.128  0.1243  0.3110 -0.3693
  163MOL   O14129625   2.397   1.651   4.242 -0.6224 -0.0523  0.1244
  163MOL   H14229626   2.268   1.673   3.952  0.9089 -1.4046  0.7064
  163MOL   H14329627   2.344   1.790   3.847  0.8828 -0.5023 -0.3762
  163MOL   H14429628   2.529   1.835   4.015 -1.0455 -0.0320 -2.0814
  163MOL   H14529629   2.415   1.582   4.303  2.0280 -1.0871 -1.6923
  163MOL   C14629630   2.344   1.899   4.104  0.2734 -0.0677  0.3930
  163MOL   C14729631   2.390   1.980   4.231 -0.3934 -0.9291 -0.4520
  163MOL   C14829632   2.268   2.059   4.288  0.8518 -0.2076 -0.3947
  163MOL   O14929633   2.209   2.020   4.386  0.6864  0.3437 -0.3600
  163MOL   O15029634   2.236   2.168   4.208  0.0667  0.0795 -0.1233
  163MOL   H15129635   2.249   1.857   4.136  1.3066 -1.6778  1.4318
  163MOL   H15229636   2.325   1.969   4.023 -0.3752 -0.0335  0.5748
  163MOL   H15329637   2.421   1.913   4.310 -0.8268  0.6544  1.0961
  163MOL   H15429638   2.155   2.209   4.236 -0.0126  0.4935 -0.9463
  163MOL   C15529639   2.517   2.065   4.199  0.1827  0.5949  0.0363
  163MOL   C15629640   2.570   2.153   4.321  0.1105  0.0760  0.1055
  163MOL   C15729641   2.671   2.242   4.257 -0.0825  0.1229 -0.3278
  163MOL   O15829642   2.795   2.223   4.268  0.1870  0.4099 -0.0134
  163MOL   O15929643   2.612   2.343   4.192 -0.8126 -0.2702 -0.3082
  163MOL   H16029644   2.500   2.117   4.105  0.3060  0.6342  0.0357
  163MOL   H16129645   2.595   1.993   4.175 -1.9645 -1.3934 -1.2869
  163MOL   H16229646   2.496   2.219   4.367  0.2764  1.3570 -1.4217
  163MOL   H16329647   2.678   2.404   4.163  0.2591 -1.2756  0.0111
  163MOL   C16429648   2.628   2.071   4.437  0.4400 -0.9752  0.2103
  163MOL   C16529649   2.656   2.156   4.556 -0.3849 -0.1212 -0.1209
  163MOL   C16629650   2.799   2.110   4.611  0.1938  0.4149 -0.1361
  163MOL   O16729651   2.810   2.002   4.669  0.1662  0.0344 -0.6439
  163MOL   O16829652   2.883   2.211   4.606  0.5540 -0.3911 -0.5325
  163MOL   H16929653   2.713   2.008   4.411  0.3172 -2.3167  2.9032
  163MOL   H17029654   2.548   2.000   4.456 -1.0229  0.0795 -1.7837
  163MOL   H17129655   2.665   2.261   4.527  0.5744 -0.2635 -0.3666
  163MOL   H17229656   2.965   2.181   4.644  0.1718  2.5031  2.7914
  163MOL   C17329657   2.550   2.137   4.663 -0.4341  0.1103  0.4154
  163MOL   C17429658   2.559   2.203   4.803  0.5291 -0.6689  0.1742
  163MOL   C17529659   2.591   2.355   4.802  0.0086 -0.2195 -0.4220
  163MOL   O17629660   2.546   2.426   4.710 -0.0172  0.8813 -0.6901
  163MOL   O17729661   2.671   2.392   4.910 -0.4975 -0.5813  0.4170
  163MOL   H17829662   2.533   2.030   4.676 -1.0901  0.2070  0.3743
  163MOL   H17929663   2.452   2.164   4.625 -1.1568 -2.2881  0.4851
  163MOL   H18029664   2.469   2.191   4.863  0.0484  0.3469 -0.3384
  163MOL   H18129665   2.686   2.485   4.915 -2.1757  0.0032 -3.4083
  163MOL   H18229666   2.631   2.163   4.875  1.8759  2.3501  0.5862
  164MOL     C129667   7.749   2.357   1.427  1.0097 -1.1537  0.4399
  164MOL     C229668   7.701   2.478   1.335 -0.3242 -0.2298 -0.0570
  164MOL     C329669   7.722   2.606   1.410  0.7056  0.9450  0.1378
  164MOL     O429670   7.678   2.619   1.525  0.0928 -0.4869  0.3556
  164MOL     O529671   7.798   2.696   1.344  0.0644  0.1889  0.2083
  164MOL     H629672   7.783   2.265   1.379  1.3899 -0.6984 -0.1680
  164MOL     H729673   7.832   2.382   1.492  1.9344  0.4139 -1.2959
  164MOL     H829674   7.756   2.483   1.240  0.0665  1.1964  0.2192
  164MOL     H929675   7.817   2.779   1.385  2.6928  0.9019 -2.2445
  164MOL    H1029676   7.667   2.324   1.490  0.1382  1.8967  0.9823
  164MOL    C1129677   7.551   2.461   1.304 -0.3204  0.7132  0.0519
  164MOL    C1229678   7.511   2.327   1.232 -0.0178  0.5161  0.3631
  164MOL    C1329679   7.587   2.318   1.093 -0.2004  0.1467 -1.0515
  164MOL    O1429680   7.666   2.226   1.065 -0.2886  0.4191  0.1055
  164MOL    O1529681   7.554   2.421   1.011  0.1459  0.0138 -0.1698
  164MOL    H1629682   7.508   2.549   1.256 -1.7908 -0.6048 -1.0828
  164MOL    H1729683   7.504   2.449   1.401 -1.8936 -1.8070 -0.9694
  164MOL    H1829684   7.532   2.239   1.294 -2.2138  0.4270  1.0365
  164MOL    H1929685   7.595   2.413   0.926 -1.4981 -0.9455 -0.9068
  164MOL    C2029686   7.356   2.321   1.216 -0.0897 -1.1364 -0.1667
  164MOL    C2129687   7.304   2.172   1.210 -0.1318 -0.0190 -0.7221
  164MOL    C2229688   7.180   2.148   1.126  0.0965 -0.5096 -0.0888
  164MOL    O2329689   7.092   2.065   1.154  0.2841  0.1442 -0.4679
  164MOL    O2429690   7.169   2.232   1.020  0.0946 -0.1425  0.4141
  164MOL    H2529691   7.324   2.374   1.126  0.4533 -0.4274  0.0518
  164MOL    H2629692   7.305   2.374   1.296 -1.0501 -2.7589  0.3040
  164MOL    H2729693   7.366   2.127   1.134 -2.0222 -0.9848 -1.7412
  164MOL    H2829694   7.093   2.218   0.966 -0.8174  2.4775  0.9551
  164MOL    C2929695   7.327   2.083   1.333 -0.2845  0.3281  0.2820
  164MOL    C3029696   7.256   2.107   1.468  0.0577 -0.7126 -0.0106
  164MOL    C3129697   7.340   2.217   1.547  0.6521 -0.0631  0.4826
  164MOL    O3229698   7.317   2.334   1.542 -0.1419 -0.1447 -0.5191
  164MOL    O3329699   7.450   2.162   1.604 -0.6359  0.1886 -0.5173
  164MOL    H3429700   7.435   2.075   1.351 -0.1346 -0.7355 -0.9260
  164MOL    H3529701   7.316   1.975   1.317  2.7270 -0.1787  1.3151
  164MOL    H3629702   7.159   2.149   1.440 -0.3103 -0.1140  2.0430
  164MOL    H3729703   7.499   2.228   1.651 -1.5668 -0.1068  0.8926
  164MOL    C3829704   7.239   1.976   1.557 -0.0094 -0.1414  0.4111
  164MOL    C3929705   7.130   1.952   1.662 -0.1397 -0.6765 -0.7788
  164MOL    C4029706   7.049   2.074   1.707  0.5615  0.2936  0.2214
  164MOL    O4129707   7.067   2.133   1.814 -0.3476 -0.0318 -0.5824
  164MOL    O4229708   6.970   2.126   1.605 -0.9435 -0.3909  0.1808
  164MOL    H4329709   7.333   1.967   1.611 -0.4688 -0.1969  1.2160
  164MOL    H4429710   7.229   1.890   1.490 -2.2365  0.9178 -0.6555
  164MOL    H4529711   7.057   1.902   1.599 -0.5467  1.9601 -2.4910
  164MOL    H4629712   6.955   2.065   1.535  3.0520  0.4404 -1.5140
  164MOL    C4729713   7.166   1.858   1.776  0.1814 -0.9928  0.2199
  164MOL    C4829714   7.222   1.722   1.731  0.4082 -0.2528 -0.3960
  164MOL    C4929715   7.125   1.630   1.657 -0.3706 -1.0074  0.3281
  164MOL    O5029716   7.158   1.539   1.579 -0.0177  0.3006  0.0164
  164MOL    O5129717   7.002   1.648   1.697 -0.1786 -0.0349  0.1788
  164MOL    H5229718   7.081   1.828   1.836 -0.9074  1.5268  0.0070
  164MOL    H5329719   7.235   1.908   1.844  2.6783 -0.1341 -2.7930
  164MOL    H5429720   7.291   1.735   1.648  1.2691  1.5317  0.5813
  164MOL    H5529721   6.951   1.575   1.666 -0.5442  0.3755 -0.1991
  164MOL    C5629722   7.308   1.648   1.833  0.5173  0.0285 -0.7265
  164MOL    C5729723   7.235   1.591   1.955 -0.0243 -0.3529  0.0334
  164MOL    C5829724   7.303   1.639   2.085  0.4772  0.8108 -0.2267
  164MOL    O5929725   7.240   1.681   2.180 -0.4828 -0.0909 -0.5419
  164MOL    O6029726   7.435   1.627   2.085  0.9569 -0.1936  0.0431
  164MOL    H6129727   7.394   1.701   1.872  0.8048 -1.4864  0.7925
  164MOL    H6229728   7.363   1.569   1.783  1.7309  1.1340 -1.1370
  164MOL    H6329729   7.136   1.638   1.952  0.8760  1.4657 -3.4788
  164MOL    H6429730   7.479   1.657   2.163  2.2099 -2.9819  0.4829
  164MOL    C6529731   7.211   1.438   1.959 -0.3419 -0.3773  0.6478
  164MOL    C6629732   7.110   1.386   2.068 -0.6725  0.3706 -0.2223
  164MOL    C6729733   7.167   1.252   2.137  0.1383 -0.5550  0.6680
  164MOL    O6829734   7.258   1.182   2.082 -0.2710 -0.1037  0.2646
  164MOL    O6929735   7.109   1.227   2.259 -0.1904  0.1846  0.3188
  164MOL    H7029736   7.306   1.385   1.968 -0.2072 -0.3968 -0.7137
  164MOL    H7129737   7.168   1.400   1.866 -0.2848  1.0906 -0.0002
  164MOL    H7229738   7.114   1.449   2.156  1.6723 -2.2431  1.6307
  164MOL    H7329739   7.127   1.142   2.297 -0.1914  0.4105  0.8322
  164MOL    C7429740   6.970   1.367   2.016 -0.0665 -0.1299  0.2589
  164MOL    C7529741   6.854   1.382   2.127 -0.2857 -0.2636  0.0590
  164MOL    C7629742   6.722   1.333   2.074  0.5989  0.4686  0.2536
  164MOL    O7729743   6.652   1.250   2.129 -0.4584  0.3040  0.4012
  164MOL    O7829744   6.697   1.396   1.955  0.2129  0.5281 -0.8681
  164MOL    H7929745   6.950   1.278   1.956  0.4550 -0.1482  0.1088
  164MOL    H8029746   6.947   1.440   1.938 -0.6030  1.2819  1.6991
  164MOL    H8129747   6.875   1.310   2.206  2.1303  0.1658 -0.1656
  164MOL    H8229748   6.604   1.400   1.943  0.0873 -1.7129 -0.8866
  164MOL    C8329749   6.847   1.526   2.182 -0.4363  0.3344  0.6223
  164MOL    C8429750   6.764   1.543   2.317  0.5044  0.1578  0.6888
  164MOL    C8529751   6.729   1.694   2.333 -0.1164  0.4744  0.5584
  164MOL    O8629752   6.790   1.760   2.413  0.3676  0.3292  0.2284
  164MOL    O8729753   6.634   1.736   2.244 -0.0528 -0.3705  0.3888
  164MOL    H8829754   6.806   1.588   2.102  1.9940  0.9253 -0.1923
  164MOL    H8929755   6.949   1.554   2.206  0.0193 -0.7765 -0.0124
  164MOL    H9029756   6.667   1.493   2.310  0.0709  0.5129  3.3754
  164MOL    H9129757   6.605   1.825   2.258  1.2948 -0.1811  2.1828
  164MOL    C9229758   6.831   1.484   2.439  0.6498  0.2698 -0.2574
  164MOL    C9329759   6.767   1.515   2.581  0.1731 -0.3303  0.0193
  164MOL    C9429760   6.889   1.498   2.677 -0.7309 -0.2253  0.2186
  164MOL    O9529761   6.903   1.395   2.747 -0.0647  0.1020  0.1724
  164MOL    O9629762   6.973   1.609   2.683  0.3874  0.6016  0.1339
  164MOL    H9729763   6.931   1.526   2.440  0.3526  1.0129 -1.2930
  164MOL    H9829764   6.839   1.375   2.432 -1.0981 -0.0722  2.3809
  164MOL    H9929765   6.731   1.617   2.594  1.5179  0.1497 -0.0003
  164MOL   H10029766   7.051   1.585   2.732  0.6052 -2.0434 -1.4253
  164MOL   C10129767   6.649   1.422   2.619  0.7711  0.1108  0.1019
  164MOL   C10229768   6.519   1.426   2.528  0.2687  0.3145 -0.2405
  164MOL   C10329769   6.435   1.552   2.518  0.6182 -0.6620  0.4126
  164MOL   O10429770   6.385   1.587   2.411  0.2191 -0.1508  0.1223
  164MOL   O10529771   6.412   1.618   2.632 -0.1023  0.2953 -0.7877
  164MOL   H10629772   6.615   1.454   2.717 -0.8665  1.7344 -0.9525
  164MOL   H10729773   6.679   1.318   2.631 -2.8610 -0.8819  1.3618
  164MOL   H10829774   6.532   1.396   2.424 -3.5959 -1.3077 -0.3418
  164MOL   H10929775   6.362   1.697   2.615 -1.3064 -0.5684 -1.3096
  164MOL   C11029776   6.435   1.313   2.583 -0.2876 -0.2302  0.3481
  164MOL   C11129777   6.300   1.281   2.518 -0.3399  0.5927  0.4723
  164MOL   C11229778   6.306   1.282   2.365  0.3128  0.4488 -0.2448
  164MOL   O11329779   6.242   1.361   2.295  0.4904 -0.4500  0.5081
  164MOL   O11429780   6.392   1.188   2.316  0.1922  0.3712  0.3352
  164MOL   H11529781   6.407   1.324   2.688  0.2449 -0.1626  0.4858
  164MOL   H11629782   6.496   1.225   2.565  0.1056  0.0848  0.1217
  164MOL   H11729783   6.291   1.176   2.543 -0.0315  0.5076  0.2233
  164MOL   H11829784   6.379   1.192   2.223  1.2191 -3.3167 -0.0151
  164MOL   C11929785   6.177   1.353   2.579 -0.0901 -0.4868  0.7682
  164MOL   C12029786   6.068   1.248   2.627  0.0263 -0.3844  0.4158
  164MOL   C12129787   5.998   1.184   2.511  0.5666  0.4583  0.1691
  164MOL   O12229788   5.917   1.239   2.440 -0.1928 -0.0935 -0.2277
  164MOL   O12329789   6.036   1.051   2.495 -0.2600 -0.0653 -0.4587
  164MOL   H12429790   6.143   1.420   2.500 -1.8014 -1.9620  0.1997
  164MOL   H12529791   6.188   1.419   2.665  0.7245  1.8394 -1.0704
  164MOL   H12629792   6.113   1.169   2.687 -0.6178  1.1374  2.9672
  164MOL   H12729793   6.105   1.008   2.543 -1.2015 -0.3675  0.6419
  164MOL   C12829794   5.960   1.314   2.721 -0.6159  0.0828  0.2939
  164MOL   C12929795   6.005   1.356   2.866 -0.1495 -0.7015 -0.3730
  164MOL   C13029796   5.956   1.264   2.969  0.3822  0.1618  0.5530
  164MOL   O13129797   5.848   1.267   3.024  0.1996 -0.2412 -0.1705
  164MOL   O13229798   6.044   1.165   3.002  0.2370  0.1049 -0.7495
  164MOL   H13329799   5.872   1.250   2.723 -0.1433 -0.5581  0.7231
  164MOL   H13429800   5.906   1.395   2.671 -2.2021 -1.1210  0.0039
  164MOL   H13529801   6.114   1.352   2.868 -0.0524  0.9676 -1.4850
  164MOL   H13629802   5.999   1.117   3.070  0.9394  1.0863  0.4068
  164MOL   C13729803   5.959   1.505   2.895  0.0359 -0.2185 -0.5132
  164MOL   C13829804   6.028   1.579   3.015 -0.3696  0.0676  0.3107
  164MOL   C13929805   5.964   1.715   3.067 -0.3071  0.6443  0.4521
  164MOL   O14029806   5.887   1.787   3.007 -0.3785  0.2737  0.3956
  164MOL   O14129807   6.015   1.739   3.193  0.0023  0.2129  0.4231
  164MOL   H14229808   5.854   1.505   2.927 -0.3609  0.1719 -1.7640
  164MOL   H14329809   5.963   1.571   2.808 -1.4790 -0.6786 -0.9577
  164MOL   H14429810   6.003   1.522   3.104 -2.0826  0.4912  0.1174
  164MOL   H14529811   5.996   1.825   3.227  2.0861  1.1902 -0.7602
  164MOL   C14629812   6.179   1.595   3.003 -0.0401  0.6195 -0.3458
  164MOL   C14729813   6.271   1.504   3.094  0.3312 -0.1647 -0.5209
  164MOL   C14829814   6.234   1.512   3.240  0.5614 -0.7747 -0.5156
  164MOL   O14929815   6.293   1.587   3.321  0.6772 -0.0802 -0.4853
  164MOL   O15029816   6.141   1.421   3.277 -0.3786 -0.0886 -0.0776
  164MOL   H15129817   6.199   1.702   3.004 -2.1551  1.0302 -0.1387
  164MOL   H15229818   6.203   1.564   2.901  1.2560 -0.8792  0.3930
  164MOL   H15329819   6.237   1.407   3.058  2.9482 -1.9850  1.7038
  164MOL   H15429820   6.157   1.414   3.370 -0.2342 -0.4834 -0.1313
  164MOL   C15529821   6.418   1.521   3.059 -0.1423  0.2491 -0.2884
  164MOL   C15629822   6.511   1.412   3.121  0.1080 -0.0290  0.4320
  164MOL   C15729823   6.659   1.459   3.108 -0.4567  0.2667 -0.4397
  164MOL   O15829824   6.691   1.575   3.074 -0.3980  0.2263 -0.0259
  164MOL   O15929825   6.743   1.358   3.137 -0.3360  0.8969  0.0647
  164MOL   H16029826   6.439   1.621   3.097 -0.4396  0.0837  0.3097
  164MOL   H16129827   6.425   1.516   2.950 -0.5697  0.8366 -0.3466
  164MOL   H16229828   6.493   1.391   3.226 -0.6774 -0.3070  0.2410
  164MOL   H16329829   6.832   1.387   3.134 -0.5589  1.5311 -0.6030
  164MOL   C16429830   6.491   1.273   3.056 -0.2648  0.0472  0.2163
  164MOL   C16529831   6.517   1.153   3.153  0.0462  0.5401 -0.1206
  164MOL   C16629832   6.602   1.039   3.086 -0.3222  0.2525 -0.4292
  164MOL   O16729833   6.578   0.995   2.975 -0.2783  0.2637  0.0307
  164MOL   O16829834   6.707   1.002   3.159  0.8061  0.0552  0.6250
  164MOL   H16929835   6.527   1.267   2.954 -0.7394  1.0995 -0.0213
  164MOL   H17029836   6.383   1.272   3.039 -0.1944 -1.1329 -0.2332
  164MOL   H17129837   6.580   1.181   3.237 -0.8613  0.5729  0.5529
  164MOL   H17229838   6.751   0.937   3.105  0.4514 -1.5513  2.2338
  164MOL   C17329839   6.387   1.102   3.215  0.5269  0.8018  0.0685
  164MOL   C17429840   6.385   0.978   3.310  0.0543 -0.4854  0.3270
  164MOL   C17529841   6.247   0.940   3.362 -0.3880  1.2140 -0.2322
  164MOL   O17629842   6.204   0.990   3.463 -0.1360 -0.0785  0.6578
  164MOL   O17729843   6.185   0.846   3.296  0.0890 -0.1701  0.5038
  164MOL   H17829844   6.309   1.077   3.142  0.1479 -0.5703  0.9456
  164MOL   H17929845   6.354   1.185   3.278  0.1766 -0.7034  1.8756
  164MOL   H18029846   6.428   0.889   3.264 -0.7349 -0.4663 -0.4595
  164MOL   H18129847   6.097   0.831   3.329 -0.2492  0.8736  0.0918
  164MOL   H18229848   6.460   0.993   3.387  1.7822  0.6143 -1.4915
  165MOL     C129849   0.307   0.127   0.282 -0.1595  0.3077 -0.3684
  165MOL     C229850   0.390   0.025   0.353 -0.4964 -0.4889  0.5677
  165MOL     C329851   0.532   0.079   0.381 -0.2216  0.1339  0.5763
  165MOL     O429852   0.627   0.072   0.300 -0.2196 -0.4811  0.2277
  165MOL     O529853   0.535   0.124   0.509  0.1570 -0.4685  0.2337
  165MOL     H629854   0.305   0.112   0.174 -2.5549 -0.7059 -0.2038
  165MOL     H729855   0.200   0.118   0.300 -0.0163 -0.0236  0.3385
  165MOL     H829856   0.341   0.021   0.451 -0.0818  0.2141  0.8100
  165MOL     H929857   0.612   0.175   0.527  0.9469 -2.2337  2.0592
  165MOL    H1029858   0.343   0.226   0.310  1.4928 -0.1571 -0.7757
  165MOL    C1129859   0.376   7.738   0.290 -0.5881  0.9944  0.2390
  165MOL    C1229860   0.462   7.632   0.370  0.4120  0.3977  0.6613
  165MOL    C1329861   0.488   7.505   0.279 -0.0083 -0.4791  1.1951
  165MOL    O1429862   0.405   7.414   0.273 -0.3215  0.7956  0.3121
  165MOL    O1529863   0.593   7.513   0.196  0.6308 -0.1088 -0.2354
  165MOL    H1629864   0.401   7.748   0.184 -0.9045  1.0253  0.1678
  165MOL    H1729865   0.274   7.700   0.293  0.1156 -0.8869  0.5998
  165MOL    H1829866   0.564   7.668   0.384  0.6627 -0.3398  0.7560
  165MOL    H1929867   0.597   7.433   0.145  1.9151  1.0567 -1.9872
  165MOL    C2029868   0.403   7.594   0.508 -0.2926  0.4878 -0.2440
  165MOL    C2129869   0.500   7.514   0.597  0.2261 -0.1204  0.4535
  165MOL    C2229870   0.506   7.365   0.563  0.9417  0.7161  0.0172
  165MOL    O2329871   0.404   7.294   0.574  0.1465  0.3618  0.1665
  165MOL    O2429872   0.632   7.321   0.534  0.3622  0.4767 -0.0793
  165MOL    H2529873   0.312   7.535   0.497  0.1986 -0.2526 -0.3778
  165MOL    H2629874   0.368   7.678   0.568 -1.7172 -0.6266  0.5257
  165MOL    H2729875   0.603   7.550   0.584  0.8322 -2.2980 -1.0534
  165MOL    H2829876   0.631   7.227   0.530 -1.9354  0.5538 -1.6309
  165MOL    C2929877   0.465   7.527   0.745  0.6700  0.5618  0.5325
  165MOL    C3029878   0.558   7.605   0.830  0.0237 -0.5873  0.0687
  165MOL    C3129879   0.501   7.608   0.970  0.1246 -0.1075  0.3667
  165MOL    O3229880   0.427   7.694   1.015  0.3337 -0.0324 -0.1234
  165MOL    O3329881   0.535   7.493   1.041 -0.3327 -0.0841 -0.1978
  165MOL    H3429882   0.439   7.429   0.786 -0.2286 -0.5479 -2.4826
  165MOL    H3529883   0.371   7.582   0.747  1.0729  1.4604 -2.4271
  165MOL    H3629884   0.651   7.548   0.842  0.5267  0.6773  2.4686
  165MOL    H3729885   0.512   7.493   1.133  0.4002  2.7647  0.0267
  165MOL    C3829886   0.586   7.748   0.772  0.4092 -0.0446  0.4335
  165MOL    C3929887   0.700   7.824   0.842 -0.0313 -0.0556  0.3336
  165MOL    C4029888   0.679   0.125   0.835  0.5103  0.3648 -0.3091
  165MOL    O4129889   0.707   0.177   0.727 -0.4427  0.0009  0.0567
  165MOL    O4229890   0.633   0.177   0.949  0.4767 -0.5751 -1.0299
  165MOL    H4329891   0.500   7.810   0.799  0.8141  0.5688  0.3106
  165MOL    H4429892   0.601   7.751   0.664 -0.3300 -0.9323  0.2986
  165MOL    H4529893   0.697   7.792   0.946  0.3349 -1.1217  0.0260
  165MOL    H4629894   0.647   0.271   0.948 -1.7878 -0.1905  1.0746
  165MOL    C4729895   0.837   7.788   0.791  0.5929  0.0676 -0.3112
  165MOL    C4829896   0.942   7.829   0.891 -0.0579  0.1145  0.8551
  165MOL    C4929897   1.087   7.798   0.842 -0.1773 -0.0358 -0.8569
  165MOL    O5029898   1.117   7.687   0.802  0.7682  0.7981  0.0430
  165MOL    O5129899   1.164   0.062   0.835  0.4336  0.1923 -0.0418
  165MOL    H5229900   0.860   7.826   0.692  0.1536 -0.0805 -0.4732
  165MOL    H5329901   0.847   7.681   0.772  0.7643  0.4410 -2.4412
  165MOL    H5429902   0.943   0.085   0.886  2.1333  0.0893  0.5271
  165MOL    H5529903   1.249   0.062   0.792 -0.5054 -3.6530 -2.1675
  165MOL    C5629904   0.926   7.773   1.035 -0.0013  0.6224  0.3465
  165MOL    C5729905   0.898   0.019   1.144 -0.4767  0.4999 -0.0491
  165MOL    C5829906   1.032   0.075   1.195 -0.0424  0.2341 -0.2021
  165MOL    O5929907   1.080   0.191   1.173 -0.1448 -0.3923 -0.1210
  165MOL    O6029908   1.095   7.829   1.266  0.4631  0.4377 -0.4810
  165MOL    H6129909   1.021   7.724   1.057 -0.8450 -1.3596 -0.2885
  165MOL    H6229910   0.854   7.691   1.030  0.0968  0.5112  0.7799
  165MOL    H6329911   0.840   0.106   1.112 -1.0357  0.4061  0.6818
  165MOL    H6429912   1.187   7.838   1.285 -0.4038  1.9413  3.7821
  165MOL    C6529913   0.809   7.803   1.257 -0.4443 -0.2225  0.1394
  165MOL    C6629914   0.742   0.053   1.355  0.0712 -0.1331 -0.0398
  165MOL    C6729915   0.830   0.099   1.470  0.6905  0.0820 -0.3159
  165MOL    O6829916   0.937   0.046   1.493 -0.0351  0.1684  0.7995
  165MOL    O6929917   0.775   0.198   1.547  0.3233 -0.0477 -0.1885
  165MOL    H7029918   0.874   7.730   1.308 -1.3128 -0.9464  0.2223
  165MOL    H7129919   0.736   7.737   1.210 -0.9668  0.2640  0.2746
  165MOL    H7229920   0.720   0.141   1.294  0.9622 -1.8058 -2.8844
  165MOL    H7329921   0.831   0.237   1.612  2.8774 -0.5260 -2.0542
  165MOL    C7429922   0.600   0.001   1.403 -0.2472 -0.5075 -0.2251
  165MOL    C7529923   0.591   7.758   1.520 -0.5447  0.2524  0.0643
  165MOL    C7629924   0.651   7.626   1.479  0.2441 -0.1063  0.4963
  165MOL    O7729925   0.633   7.564   1.376 -0.0425 -0.3683 -0.1767
  165MOL    O7829926   0.735   7.585   1.579  0.1262 -0.0925 -0.7484
  165MOL    H7929927   0.527   7.819   1.330 -0.7358 -0.3414  0.1876
  165MOL    H8029928   0.542   0.092   1.415 -0.0186 -0.7887  3.2980
  165MOL    H8129929   0.644   7.807   1.602  0.4330  0.0578 -0.4459
  165MOL    H8229930   0.754   7.493   1.570  1.7393  0.2255 -0.7411
  165MOL    C8329931   0.448   7.748   1.577  0.9626  0.6231  0.0998
  165MOL    C8429932   0.416   0.005   1.685  0.1413 -0.4312  0.5385
  165MOL    C8529933   0.428   7.806   1.821  0.3543 -0.9330  0.5627
  165MOL    O8629934   0.388   7.697   1.852  0.4674  0.5045  0.2809
  165MOL    O8729935   0.495   0.038   1.906 -0.2920 -0.7891  0.2306
  165MOL    H8829936   0.434   7.649   1.618  2.1139  0.6824  0.6485
  165MOL    H8929937   0.385   7.756   1.488  1.2468 -0.6604 -0.2221
  165MOL    H9029938   0.480   0.093   1.675  0.8845 -0.8136  1.8404
  165MOL    H9129939   0.508   7.850   1.990  1.2148  0.0550  0.4161
  165MOL    C9229940   0.270   0.064   1.648 -0.5135 -0.1241 -0.0583
  165MOL    C9329941   0.234   0.219   1.684 -0.7178 -0.5225 -0.3348
  165MOL    C9429942   0.330   0.332   1.636  0.4753 -0.4771 -0.3933
  165MOL    O9529943   0.426   0.312   1.555  0.5967  0.4252 -0.3993
  165MOL    O9629944   0.292   0.457   1.679 -0.4208 -0.1482  0.1579
  165MOL    H9729945   0.206   7.847   1.702 -0.3428  1.2949  2.0735
  165MOL    H9829946   0.251   0.052   1.542 -0.5444  3.2649 -0.4839
  165MOL    H9929947   0.140   0.244   1.636  0.4610  0.9415 -1.9123
  165MOL   H10029948   0.202   0.465   1.708 -0.8930 -0.6669 -1.1150
  165MOL   C10129949   0.214   0.233   1.843  0.0475 -0.0209  0.2154
  165MOL   C10229950   0.088   0.148   1.899  0.2422 -0.2535 -0.0456
  165MOL   C10329951   7.806   0.199   1.845  0.3820 -0.4985  0.2365
  165MOL   O10429952   7.748   0.293   1.900 -0.0626 -0.0757  0.5275
  165MOL   O10529953   7.773   0.146   1.718  0.4187  0.5719  0.0493
  165MOL   H10629954   0.186   0.336   1.864  0.1077  0.3103 -1.2496
  165MOL   H10729955   0.304   0.201   1.895  0.1612 -0.7091 -0.3930
  165MOL   H10829956   0.102   0.044   1.871 -1.6251 -0.2710 -0.9818
  165MOL   H10929957   7.700   0.182   1.671 -0.5849 -0.9554  0.4064
  165MOL   C11029958   0.086   0.167   2.049 -0.1407 -0.1926  0.8890
  165MOL   C11129959   0.179   0.074   2.128  0.5498  0.3436 -0.2241
  165MOL   C11229960   0.131   7.781   2.147 -0.8133 -0.0277 -0.6538
  165MOL   O11329961   0.026   7.731   2.104 -0.2316  0.0440 -0.3009
  165MOL   O11429962   0.233   7.708   2.203  0.5204  0.1355 -0.0895
  165MOL   H11529963   7.838   0.141   2.083 -1.2520  0.5987 -1.6684
  165MOL   H11629964   0.096   0.271   2.080 -3.2031  0.2924  0.4194
  165MOL   H11729965   0.270   0.062   2.070  0.0493  0.1311 -0.9673
  165MOL   H11829966   0.211   7.618   2.187 -1.5116  0.7700 -1.0005
  165MOL   C11929967   0.229   0.147   2.260  0.3562  0.1226  0.4077
  165MOL   C12029968   0.123   0.172   2.366 -0.2478 -0.0095 -0.0196
  165MOL   C12129969   0.145   0.309   2.432 -0.7816  0.3846  0.2953
  165MOL   O12229970   0.146   0.322   2.558  0.6647 -0.6086  0.1665
  165MOL   O12329971   0.149   0.415   2.346  0.0817  0.3746 -0.4335
  165MOL   H12429972   0.284   0.239   2.238  0.1014 -0.1755 -1.5879
  165MOL   H12529973   0.308   0.082   2.298  1.5725  0.8462 -0.8263
  165MOL   H12629974   0.023   0.187   2.325 -1.1733 -1.4717  1.6454
  165MOL   H12729975   0.159   0.490   2.402 -0.4433  0.8509 -0.9695
  165MOL   C12829976   0.107   0.061   2.465  1.1526  0.7218  0.1154
  165MOL   C12929977   7.843   0.067   2.566 -0.7228 -0.0039 -0.2899
  165MOL   C13029978   0.013   7.807   2.656 -0.5345  0.1716 -0.1721
  165MOL   O13129979   7.833   7.691   2.631  0.3307 -0.2268  0.1780
  165MOL   O13229980   0.073   0.001   2.771 -0.1119  0.6838 -0.1267
  165MOL   H13329981   0.202   0.054   2.519  1.5913 -0.1962 -0.7457
  165MOL   H13429982   0.091   7.819   2.414  1.8039 -0.2502  1.6800
  165MOL   H13529983   7.840   0.156   2.628  1.8395 -0.4706  0.5624
  165MOL   H13629984   0.095   7.795   2.841 -0.7088  2.9828  2.0606
  165MOL   C13729985   7.710   0.059   2.490 -0.2119 -0.1121  0.3306
  165MOL   C13829986   7.581   0.061   2.580  0.8560 -0.1314  0.4886
  165MOL   C13929987   7.455   0.012   2.499 -0.3502  0.0441 -0.4039
  165MOL   O14029988   7.427   0.083   2.405  0.1045  0.2125  0.3955
  165MOL   O14129989   7.398   7.748   2.545 -0.3470 -0.4298 -0.1426
  165MOL   H14229990   7.710   7.820   2.431  1.2309  0.1929 -0.1459
  165MOL   H14329991   7.705   0.139   2.417  0.2731 -1.1344 -0.8410
  165MOL   H14429992   7.587   7.833   2.652  4.6452 -0.5648 -0.2153
  165MOL   H14529993   7.339   7.732   2.473  0.7309 -4.2814 -0.2662
  165MOL   C14629994   7.560   0.202   2.644  0.7101 -0.2242 -0.1318
  165MOL   C14729995   7.460   0.222   2.757 -0.1092 -0.2940 -0.0935
  165MOL   C14829996   7.409   0.374   2.770  1.3269 -0.2609 -0.2396
  165MOL   O14929997   7.292   0.395   2.793 -0.0802  0.4758  0.3594
  165MOL   O15029998   7.499   0.475   2.750 -1.0058  0.2370  0.1444
  165MOL   H15129999   7.539   0.270   2.561 -0.9121 -0.9862 -0.3565
  165MOL   H15230000   7.658   0.234   2.681  0.1169  1.2018  0.2476
  165MOL   H15330001   7.375   0.158   2.733 -1.7609  1.2144  1.5357
  165MOL   H15430002   7.462   0.558   2.775 -0.4240  0.6737 -0.4354
  165MOL   C15530003   7.527   0.185   2.892  0.3835  0.5630  0.3116
  165MOL   C15630004   7.451   0.216   3.021  0.4610 -0.5673  0.1320
  165MOL   C15730005   7.541   0.195   3.144 -0.6712 -0.1587 -0.0671
  165MOL   O15830006   7.603   0.284   3.201 -0.2480  0.0343  0.2577
  165MOL   O15930007   7.545   0.066   3.187  0.1269  0.1935  0.2067
  165MOL   H16030008   7.622   0.237   2.889  0.3962  0.4901 -1.2076
  165MOL   H16130009   7.539   0.077   2.887 -1.0728  0.4803 -2.7452
  165MOL   H16230010   7.431   0.323   3.021 -1.5761 -0.9371  0.0120
  165MOL   H16330011   7.580   0.058   3.274 -1.3692 -0.3589  0.7828
  165MOL   C16430012   7.316   0.143   3.034  0.0344 -0.2446 -0.4254
  165MOL   C16530013   7.247   0.165   3.171 -0.0006  0.2602 -0.5205
  165MOL   C16630014   7.167   0.039   3.214  0.7351 -0.1614 -0.2469
  165MOL   O16730015   7.178   7.818   3.313 -0.3281  0.3630  0.5660
  165MOL   O16830016   7.067   0.018   3.125 -0.4662  0.2950  0.1537
  165MOL   H16930017   7.328   0.036   3.021  0.0943 -0.4052  0.8646
  165MOL   H17030018   7.245   0.173   2.956 -1.1545  0.1471  0.7808
  165MOL   H17130019   7.311   0.172   3.258  0.6649  0.5443 -1.0298
  165MOL   H17230020   7.067   0.093   3.067  2.4411 -0.0258 -0.3319
  165MOL   C17330021   7.156   0.290   3.173 -0.6106  0.3484  0.0905
  165MOL   C17430022   7.104   0.324   3.304  0.9679 -1.0414 -0.1875
  165MOL   C17530023   7.190   0.366   3.419 -1.0273 -0.2151 -0.1620
  165MOL   O17630024   7.169   0.360   3.539  0.4739 -0.0303 -0.2934
  165MOL   O17730025   7.311   0.410   3.377 -0.1185 -1.1530 -0.4754
  165MOL   H17830026   7.078   0.277   3.098 -0.3705  0.8983 -0.2594
  165MOL   H17930027   7.222   0.373   3.145  1.7242 -1.6513 -0.5596
  165MOL   H18030028   7.031   0.405   3.296  1.5434 -0.3458  1.4587
  165MOL   H18130029   7.379   0.439   3.436  0.0536  0.9639 -1.6519
  165MOL   H18230030   7.044   0.240   3.339  0.3182 -0.0473  1.1407
  166MOL     C130031   5.573   3.292   2.796 -0.7907 -0.0433 -0.0485
  166MOL     C230032   5.472   3.400   2.837 -0.1693 -0.5000 -0.6496
  166MOL     C330033   5.508   3.447   2.978 -0.0663 -0.0497 -0.4055
  166MOL     O430034   5.436   3.435   3.078 -0.3200  0.5292  0.5138
  166MOL     O530035   5.639   3.491   2.980 -0.0108 -0.7571  0.6791
  166MOL     H630036   5.538   3.213   2.730  2.1140 -1.6019  0.2138
  166MOL     H730037   5.662   3.329   2.746 -0.7781 -0.7887 -0.5829
  166MOL     H830038   5.504   3.492   2.787  1.0127 -1.0403 -0.9130
  166MOL     H930039   5.668   3.513   3.067 -0.9646  1.8814  0.3662
  166MOL    H1030040   5.599   3.231   2.883  0.2473  2.9019  1.7712
  166MOL    C1130041   5.323   3.364   2.831 -0.2542  0.6968  0.2376
  166MOL    C1230042   5.268   3.417   2.698  0.2582  0.0605 -0.4606
  166MOL    C1330043   5.116   3.422   2.701  0.1631 -0.2893  0.3757
  166MOL    O1430044   5.048   3.361   2.780 -1.4283  0.3448  0.0724
  166MOL    O1530045   5.071   3.519   2.616 -0.4426  0.6649 -0.6481
  166MOL    H1630046   5.273   3.413   2.915  2.5063  0.5118  2.0574
  166MOL    H1730047   5.311   3.255   2.833  3.0971  0.2494 -1.2463
  166MOL    H1830048   5.312   3.516   2.691 -0.8398  0.6431  0.6778
  166MOL    H1930049   4.977   3.524   2.613 -0.3748  2.6835  0.2103
  166MOL    C2030050   5.315   3.328   2.575 -0.5037 -0.0084  0.2315
  166MOL    C2130051   5.419   3.398   2.491 -0.3914  0.2122 -0.1658
  166MOL    C2230052   5.356   3.491   2.382 -0.1659  0.5418  0.1593
  166MOL    O2330053   5.266   3.462   2.312  0.7411  0.0683  0.0148
  166MOL    O2430054   5.422   3.602   2.378  0.3086  0.2381  0.2666
  166MOL    H2530055   5.236   3.297   2.507  0.5832  1.0169 -1.5308
  166MOL    H2630056   5.364   3.238   2.611 -2.2510  0.7307  4.8226
  166MOL    H2730057   5.482   3.455   2.558 -1.2377 -0.6181  1.3533
  166MOL    H2830058   5.405   3.646   2.297  1.7904  0.0775 -0.1518
  166MOL    C2930059   5.510   3.293   2.420 -0.7828 -0.2778 -0.2275
  166MOL    C3030060   5.643   3.344   2.337  0.4515 -0.8084 -0.0149
  166MOL    C3130061   5.619   3.428   2.209  0.3073 -0.7374  0.6402
  166MOL    O3230062   5.519   3.413   2.137  0.0006  0.2307  0.0789
  166MOL    O3330063   5.711   3.528   2.200  0.1623  0.0094  0.2335
  166MOL    H3430064   5.443   3.243   2.350 -0.5439 -1.8152  0.6171
  166MOL    H3530065   5.541   3.220   2.496  4.1100  2.0059  0.1750
  166MOL    H3630066   5.705   3.397   2.409 -1.2702  0.9745  0.2166
  166MOL    H3730067   5.671   3.594   2.145  0.5792  0.8047  0.8650
  166MOL    C3830068   5.718   3.220   2.286  0.0816 -0.2389  0.3444
  166MOL    C3930069   5.784   3.130   2.397 -0.3145  0.7034 -0.2459
  166MOL    C4030070   5.933   3.158   2.424 -1.0720 -0.3051  0.2062
  166MOL    O4130071   6.008   3.218   2.347  0.3863  0.1430  0.2075
  166MOL    O4230072   5.975   3.097   2.536  0.2484  0.4875 -0.0104
  166MOL    H4330073   5.793   3.254   2.214 -4.1581  0.9483 -3.8344
  166MOL    H4430074   5.643   3.162   2.232  0.6177 -1.5762  1.0473
  166MOL    H4530075   5.731   3.133   2.492  1.8841  1.4409  1.0078
  166MOL    H4630076   6.069   3.105   2.548  0.3627 -0.5707 -0.1186
  166MOL    C4730077   5.762   2.981   2.351 -0.3826 -0.0288  0.2216
  166MOL    C4830078   5.824   2.944   2.216  1.0092 -0.5310 -0.1786
  166MOL    C4930079   5.722   2.938   2.102  0.7934 -0.2996 -0.2635
  166MOL    O5030080   5.709   3.020   2.010 -0.0890  0.4172 -0.2903
  166MOL    O5130081   5.641   2.832   2.115 -0.3631  0.3483  0.1331
  166MOL    H5230082   5.654   2.968   2.343 -0.3452 -1.2228  1.4071
  166MOL    H5330083   5.793   2.911   2.429  0.1992  0.6160  0.5664
  166MOL    H5430084   5.892   3.022   2.183 -0.4883  1.4313  1.2450
  166MOL    H5530085   5.566   2.837   2.057 -0.2666  1.2390  0.0735
  166MOL    C5630086   5.894   2.812   2.236 -0.3372 -0.7562  0.1163
  166MOL    C5730087   5.990   2.761   2.125  0.0290  0.0865  0.4697
  166MOL    C5830088   5.975   2.611   2.113  0.3459 -0.3266  0.5347
  166MOL    O5930089   5.968   2.563   1.997  0.9840  0.1386 -0.3940
  166MOL    O6030090   5.998   2.550   2.233 -0.1791  0.6782 -0.1207
  166MOL    H6130091   5.819   2.739   2.269  0.2369 -1.1857  0.4850
  166MOL    H6230092   5.956   2.818   2.325 -0.3942  1.6459  0.0050
  166MOL    H6330093   5.954   2.802   2.030 -1.7896 -0.5412  0.8802
  166MOL    H6430094   6.015   2.458   2.217 -0.2975  0.2306  2.2085
  166MOL    C6530095   6.141   2.800   2.145  0.5814 -0.0642 -0.6424
  166MOL    C6630096   6.182   2.947   2.125 -0.5280 -0.0632 -0.0932
  166MOL    C6730097   6.173   2.986   1.980 -0.2439  0.2847 -0.7116
  166MOL    O6830098   6.241   2.936   1.892 -0.2098 -0.0346 -0.1794
  166MOL    O6930099   6.070   3.075   1.962 -0.5505  0.3841 -0.1786
  166MOL    H7030100   6.212   2.742   2.087 -0.4135  0.9444 -2.9059
  166MOL    H7130101   6.158   2.778   2.251 -0.7002  1.6320 -0.0587
  166MOL    H7230102   6.106   3.012   2.169 -0.1440  0.0731  0.3669
  166MOL    H7330103   6.059   3.081   1.869  1.3591  0.3454 -0.4369
  166MOL    C7430104   6.319   2.981   2.184  0.2350  1.0565  0.1486
  166MOL    C7530105   6.328   3.119   2.262  0.3103 -0.3595 -0.6105
  166MOL    C7630106   6.304   3.243   2.172 -0.2900  0.4078 -0.1776
  166MOL    O7730107   6.352   3.259   2.058 -0.1424  0.3177 -0.3392
  166MOL    O7830108   6.227   3.341   2.230  0.1351  0.7560  0.3139
  166MOL    H7930109   6.387   2.978   2.100 -0.0046 -1.6331 -0.0015
  166MOL    H8030110   6.354   2.902   2.250  0.9715  1.5620  0.3618
  166MOL    H8130111   6.251   3.122   2.339 -3.2384  2.3709 -4.0519
  166MOL    H8230112   6.185   3.310   2.309 -0.7768  1.3658  0.0741
  166MOL    C8330113   6.457   3.145   2.346 -0.2804  0.7037  0.0753
  166MOL    C8430114   6.598   3.163   2.286  0.7727  0.4596 -0.1629
  166MOL    C8530115   6.627   3.032   2.206 -0.4233  0.5663  0.0221
  166MOL    O8630116   6.636   3.026   2.085  0.0607 -0.1443  0.2626
  166MOL    O8730117   6.647   2.926   2.285 -0.1421  0.3505 -0.0254
  166MOL    H8830118   6.457   3.063   2.418 -0.5751  1.4920  0.9831
  166MOL    H8930119   6.425   3.232   2.403  1.5911 -0.3343  2.8415
  166MOL    H9030120   6.599   3.235   2.204  4.0401 -0.5553 -1.0658
  166MOL    H9130121   6.666   2.856   2.225  1.4322  1.9548 -1.4345
  166MOL    C9230122   6.704   3.199   2.394  0.0905 -0.0576  0.2249
  166MOL    C9330123   6.701   3.135   2.534  0.3099 -0.6341 -0.2525
  166MOL    C9430124   6.598   3.184   2.627  0.3577 -0.3643 -0.0987
  166MOL    O9530125   6.568   3.305   2.641 -0.0270 -0.4900  0.6236
  166MOL    O9630126   6.549   3.089   2.703  0.1112  0.1575  0.0371
  166MOL    H9730127   6.705   3.308   2.399  1.7920 -0.1215  1.4517
  166MOL    H9830128   6.793   3.168   2.341  0.8188 -0.6420  1.7622
  166MOL    H9930129   6.694   3.028   2.515 -4.1494 -0.2902 -1.1550
  166MOL   H10030130   6.507   3.146   2.765 -3.3846 -1.6561 -0.5633
  166MOL   C10130131   6.841   3.161   2.602 -0.1721 -0.1495 -0.4458
  166MOL   C10230132   6.880   3.081   2.732 -0.1680  0.4517 -0.1071
  166MOL   C10330133   7.021   3.132   2.786  0.4039 -0.0354  0.0687
  166MOL   O10430134   7.124   3.138   2.718  0.5647  0.0108  0.0544
  166MOL   O10530135   7.007   3.168   2.917 -0.4236 -0.0227  0.7564
  166MOL   H10630136   6.866   3.267   2.607 -1.9418  0.1999  1.4532
  166MOL   H10730137   6.914   3.129   2.527  1.5682 -0.9853  1.5416
  166MOL   H10830138   6.795   3.090   2.799 -0.3554 -0.1427 -0.2665
  166MOL   H10930139   7.093   3.172   2.958  0.6266 -3.7570 -0.8663
  166MOL   C11030140   6.901   2.925   2.694 -1.0096 -0.3064 -0.3250
  166MOL   C11130141   6.905   2.836   2.826  0.1372 -0.3016 -0.0270
  166MOL   C11230142   6.949   2.697   2.786 -0.3652 -0.0737 -0.2106
  166MOL   O11330143   6.870   2.605   2.767  0.0668 -0.0103 -0.1903
  166MOL   O11430144   7.086   2.697   2.769 -0.6131  0.6954  0.0409
  166MOL   H11530145   6.979   2.908   2.621  0.1189 -2.9230  1.4157
  166MOL   H11630146   6.811   2.885   2.647 -0.5588 -2.3933  0.4874
  166MOL   H11730147   6.968   2.888   2.899 -1.2828  0.8509  0.4169
  166MOL   H11830148   7.124   2.618   2.734  0.5352  1.4035 -0.3552
  166MOL   C11930149   6.760   2.827   2.886 -0.1792  0.3249 -0.2824
  166MOL   C12030150   6.752   2.796   3.038 -0.3356  0.1400 -0.0119
  166MOL   C12130151   6.649   2.680   3.060  0.2912 -1.1957 -0.3871
  166MOL   O12230152   6.685   2.573   3.106  0.0432 -0.4265  0.0458
  166MOL   O12330153   6.523   2.705   3.022  0.9509 -0.0561 -0.5267
  166MOL   H12430154   6.688   2.766   2.832  0.8977 -0.8438 -0.4215
  166MOL   H12530155   6.714   2.924   2.867  0.7008  0.7535 -0.2425
  166MOL   H12630156   6.844   2.753   3.079 -0.0969 -1.4311 -2.0868
  166MOL   H12730157   6.473   2.632   3.054  1.8109  0.0189  1.0575
  166MOL   C12830158   6.708   2.917   3.124 -0.3005 -0.0107 -0.1401
  166MOL   C12930159   6.718   2.899   3.282  0.1497 -0.1873 -0.3075
  166MOL   C13030160   6.869   2.858   3.318  0.1738 -0.3518 -0.5007
  166MOL   O13130161   6.903   2.784   3.413 -0.4786  0.2273  0.2661
  166MOL   O13230162   6.952   2.920   3.233  0.2492  0.6034 -0.2717
  166MOL   H13330163   6.608   2.947   3.093 -0.2499  0.1950 -0.1025
  166MOL   H13430164   6.765   3.007   3.102 -1.3376  0.7297  0.1837
  166MOL   H13530165   6.694   3.002   3.310 -2.4146 -0.1085 -2.6593
  166MOL   H13630166   7.037   2.897   3.268  0.3320 -0.2802 -1.0357
  166MOL   C13730167   6.617   2.811   3.351 -0.2974  0.2190  0.0950
  166MOL   C13830168   6.594   2.871   3.493  0.3542 -0.0535 -0.1770
  166MOL   C13930169   6.596   2.755   3.597  0.0576  0.5547  0.6464
  166MOL   O14030170   6.502   2.690   3.634  0.8361 -0.2016  0.1078
  166MOL   O14130171   6.723   2.748   3.646  0.1714  0.0609  0.5237
  166MOL   H14230172   6.654   2.708   3.350  0.3442  0.4586 -0.9835
  166MOL   H14330173   6.525   2.800   3.294 -1.4443 -0.3377  1.9821
  166MOL   H14430174   6.679   2.933   3.521 -1.4939  1.7704  1.5608
  166MOL   H14530175   6.730   2.700   3.727  1.5395 -1.0366 -0.2104
  166MOL   C14630176   6.472   2.962   3.506  0.2755  0.2945 -0.7644
  166MOL   C14730177   6.515   3.114   3.498 -0.0990  0.5646 -0.3958
  166MOL   C14830178   6.516   3.160   3.643  0.3978  0.2150  0.0016
  166MOL   O14930179   6.425   3.222   3.695 -0.5167 -0.2205 -0.2770
  166MOL   O15030180   6.639   3.129   3.704  0.1278 -0.6928  0.2093
  166MOL   H15130181   6.421   2.947   3.600 -0.6511 -0.0173 -1.3100
  166MOL   H15230182   6.395   2.934   3.434  0.3336  0.4453 -0.8862
  166MOL   H15330183   6.612   3.134   3.451 -1.5680  0.6458 -3.5294
  166MOL   H15430184   6.628   3.157   3.794  1.0252  0.1044  0.0721
  166MOL   C15530185   6.415   3.196   3.409 -0.2073 -0.2503 -0.2458
  166MOL   C15630186   6.440   3.211   3.257  0.4083 -0.4680  0.5029
  166MOL   C15730187   6.554   3.300   3.221  0.4635 -0.1921  0.3096
  166MOL   O15830188   6.668   3.268   3.192 -0.5680  0.0619  0.5314
  166MOL   O15930189   6.522   3.428   3.254 -0.1673  0.4622 -0.0197
  166MOL   H16030190   6.401   3.300   3.437  0.3262  0.5062 -2.6176
  166MOL   H16130191   6.325   3.140   3.435 -0.3024 -0.1537 -0.3632
  166MOL   H16230192   6.467   3.111   3.223  0.7633 -0.3407  0.4089
  166MOL   H16330193   6.599   3.481   3.269 -0.6301  0.9923  0.4716
  166MOL   C16430194   6.301   3.247   3.185 -0.4420 -0.0488 -0.7340
  166MOL   C16530195   6.222   3.124   3.132 -0.3182 -0.4932 -0.2185
  166MOL   C16630196   6.310   3.047   3.030  0.5769  0.3877 -0.1420
  166MOL   O16730197   6.386   3.096   2.946 -0.2705 -0.4571 -0.3587
  166MOL   O16830198   6.306   2.909   3.045  0.1562  0.5263 -0.3965
  166MOL   H16930199   6.306   3.308   3.095 -3.4508 -0.4863 -1.2333
  166MOL   H17030200   6.244   3.304   3.258 -1.0299 -0.3892 -0.9237
  166MOL   H17130201   6.194   3.048   3.205 -0.8424  0.4552  0.5820
  166MOL   H17230202   6.370   2.860   2.995  0.3864  0.0458  0.3473
  166MOL   C17330203   6.088   3.178   3.064 -0.3339  0.5500 -0.1671
  166MOL   C17430204   5.992   3.062   3.005  0.1628  0.3732  0.8464
  166MOL   C17530205   6.010   3.055   2.863  0.6486  0.0757 -0.2388
  166MOL   O17630206   6.099   3.107   2.797 -0.2654  0.2968 -0.1390
  166MOL   O17730207   5.916   2.972   2.810 -0.1169  0.2034  0.3312
  166MOL   H17830208   6.107   3.264   2.999  0.4553  0.8912  0.5147
  166MOL   H17930209   6.027   3.212   3.147 -0.5572 -2.0524  0.7615
  166MOL   H18030210   5.998   2.970   3.063  1.2476  1.3791  2.3739
  166MOL   H18130211   5.908   2.962   2.717 -2.5192 -2.8413  0.7823
  166MOL   H18230212   5.888   3.080   3.031  0.0121 -0.7468  1.0509
  167MOL     C130213   3.874   1.356   2.436  0.0738  0.1517 -0.0920
  167MOL     C230214   3.751   1.273   2.397 -0.4227 -0.1323  0.4945
  167MOL     C330215   3.782   1.129   2.360 -0.0921 -0.2631  0.4516
  167MOL     O430216   3.895   1.084   2.336  0.5877 -0.0049 -0.1377
  167MOL     O530217   3.661   1.058   2.354 -0.1887 -0.1757 -0.4521
  167MOL     H630218   3.843   1.435   2.504  1.6809  1.0290 -0.3311
  167MOL     H730219   3.944   1.301   2.499 -0.1431  0.3825  0.3479
  167MOL     H830220   3.699   1.270   2.492  1.6971 -0.9530  1.6711
  167MOL     H930221   3.677   0.974   2.315 -1.8997 -1.1164  0.7558
  167MOL    H1030222   3.928   1.395   2.349  0.7342  0.1077  0.2976
  167MOL    C1130223   3.663   1.346   2.293  0.5683  0.0943  0.7148
  167MOL    C1230224   3.598   1.477   2.348  0.0978 -0.1915  0.0051
  167MOL    C1330225   3.465   1.448   2.424 -1.0819 -0.7484  0.4525
  167MOL    O1430226   3.454   1.434   2.550  0.0105  0.1145 -0.3714
  167MOL    O1530227   3.363   1.445   2.339 -0.0808  0.1246  0.2492
  167MOL    H1630228   3.577   1.284   2.268  1.2205  0.2270 -2.0198
  167MOL    H1730229   3.715   1.357   2.198 -2.7450  0.8080 -1.0780
  167MOL    H1830230   3.667   1.523   2.418  1.4033  0.0683 -1.4322
  167MOL    H1930231   3.283   1.407   2.373 -0.3168  0.4285  0.0473
  167MOL    C2030232   3.575   1.582   2.232 -0.2238 -0.6690  0.1658
  167MOL    C2130233   3.692   1.659   2.180 -0.0011 -0.4670 -0.0075
  167MOL    C2230234   3.796   1.589   2.086  0.4008  0.5275 -0.6457
  167MOL    O2330235   3.780   1.548   1.972  0.3550  0.5569  0.3051
  167MOL    O2430236   3.913   1.578   2.152 -0.0131 -0.0981  0.4077
  167MOL    H2530237   3.498   1.655   2.258 -0.4918 -0.3271 -1.4775
  167MOL    H2630238   3.547   1.521   2.146  0.2260  0.8969 -1.1241
  167MOL    H2730239   3.649   1.715   2.097 -0.7061  0.1936  0.7957
  167MOL    H2830240   3.984   1.537   2.105  1.2023  1.4612  0.8393
  167MOL    C2930241   3.761   1.757   2.274 -0.0064  0.8771 -0.3342
  167MOL    C3030242   3.819   1.880   2.200  0.4172 -0.4201 -0.2835
  167MOL    C3130243   3.962   1.915   2.244  0.1859  0.1726  0.1414
  167MOL    O3230244   3.999   1.908   2.360  0.1038 -0.6465 -0.3640
  167MOL    O3330245   4.042   1.951   2.140 -0.5935 -0.0449  0.4967
  167MOL    H3430246   3.831   1.703   2.338 -0.0130  0.5759 -0.5784
  167MOL    H3530247   3.681   1.795   2.338  1.3766  2.8295  0.2608
  167MOL    H3630248   3.845   1.848   2.099  1.4620 -0.6937  0.0663
  167MOL    H3730249   3.998   1.935   2.057  2.0393  0.7073 -1.1133
  167MOL    C3830250   3.727   2.005   2.206 -0.4085 -0.0076  0.3379
  167MOL    C3930251   3.593   2.004   2.122 -0.1604 -0.4339 -0.1963
  167MOL    C4030252   3.603   2.005   1.968 -0.6909  0.0073 -0.3278
  167MOL    O4130253   3.705   1.986   1.909  0.2131 -0.2739 -0.3049
  167MOL    O4230254   3.489   2.032   1.903 -0.0659  0.0064  0.2139
  167MOL    H4330255   3.771   2.099   2.172 -0.2829 -0.1057  0.2273
  167MOL    H4430256   3.695   2.017   2.310 -0.4881 -1.0753  0.4441
  167MOL    H4530257   3.547   1.906   2.136  1.4872 -1.2193 -0.2135
  167MOL    H4630258   3.504   2.018   1.810  0.7263 -0.2806  0.3762
  167MOL    C4730259   3.489   2.090   2.175 -0.0940  0.0880 -0.3424
  167MOL    C4830260   3.506   2.247   2.155 -0.8212 -0.2083 -0.4849
  167MOL    C4930261   3.511   2.327   2.286 -0.9353 -0.2364 -0.2175
  167MOL    O5030262   3.618   2.377   2.323  0.1444  0.3118 -0.1415
  167MOL    O5130263   3.395   2.339   2.347 -0.7284 -0.0412  0.5393
  167MOL    H5230264   3.468   2.070   2.280 -0.5654 -1.5582 -0.7489
  167MOL    H5330265   3.396   2.052   2.133  0.3743 -2.8441  1.1604
  167MOL    H5430266   3.606   2.254   2.112 -0.9422 -0.5158 -0.8220
  167MOL    H5530267   3.401   2.383   2.430  0.9355 -1.0527  0.9806
  167MOL    C5630268   3.409   2.310   2.051 -0.4099  1.4000 -0.2582
  167MOL    C5730269   3.472   2.422   1.970  0.3261  0.4955 -0.1467
  167MOL    C5830270   3.361   2.513   1.910 -0.3086  0.0754 -0.6045
  167MOL    O5930271   3.270   2.469   1.843  0.0970  0.2678  0.5488
  167MOL    O6030272   3.379   2.640   1.948 -0.1968  0.0700  0.2128
  167MOL    H6130273   3.320   2.355   2.097  0.3034  0.8080  1.7452
  167MOL    H6230274   3.375   2.226   1.990 -1.3956  1.6694 -0.0987
  167MOL    H6330275   3.545   2.470   2.035 -0.5910 -1.2664  2.2336
  167MOL    H6430276   3.310   2.694   1.911  0.4916 -0.8698 -2.5643
  167MOL    C6530277   3.560   2.344   1.859 -0.0259 -0.0192 -0.5678
  167MOL    C6630278   3.629   2.434   1.743 -0.4033  0.0737  0.3750
  167MOL    C6730279   3.668   2.579   1.781  0.3702 -0.4262  0.5532
  167MOL    O6830280   3.606   2.683   1.766  0.5792  0.2613 -0.3033
  167MOL    O6930281   3.784   2.578   1.861  0.2707  0.2454 -0.4005
  167MOL    H7030282   3.494   2.281   1.800  2.1848 -1.1071 -1.9117
  167MOL    H7130283   3.635   2.284   1.909  1.8872  1.9493 -0.9884
  167MOL    H7230284   3.722   2.382   1.721 -0.7521 -1.8326  3.1139
  167MOL    H7330285   3.803   2.670   1.873  1.4826 -0.0313 -0.0772
  167MOL    C7430286   3.563   2.430   1.601  0.0404 -0.0430 -0.5296
  167MOL    C7530287   3.631   2.514   1.487  0.0109 -0.5989 -0.0860
  167MOL    C7630288   3.537   2.520   1.369  0.4754  0.2246 -0.1592
  167MOL    O7730289   3.491   2.621   1.325 -0.2690 -0.7875  0.1415
  167MOL    O7830290   3.520   2.394   1.311 -0.7399 -0.3172 -0.1001
  167MOL    H7930291   3.462   2.469   1.603 -0.4255 -1.2354  3.1332
  167MOL    H8030292   3.554   2.327   1.565  1.0777 -0.2566 -0.1941
  167MOL    H8130293   3.655   2.615   1.520 -1.3127  0.0127 -0.9498
  167MOL    H8230294   3.476   2.400   1.228 -1.9631 -1.5176  0.4457
  167MOL    C8330295   3.765   2.444   1.446 -0.1953 -0.6139  0.4897
  167MOL    C8430296   3.887   2.528   1.385 -0.0006 -0.2475 -1.1624
  167MOL    C8530297   3.941   2.642   1.467 -0.1625  0.3288 -0.4279
  167MOL    O8630298   3.889   2.688   1.573 -0.1569  0.4735 -0.0996
  167MOL    O8730299   4.056   2.692   1.422  0.4732  0.1982  0.1879
  167MOL    H8830300   3.751   2.354   1.386  0.8245  1.4265 -2.9393
  167MOL    H8930301   3.810   2.399   1.535 -1.6067 -0.3776  1.3394
  167MOL    H9030302   3.968   2.456   1.392  0.5311  0.5292  1.1768
  167MOL    H9130303   4.086   2.758   1.483 -1.7614 -0.2412  1.8303
  167MOL    C9230304   3.859   2.570   1.238 -0.5101 -0.2795  0.0121
  167MOL    C9330305   3.833   2.458   1.136 -0.3129 -0.2802 -0.5250
  167MOL    C9430306   3.966   2.380   1.099 -0.2834 -0.0412 -0.4667
  167MOL    O9530307   4.076   2.394   1.157 -0.3303 -0.0840 -1.2272
  167MOL    O9630308   3.962   2.299   0.996  0.7564 -0.3537  0.4289
  167MOL    H9730309   3.943   2.627   1.200 -0.7333 -0.8714 -1.3810
  167MOL    H9830310   3.779   2.643   1.239  0.0995  0.3985 -0.5825
  167MOL    H9930311   3.766   2.384   1.178 -0.4825  1.1127  1.7095
  167MOL   H10030312   4.041   2.263   0.959  0.2819  0.8092 -1.7672
  167MOL   C10130313   3.782   2.523   1.005 -0.3512  0.0270  0.0553
  167MOL   C10230314   3.633   2.571   0.995  0.6172 -0.2274  0.7571
  167MOL   C10330315   3.537   2.446   0.974 -0.6558 -0.6052  0.1234
  167MOL   O10430316   3.557   2.351   0.893  0.1697  0.1223  0.1767
  167MOL   O10530317   3.429   2.456   1.051 -0.3385  0.8553 -0.1208
  167MOL   H10630318   3.805   2.461   0.918 -0.5723 -1.5777  1.1444
  167MOL   H10730319   3.843   2.609   0.977 -0.1546 -0.1161  0.0404
  167MOL   H10830320   3.607   2.625   1.086 -2.3616 -1.4667  0.7042
  167MOL   H10930321   3.360   2.397   1.025  0.4895  0.2377 -0.9522
  167MOL   C11030322   3.611   2.680   0.885 -0.1812 -0.4242  0.0900
  167MOL   C11130323   3.471   2.744   0.862 -0.6295 -0.5052  0.1831
  167MOL   C11230324   3.474   2.839   0.739 -0.4527 -0.2375  0.6718
  167MOL   O11330325   3.414   2.806   0.636 -0.2919  0.1365 -1.0084
  167MOL   O11430326   3.554   2.947   0.758 -0.1420 -0.1550  0.2530
  167MOL   H11530327   3.657   2.646   0.792  1.8187  1.2887  0.4126
  167MOL   H11630328   3.686   2.753   0.915 -0.6034 -0.4792  1.3391
  167MOL   H11730329   3.409   2.661   0.827  0.8773 -1.2516 -0.7424
  167MOL   H11830330   3.545   2.988   0.674  0.7892  4.3226  2.2145
  167MOL   C11930331   3.405   2.802   0.989 -0.1774  0.2112  0.3872
  167MOL   C12030332   3.251   2.801   1.006 -0.5673 -0.0438  0.6586
  167MOL   C12130333   3.169   2.835   0.886 -0.2033 -0.2930 -0.1812
  167MOL   O12230334   3.124   2.948   0.864  0.3250 -0.1471  0.3233
  167MOL   O12330335   3.159   2.736   0.793 -0.2301  0.5176  0.2298
  167MOL   H12430336   3.438   2.906   0.986  0.4188  0.0358  0.8237
  167MOL   H12530337   3.454   2.765   1.079  0.0189 -0.0656  0.1653
  167MOL   H12630338   3.224   2.696   1.022  2.4510 -0.6109  2.4218
  167MOL   H12730339   3.126   2.783   0.718 -0.9943  0.4316  0.5129
  167MOL   C12830340   3.236   2.876   1.142  0.1221 -1.0991 -0.0403
  167MOL   C12930341   3.100   2.879   1.208  0.9913 -0.5867 -0.7328
  167MOL   C13030342   3.082   3.017   1.279  0.0173 -0.4807 -0.2605
  167MOL   O13130343   2.995   3.095   1.242  0.6166  0.1036  0.7157
  167MOL   O13230344   3.167   3.038   1.379  0.6518 -0.2129 -0.1028
  167MOL   H13330345   3.271   2.977   1.120 -0.4574 -0.6823  0.9117
  167MOL   H13430346   3.311   2.852   1.218  0.8516  3.1095  0.6610
  167MOL   H13530347   3.022   2.878   1.132 -0.1455  2.0993  0.3507
  167MOL   H13630348   3.169   3.130   1.399  3.0965 -0.4824  1.0187
  167MOL   C13730349   3.089   2.774   1.317  0.1250 -0.5223 -0.5117
  167MOL   C13830350   2.963   2.775   1.408 -0.0892  0.0935  0.5279
  167MOL   C13930351   2.983   2.702   1.537 -0.3791  0.3671  0.3408
  167MOL   O14030352   2.900   2.637   1.601  0.1223 -0.3489 -0.8715
  167MOL   O14130353   3.107   2.721   1.585  0.0911  0.1604 -0.1669
  167MOL   H14230354   3.179   2.773   1.378 -0.7971 -0.7467  0.8785
  167MOL   H14330355   3.104   2.676   1.271 -0.8993  0.5509 -3.2259
  167MOL   H14430356   2.939   2.877   1.438  1.3927  1.0378 -1.4271
  167MOL   H14530357   3.119   2.690   1.673  2.0070  1.7543  0.1826
  167MOL   C14630358   2.840   2.723   1.338  0.4067 -0.1433 -0.1962
  167MOL   C14730359   2.696   2.775   1.382 -0.3996 -0.3934  0.0682
  167MOL   C14830360   2.596   2.666   1.340 -0.0317  0.5474 -0.1290
  167MOL   O14930361   2.543   2.659   1.233  0.3653 -0.1301  0.3906
  167MOL   O15030362   2.600   2.560   1.424  0.1878  0.2250 -0.0433
  167MOL   H15130363   2.843   2.615   1.331  2.0183 -0.1309  0.0189
  167MOL   H15230364   2.842   2.763   1.237  1.0119 -3.8313 -1.7217
  167MOL   H15330365   2.700   2.772   1.491 -0.3423 -1.8449  0.0365
  167MOL   H15430366   2.524   2.508   1.402 -0.2249  0.9965 -0.4629
  167MOL   C15530367   2.655   2.923   1.329  0.2532 -0.2982  0.0650
  167MOL   C15630368   2.564   3.003   1.429  0.3234  0.6453 -0.5798
  167MOL   C15730369   2.427   3.034   1.373  0.5917  0.3513 -0.0271
  167MOL   O15830370   2.332   2.960   1.378  0.0239 -0.2555  0.1701
  167MOL   O15930371   2.418   3.150   1.316  0.0160 -0.0404  0.2946
  167MOL   H16030372   2.601   2.911   1.236 -1.4723  1.0025  0.8689
  167MOL   H16130373   2.743   2.983   1.305 -0.1643 -0.5920 -2.3111
  167MOL   H16230374   2.539   2.935   1.510  0.3136 -0.0904 -1.2033
  167MOL   H16330375   2.336   3.164   1.273  1.4402 -2.4020 -3.4288
  167MOL   C16430376   2.637   3.121   1.497 -0.2686 -0.2977  0.0099
  167MOL   C16530377   2.759   3.087   1.585 -0.3434  0.3547  0.1251
  167MOL   C16630378   2.729   2.991   1.699  0.6934  0.7729  0.2709
  167MOL   O16730379   2.617   2.979   1.746  0.1237  0.7344 -0.2458
  167MOL   O16830380   2.833   2.915   1.725 -0.3198  0.5129  0.5397
  167MOL   H16930381   2.562   3.173   1.557 -1.1268  0.8597 -2.0283
  167MOL   H17030382   2.660   3.200   1.426  1.4879  0.0457  0.9357
  167MOL   H17130383   2.832   3.038   1.520 -0.7418  4.5474 -3.7613
  167MOL   H17230384   2.825   2.843   1.785  1.1184  0.4128  0.6211
  167MOL   C17330385   2.810   3.223   1.648  0.7165 -0.8609  0.5478
  167MOL   C17430386   2.958   3.217   1.703  0.2000  0.8631  0.4286
  167MOL   C17530387   3.000   3.339   1.784  0.1073  0.0652  0.1348
  167MOL   O17630388   2.927   3.443   1.798  0.5987  0.2752 -0.4800
  167MOL   O17730389   3.119   3.328   1.839 -0.1637  0.2180  0.6180
  167MOL   H17830390   2.754   3.251   1.736  1.4737 -0.3160  0.8631
  167MOL   H17930391   2.802   3.310   1.583 -0.9862 -1.4213 -0.0217
  167MOL   H18030392   2.963   3.129   1.768 -1.2543  0.9594  0.6843
  167MOL   H18130393   3.143   3.397   1.898 -3.0370 -1.0816  3.4422
  167MOL   H18230394   3.039   3.203   1.631  1.8117 -1.0389  2.5196
  168MOL     C130395   2.137   7.714   7.407 -0.7184  0.1914  0.4314
  168MOL     C230396   2.099   7.719   7.559 -0.5808  0.2863  0.4066
  168MOL     C330397   2.178   7.832   7.629 -0.4945  0.0514  0.6928
  168MOL     O430398   2.306   7.832   7.624 -0.7051  0.3834 -0.5249
  168MOL     O530399   2.093   0.081   7.667  0.1736 -0.3555 -0.0205
  168MOL     H630400   2.243   7.692   7.393 -1.4088 -1.9350 -1.7050
  168MOL     H730401   2.082   7.644   7.345 -0.5930  0.5930 -0.1351
  168MOL     H830402   1.992   7.735   7.566 -0.7080  0.9610 -2.5432
  168MOL     H930403   2.129   0.159   7.706 -0.4887  0.1324 -0.3707
  168MOL    H1030404   2.124   7.812   7.360  3.1920 -0.0453 -1.2879
  168MOL    C1130405   2.131   7.589   7.637 -0.2473 -0.3201 -0.1028
  168MOL    C1230406   2.070   7.460   7.575 -0.5739  0.5783  0.2744
  168MOL    C1330407   1.923   7.456   7.599  0.1322 -0.8417 -0.2922
  168MOL    O1430408   1.856   7.524   7.678 -0.4499  0.0303 -0.0764
  168MOL    O1530409   1.865   7.378   7.508 -0.3567 -0.0570  0.2072
  168MOL    H1630410   2.107   7.590   7.743 -0.1056  0.2839 -0.0758
  168MOL    H1730411   2.239   7.578   7.643 -0.1729  0.6187  0.3029
  168MOL    H1830412   2.088   7.452   7.467  0.1212  0.6026  0.3825
  168MOL    H1930413   1.772   7.376   7.523 -0.6749  0.8846 -1.5708
  168MOL    C2030414   2.127   7.322   7.632  0.4279  0.0619 -0.2083
  168MOL    C2130415   2.282   7.283   7.616 -0.1922 -0.2508  0.3226
  168MOL    C2230416   2.296   7.187   7.493 -0.7514  0.0223  0.7666
  168MOL    O2330417   2.311   7.065   7.497  0.3950 -0.1596 -0.3218
  168MOL    O2430418   2.295   7.260   7.382  0.2185 -0.0712 -0.3785
  168MOL    H2530419   2.074   7.237   7.590  1.0795 -0.4609  0.0257
  168MOL    H2630420   2.096   7.326   7.737  1.3034 -1.5184  0.1255
  168MOL    H2730421   2.348   7.368   7.601  0.7779 -0.9128  0.7759
  168MOL    H2830422   2.333   7.203   7.317 -0.3110  0.6973 -1.3790
  168MOL    C2930423   2.328   7.215   7.739 -0.0633 -0.3049 -0.8848
  168MOL    C3030424   2.345   7.284   0.023  0.0970 -0.5053  0.2609
  168MOL    C3130425   2.437   7.409   0.014  0.3032  0.1209  0.8581
  168MOL    O3230426   2.561   7.399   7.851 -0.3847 -0.3590 -0.4672
  168MOL    O3330427   2.371   7.522   0.023 -0.0183 -0.5246 -0.2966
  168MOL    H3430428   2.420   7.164   7.710  0.1448 -1.7971  2.1071
  168MOL    H3530429   2.253   7.136   7.746  1.3436 -1.6435 -0.4627
  168MOL    H3630430   2.247   7.319   0.058  0.5502  0.9755  0.0512
  168MOL    H3730431   2.439   7.589   0.018  0.7178 -1.2264  0.2194
  168MOL    C3830432   2.397   7.174   0.125  1.1055 -0.2489  0.3211
  168MOL    C3930433   2.300   7.057   0.151 -0.0526  0.1834  0.6588
  168MOL    C4030434   2.162   7.094   0.210 -0.1807  0.1019  0.3689
  168MOL    O4130435   2.127   7.070   0.326  0.0035  0.0452 -0.0612
  168MOL    O4230436   2.082   7.153   0.119 -0.4117  0.3324  0.7404
  168MOL    H4330437   2.405   7.213   0.226  2.1515 -1.9746  0.9256
  168MOL    H4430438   2.495   7.137   0.095  1.8185  0.4528  1.7668
  168MOL    H4530439   2.282   7.004   0.057  0.0461  0.5226  0.4444
  168MOL    H4630440   1.996   7.173   0.154 -1.7027  0.4839 -2.3392
  168MOL    C4730441   2.372   6.954   0.255 -0.1723 -0.1644  0.3124
  168MOL    C4830442   2.342   6.803   0.231 -0.5309  0.7403 -0.6073
  168MOL    C4930443   2.192   6.767   0.218 -0.2783 -0.4627  0.2896
  168MOL    O5030444   2.136   6.758   0.111  0.0650 -0.2276  0.4788
  168MOL    O5130445   2.143   6.742   0.339 -0.4782  0.3885  0.1047
  168MOL    H5230446   2.361   6.986   0.358  0.7888  2.6162 -0.4101
  168MOL    H5330447   2.475   6.961   0.218 -0.0995 -0.7351  0.4018
  168MOL    H5430448   2.386   6.779   0.134 -1.9206  0.2633 -1.1495
  168MOL    H5530449   2.050   6.726   0.347 -0.3451 -1.6384 -2.0861
  168MOL    C5630450   2.410   6.717   0.341  0.3114  0.1290  0.3769
  168MOL    C5730451   2.565   6.701   0.350 -0.2907 -0.3594  0.0903
  168MOL    C5830452   2.636   6.651   0.227  0.3880  0.2488 -0.4280
  168MOL    O5930453   2.584   6.639   0.114  0.5725 -0.3124  0.1427
  168MOL    O6030454   2.764   6.621   0.264  0.0142  0.0415  0.4340
  168MOL    H6130455   2.372   6.615   0.337  1.8478 -0.4679  0.6868
  168MOL    H6230456   2.384   6.764   0.436 -1.1172 -0.4331  0.2880
  168MOL    H6330457   2.599   6.803   0.331  0.2636 -1.1197 -3.3389
  168MOL    H6430458   2.811   6.575   0.196  0.1746 -0.1384  0.6666
  168MOL    C6530459   2.615   6.656   0.491  0.0780 -0.8881  0.1299
  168MOL    C6630460   2.684   6.765   0.567  0.3330 -0.6839  0.0286
  168MOL    C6730461   2.597   6.893   0.579 -0.5246 -0.7550 -0.4822
  168MOL    O6830462   2.622   7.000   0.520  0.0077 -0.0896  0.1447
  168MOL    O6930463   2.487   6.879   0.659  0.3380 -0.2847 -0.8611
  168MOL    H7030464   2.687   6.575   0.491  0.2125 -0.8355  3.0260
  168MOL    H7130465   2.533   6.610   0.547 -0.1129 -2.7507 -1.6182
  168MOL    H7230466   2.690   6.730   0.670  1.5425  3.1788  1.3296
  168MOL    H7330467   2.428   6.953   0.654 -0.3358 -0.6680  1.0066
  168MOL    C7430468   2.824   6.795   0.513  0.0546 -0.6273  0.3876
  168MOL    C7530469   2.904   6.869   0.623 -0.1961  0.5411  0.0396
  168MOL    C7630470   2.962   7.004   0.582 -0.0924  0.1897  0.0134
  168MOL    O7730471   3.078   7.038   0.601  0.0527 -0.0326  0.3153
  168MOL    O7830472   2.872   7.081   0.510  0.1097 -0.5175 -0.6523
  168MOL    H7930473   2.820   6.854   0.421  2.6406  0.2523  0.7896
  168MOL    H8030474   2.877   6.705   0.481 -1.4666 -1.1609 -0.6838
  168MOL    H8130475   2.844   6.895   0.710 -1.7504 -2.8118  0.0406
  168MOL    H8230476   2.791   7.034   0.519 -1.0562  1.8474  1.9711
  168MOL    C8330477   3.020   6.775   0.684  0.2390  0.7047  0.2725
  168MOL    C8430478   3.068   6.822   0.823 -0.0601  0.0855  0.3761
  168MOL    C8530479   3.220   6.833   0.833 -0.2453  0.0166  0.8662
  168MOL    O8630480   3.291   6.751   0.776 -0.1165  0.3797 -0.1410
  168MOL    O8730481   3.257   6.922   0.923  0.2152 -0.4397 -0.4235
  168MOL    H8830482   3.095   6.779   0.605  0.2475 -2.7430  0.0470
  168MOL    H8930483   2.984   6.672   0.681  0.3518  0.6790 -0.3534
  168MOL    H9030484   3.030   6.923   0.833  0.6244  0.2862  0.9671
  168MOL    H9130485   3.348   6.947   0.914  0.8890 -1.9811  1.7239
  168MOL    C9230486   3.022   6.740   0.943  0.0525  0.6793  0.3793
  168MOL    C9330487   2.867   6.738   0.958 -0.4970  0.3519 -0.4996
  168MOL    C9430488   2.799   6.866   1.006 -0.3944  0.4873  0.3854
  168MOL    O9530489   2.825   6.926   1.105  0.0365  0.0567 -0.2816
  168MOL    O9630490   2.704   6.900   0.917  0.4171 -0.1277  0.0875
  168MOL    H9730491   3.076   6.774   1.032  0.9079  1.1586 -0.3171
  168MOL    H9830492   3.057   6.638   0.923 -2.1582 -0.2346  1.0138
  168MOL    H9930493   2.828   6.723   0.858 -0.3410 -1.8721 -0.2572
  168MOL   H10030494   2.647   6.974   0.932 -1.0026 -0.6211 -2.4880
  168MOL   C10130495   2.801   6.610   1.024 -0.8815 -0.0260 -0.0285
  168MOL   C10230496   2.750   6.509   0.923 -0.4358  0.2640  0.1086
  168MOL   C10330497   2.616   6.540   0.856 -0.4173  0.1041  0.2696
  168MOL   O10430498   2.565   6.475   0.768  0.3550  0.1686 -0.3163
  168MOL   O10530499   2.559   6.649   0.914  0.3689 -0.0366 -0.0343
  168MOL   H10630500   2.722   6.635   1.095 -0.2000 -0.2019  0.7980
  168MOL   H10730501   2.862   6.560   1.099 -3.1758 -0.5998  1.5268
  168MOL   H10830502   2.823   6.507   0.842 -3.1366 -0.3562 -2.3869
  168MOL   H10930503   2.472   6.669   0.884  0.5694  0.7710 -0.0921
  168MOL   C11030504   2.762   6.363   0.973  0.0899  0.2061  0.6774
  168MOL   C11130505   2.650   6.288   1.047 -0.0861 -0.5794 -0.1905
  168MOL   C11230506   2.605   6.363   1.176 -0.2946 -0.3122  0.1762
  168MOL   O11330507   2.687   6.432   1.231 -0.0679  0.1796  0.0638
  168MOL   O11430508   2.475   6.348   1.219 -0.1592  0.9618  0.4207
  168MOL   H11530509   2.858   6.345   1.021 -0.6166  1.4276  2.5607
  168MOL   H11630510   2.773   6.305   0.881  2.0772  1.0719  0.3288
  168MOL   H11730511   2.564   6.298   0.981 -0.1653  0.3189  0.0402
  168MOL   H11830512   2.460   6.388   1.304 -3.5246  0.3024  0.2059
  168MOL   C11930513   2.683   6.144   1.078 -0.9933  0.1371 -0.7903
  168MOL   C12030514   2.566   6.045   1.093  0.3562 -0.7201 -0.2163
  168MOL   C12130515   2.618   5.917   1.153  0.2222  0.0344 -0.0820
  168MOL   O12230516   2.600   5.804   1.098  0.2092  0.7844  0.0977
  168MOL   O12330517   2.674   5.941   1.276 -0.4679  0.1922 -0.4145
  168MOL   H12430518   2.756   6.148   1.159 -0.4563  0.0744 -1.2675
  168MOL   H12530519   2.745   6.113   0.993 -0.1983 -0.0725 -0.1444
  168MOL   H12630520   2.507   6.098   1.168  1.0582 -0.2257 -0.0065
  168MOL   H12730521   2.705   5.865   1.324 -0.9936  0.4726  0.3839
  168MOL   C12830522   2.492   6.030   0.958 -0.6064 -0.6976 -0.0396
  168MOL   C12930523   2.339   6.059   0.964  0.4553 -0.1362 -0.5307
  168MOL   C13030524   2.283   5.941   1.038 -0.2527  0.2954  0.4516
  168MOL   O13130525   2.246   5.942   1.155  0.1223 -0.4868 -0.1876
  168MOL   O13230526   2.281   5.822   0.963 -0.3444 -0.2283 -0.0351
  168MOL   H13330527   2.513   5.932   0.914 -2.1628 -0.8669 -0.4314
  168MOL   H13430528   2.538   6.092   0.882  2.5549 -2.8617  0.0213
  168MOL   H13530529   2.317   6.145   1.026 -3.2899 -1.1144 -0.3865
  168MOL   H13630530   2.271   5.750   1.023 -1.2750  0.5521  0.7688
  168MOL   C13730531   2.274   6.086   0.830  0.3014 -0.3006 -0.3356
  168MOL   C13830532   2.120   6.137   0.841 -0.0979 -0.4382  0.1138
  168MOL   C13930533   2.035   6.119   0.709  0.2683 -0.2803 -0.2207
  168MOL   O14030534   1.976   6.202   0.645  0.1963 -0.0247 -0.1925
  168MOL   O14130535   2.053   5.990   0.670  0.4626 -0.0284  0.4000
  168MOL   H14230536   2.273   5.992   0.774  0.0583  0.3024 -1.3725
  168MOL   H14330537   2.320   6.160   0.764 -2.8391  0.3453 -1.9405
  168MOL   H14430538   2.086   6.078   0.926  0.2870 -1.0602 -0.1597
  168MOL   H14530539   1.985   5.982   0.604 -0.3292  0.1797  1.1864
  168MOL   C14630540   2.103   6.283   0.887  0.4699 -0.6207  0.2687
  168MOL   C14730541   1.959   6.313   0.945 -0.6674  0.4059 -0.2567
  168MOL   C14830542   1.928   6.463   0.950 -0.1267 -0.6252  0.0535
  168MOL   O14930543   1.969   6.537   1.046 -0.6361 -0.1563  0.7129
  168MOL   O15030544   1.847   6.503   0.851 -0.1149 -0.1566  0.2656
  168MOL   H15130545   2.114   6.348   0.800  0.5457  1.9234  2.1082
  168MOL   H15230546   2.174   6.300   0.969 -0.4453  0.0102  0.9405
  168MOL   H15330547   1.887   6.278   0.871  1.1503  0.8726 -2.3101
  168MOL   H15430548   1.808   6.585   0.876  0.2566  0.4240 -1.0333
  168MOL   C15530549   1.929   6.252   1.089 -0.2740 -0.2428 -0.0184
  168MOL   C15630550   1.789   6.185   1.102  0.1522 -0.0630 -0.4700
  168MOL   C15730551   1.757   6.141   1.250 -0.5500  0.0849  0.2626
  168MOL   O15830552   1.657   6.172   1.310  0.0947  0.1352 -0.0046
  168MOL   O15930553   1.847   6.049   1.302  0.4063  0.0177 -0.1379
  168MOL   H16030554   1.929   6.335   1.159  1.6933 -0.4823  0.2899
  168MOL   H16130555   1.995   6.174   1.128 -0.6640 -1.1454 -1.1111
  168MOL   H16230556   1.715   6.259   1.073 -1.2786 -0.1200  2.8043
  168MOL   H16330557   1.803   6.008   1.374 -0.0923 -0.8087 -0.9016
  168MOL   C16430558   1.777   6.059   1.009 -0.4264  0.0542 -0.4365
  168MOL   C16530559   1.649   5.969   1.012 -0.1778  0.4461  0.3340
  168MOL   C16630560   1.665   5.855   0.915  0.5805  0.1447  0.6406
  168MOL   O16730561   1.657   5.861   0.794 -0.0320  0.4683  0.3728
  168MOL   O16830562   1.649   5.742   0.990 -0.0905 -0.0882 -0.0271
  168MOL   H16930563   1.866   5.997   1.022 -0.9118 -0.5070  0.2566
  168MOL   H17030564   1.776   6.091   0.905 -1.2429  0.9350 -0.1579
  168MOL   H17130565   1.647   5.929   1.113 -0.2567 -1.4777 -0.3877
  168MOL   H17230566   1.638   5.661   0.944 -0.4562  0.7332 -1.4192
  168MOL   C17330567   1.516   6.044   0.987  0.3042  0.3059 -0.1052
  168MOL   C17430568   1.383   5.959   0.980  0.6985  0.5030  0.7378
  168MOL   C17530569   1.265   6.060   0.974 -0.0369 -0.3263  0.5463
  168MOL   O17630570   1.181   6.071   1.062  0.1478  0.5416  0.2993
  168MOL   O17730571   1.270   6.139   0.860 -0.5055  0.1281 -0.3433
  168MOL   H17830572   1.528   6.092   0.890  0.4473 -2.1528 -1.3472
  168MOL   H17930573   1.514   6.120   1.065  0.8885  0.6942 -0.4670
  168MOL   H18030574   1.384   5.896   0.891 -2.1194 -0.3508  1.2433
  168MOL   H18130575   1.335   6.098   0.805 -0.4672  0.8881 -0.8725
  168MOL   H18230576   1.372   5.897   1.069  2.0838 -0.4433  0.2653
  169MOL     C130577   3.921   4.175   3.745 -0.5219  0.1313  0.7765
  169MOL     C230578   3.792   4.119   3.670  0.0092  0.0204  0.0789
  169MOL     C330579   3.728   4.014   3.765 -0.5097  0.0249  0.1553
  169MOL     O430580   3.755   3.899   3.759 -0.1514  0.1525 -0.3699
  169MOL     O530581   3.649   4.060   3.869 -0.2278  0.3137 -0.4930
  169MOL     H630582   3.897   4.223   3.840 -0.9487  1.4723  0.0066
  169MOL     H730583   3.984   4.087   3.756 -0.8871  0.2004  3.9670
  169MOL     H830584   3.730   4.209   3.669  0.8392  0.5921 -0.6837
  169MOL     H930585   3.622   3.979   3.909 -0.0872 -1.2868 -3.5008
  169MOL    H1030586   3.979   4.247   3.688  0.2991  0.1599  1.6257
  169MOL    C1130587   3.829   4.067   3.530  0.3543 -0.2393 -1.0371
  169MOL    C1230588   3.815   4.158   3.404 -1.1175  0.2408  0.5923
  169MOL    C1330589   3.839   4.070   3.281 -0.1373 -0.1502  0.3988
  169MOL    O1430590   3.781   4.088   3.171  0.0928  0.1099 -0.0508
  169MOL    O1530591   3.932   3.975   3.302 -0.3970  0.3377 -0.4670
  169MOL    H1630592   3.765   3.981   3.508  1.2761 -1.4806  0.9829
  169MOL    H1730593   3.935   4.044   3.527  0.6105  0.9646 -1.4536
  169MOL    H1830594   3.709   4.184   3.394 -1.0253  0.9282  1.3905
  169MOL    H1930595   3.949   3.914   3.232 -2.6166 -1.0640  0.1489
  169MOL    C2030596   3.901   4.289   3.398 -0.3679  0.8218 -0.2141
  169MOL    C2130597   3.867   4.375   3.272 -0.3794 -0.0821  0.3996
  169MOL    C2230598   3.968   4.374   3.157  0.3344  0.5901  0.1057
  169MOL    O2330599   3.930   4.354   3.040  0.0582  0.3925  0.2648
  169MOL    O2430600   4.101   4.394   3.194  0.0861  0.6470  0.0610
  169MOL    H2530601   3.998   4.240   3.406 -2.0384 -2.6564 -0.1807
  169MOL    H2630602   3.877   4.346   3.487 -0.9109  0.9579 -0.4462
  169MOL    H2730603   3.773   4.342   3.228  0.2708 -0.5514 -0.6398
  169MOL    H2830604   4.150   4.384   3.113  1.6941  0.7554  1.0044
  169MOL    C2930605   3.842   4.525   3.317 -0.3456 -0.4855 -0.1999
  169MOL    C3030606   3.701   4.557   3.380  0.5579 -0.3761  0.1651
  169MOL    C3130607   3.620   4.639   3.277 -0.0447  0.3637 -0.2563
  169MOL    O3230608   3.557   4.741   3.320 -0.3018 -0.0552  0.3251
  169MOL    O3330609   3.610   4.587   3.148 -0.4264 -0.3262 -0.1867
  169MOL    H3430610   3.854   4.591   3.230 -0.9801  0.1851  0.2156
  169MOL    H3530611   3.915   4.560   3.389  0.0710  0.3428 -1.0096
  169MOL    H3630612   3.651   4.461   3.394  2.4835 -1.5518 -0.8111
  169MOL    H3730613   3.552   4.634   3.090  0.7260  0.1757 -0.9522
  169MOL    C3830614   3.720   4.623   3.514  0.3565  0.2934 -0.4641
  169MOL    C3930615   3.598   4.615   3.610 -0.5272  0.3543  0.4213
  169MOL    C4030616   3.596   4.725   3.712 -0.3474  0.6162  0.2003
  169MOL    O4130617   3.647   4.718   3.824  0.1572  0.3607  0.2012
  169MOL    O4230618   3.536   4.839   3.671 -0.2881 -0.2888  0.1788
  169MOL    H4330619   3.760   4.724   3.505  1.5372 -0.1639 -0.4458
  169MOL    H4430620   3.797   4.565   3.564  0.7880  1.1811 -0.0914
  169MOL    H4530621   3.512   4.630   3.546 -0.2182 -1.9123 -0.5499
  169MOL    H4630622   3.535   4.908   3.736 -1.4646 -0.8245  0.7449
  169MOL    C4730623   3.578   4.476   3.667 -0.4700 -0.3965  0.0430
  169MOL    C4830624   3.438   4.412   3.664  0.6894  0.0263 -0.7964
  169MOL    C4930625   3.400   4.363   3.527 -0.1548 -0.1411 -0.3505
  169MOL    O5030626   3.316   4.413   3.451 -0.0582 -0.7034 -0.2456
  169MOL    O5130627   3.469   4.253   3.504 -0.6190  0.8686 -0.0544
  169MOL    H5230628   3.613   4.469   3.770 -2.6255  3.0074  1.0902
  169MOL    H5330629   3.644   4.406   3.616  1.0162 -0.4177  1.9640
  169MOL    H5430630   3.444   4.325   3.730 -0.2344  1.0806  0.7148
  169MOL    H5530631   3.448   4.217   3.419  1.1537 -1.1533  0.3295
  169MOL    C5630632   3.332   4.513   3.724  0.2382  0.3723  0.1703
  169MOL    C5730633   3.193   4.455   3.761  0.1883  0.4803 -0.2413
  169MOL    C5830634   3.083   4.503   3.667  0.5985 -0.7043 -0.0315
  169MOL    O5930635   3.098   4.618   3.612 -0.2158 -0.4745 -0.1580
  169MOL    O6030636   2.968   4.431   3.663  0.4808  0.2716 -0.2444
  169MOL    H6130637   3.328   4.596   3.653 -0.6021 -0.0840 -0.3221
  169MOL    H6230638   3.366   4.569   3.811 -2.7454  1.2367  0.8234
  169MOL    H6330639   3.194   4.347   3.752  2.2689  0.3981  0.5036
  169MOL    H6430640   2.905   4.478   3.610  0.5975  1.5600  0.7495
  169MOL    C6530641   3.152   4.484   3.908  0.2374 -0.2887 -0.0146
  169MOL    C6630642   3.016   4.424   3.963 -0.4560 -0.0893  0.6715
  169MOL    C6730643   3.004   4.439   4.113  0.1878 -0.2001  0.0545
  169MOL    O6830644   2.921   4.507   4.169 -0.1155  0.3256  0.6095
  169MOL    O6930645   3.099   4.370   4.184  0.4124  0.1927 -0.1312
  169MOL    H7030646   3.146   4.589   3.938  1.2496 -0.4934  0.9555
  169MOL    H7130647   3.236   4.449   3.968  0.4161 -2.3655 -1.4452
  169MOL    H7230648   2.947   4.497   3.920  1.8442  2.1635  0.6181
  169MOL    H7330649   3.071   4.367   4.275 -1.2469  0.3895 -0.6106
  169MOL    C7430650   2.991   4.272   3.926  0.4674  0.3227  0.3742
  169MOL    C7530651   2.846   4.222   3.964 -0.2370  0.4689 -0.3159
  169MOL    C7630652   2.841   4.074   3.917 -0.3037  0.0729  0.8793
  169MOL    O7730653   2.890   4.033   3.810 -0.6049  0.6846  0.1062
  169MOL    O7830654   2.793   3.988   4.011  0.0103  0.7843 -0.1302
  169MOL    H7930655   3.070   4.216   3.976 -0.3802 -2.0139 -0.8321
  169MOL    H8030656   3.003   4.267   3.818  1.9567  3.6685  0.3069
  169MOL    H8130657   2.833   4.219   4.073  2.8793  0.7576  0.1031
  169MOL    H8230658   2.823   3.904   3.980  0.2597  0.9649 -0.3839
  169MOL    C8330659   2.731   4.297   3.896 -0.8564  0.5730 -0.2975
  169MOL    C8430660   2.591   4.286   3.974 -0.3033  0.7270 -0.0522
  169MOL    C8530661   2.517   4.159   3.940 -0.3309  0.0398  0.3346
  169MOL    O8630662   2.504   4.065   4.023  0.5914 -0.5780  0.3972
  169MOL    O8730663   2.479   4.151   3.810  1.2005 -0.0435 -0.8836
  169MOL    H8830664   2.720   4.266   3.792  0.6324  0.2486 -0.3667
  169MOL    H8930665   2.752   4.403   3.898  1.4343  0.1357 -0.0168
  169MOL    H9030666   2.615   4.300   4.079  0.0053  0.3542 -0.0689
  169MOL    H9130667   2.455   4.060   3.795 -0.8361  0.5693 -1.5861
  169MOL    C9230668   2.506   4.406   3.931 -0.1470  0.1463 -0.8473
  169MOL    C9330669   2.538   4.535   4.003 -0.4057 -0.5170 -0.2632
  169MOL    C9430670   2.518   4.539   4.160 -0.6061 -0.5391  0.2028
  169MOL    O9530671   2.445   4.464   4.219 -0.3133 -0.1189  0.1332
  169MOL    O9630672   2.596   4.634   4.221  0.3373  0.1492  0.2601
  169MOL    H9730673   2.398   4.390   3.937 -0.2183 -0.3746 -2.8920
  169MOL    H9830674   2.522   4.414   3.823  2.7877 -2.2047 -0.6597
  169MOL    H9930675   2.644   4.555   3.995 -0.1205 -1.1320  1.5956
  169MOL   H10030676   2.560   4.634   4.309  0.1102 -0.4913  0.1712
  169MOL   C10130677   2.457   4.649   3.943 -0.1548  0.5710 -0.3591
  169MOL   C10230678   2.541   4.770   3.890  0.3508 -0.2378  0.0116
  169MOL   C10330679   2.453   4.895   3.889 -0.1429 -0.0460  0.0822
  169MOL   O10430680   2.405   4.946   3.791 -0.1323 -0.1996  0.2733
  169MOL   O10530681   2.425   4.946   4.012 -0.4802  0.2752 -0.0529
  169MOL   H10630682   2.375   4.683   4.006  1.0153  2.4433  0.1811
  169MOL   H10730683   2.396   4.613   3.859  0.1732 -1.6403  0.3066
  169MOL   H10830684   2.626   4.795   3.954  0.3478 -0.4208  0.0872
  169MOL   H10930685   2.385   5.031   4.018 -1.0329  0.0465 -0.4156
  169MOL   C11030686   2.603   4.726   3.758  0.0918  0.1005  0.3540
  169MOL   C11130687   2.739   4.790   3.718  0.0017 -0.5478 -0.3909
  169MOL   C11230688   2.787   4.714   3.592  0.3014 -0.5256  0.8564
  169MOL   O11330689   2.787   4.594   3.575 -0.1863  0.1288  0.5036
  169MOL   O11430690   2.848   4.808   3.512  0.0894 -0.0821  0.0151
  169MOL   H11530691   2.542   4.759   3.675  1.5924 -0.5158 -1.0112
  169MOL   H11630692   2.614   4.618   3.753 -0.5897  0.0419  0.0877
  169MOL   H11730693   2.726   4.895   3.693 -0.8374 -0.2864  1.0722
  169MOL   H11830694   2.882   4.767   3.434  0.3239  0.3497 -0.1109
  169MOL   C11930695   2.856   4.788   3.821  0.6069  0.1124  0.4363
  169MOL   C12030696   2.978   4.875   3.787 -0.1786  0.7252  0.0822
  169MOL   C12130697   3.096   4.860   3.886  0.2503  0.3248 -0.1532
  169MOL   O12230698   3.083   4.817   4.006 -0.1743  0.0068 -0.2691
  169MOL   O12330699   3.216   4.906   3.836 -0.0521 -0.3848  0.2843
  169MOL   H12430700   2.904   4.691   3.833  1.5558  0.7012  1.4549
  169MOL   H12530701   2.825   4.805   3.924 -0.1186 -2.0173  0.5928
  169MOL   H12630702   3.026   4.849   3.693 -0.5612 -2.1884  0.6380
  169MOL   H12730703   3.285   4.899   3.901 -0.6287  4.4073  1.5675
  169MOL   C12830704   2.945   5.025   3.771 -0.2370  0.4682 -0.3722
  169MOL   C12930705   2.845   5.093   3.874 -0.4243  0.6742 -0.5328
  169MOL   C13030706   2.767   5.197   3.793  0.0566  1.0339  0.1466
  169MOL   O13130707   2.829   5.287   3.732  0.3569  0.0321 -0.0426
  169MOL   O13230708   2.637   5.200   3.826 -0.3942 -0.4327  0.1587
  169MOL   H13330709   2.904   5.032   3.670 -0.0838  2.1555 -0.3264
  169MOL   H13430710   3.039   5.081   3.768  0.5098 -0.7115  0.6281
  169MOL   H13530711   2.767   5.026   3.911  2.2956 -2.9527 -1.0410
  169MOL   H13630712   2.588   5.267   3.781 -1.5545 -2.0832 -1.0640
  169MOL   C13730713   2.923   5.157   3.995 -0.6699  0.0111  0.7516
  169MOL   C13830714   2.862   5.222   4.129  0.6624  0.6910  0.0104
  169MOL   C13930715   2.786   5.115   4.215  0.6274 -0.8097 -0.2551
  169MOL   O14030716   2.674   5.134   4.271 -0.1435  0.5080 -0.3637
  169MOL   O14130717   2.861   5.005   4.234 -0.4345  0.5837  0.8156
  169MOL   H14230718   2.980   5.236   3.946  0.1178 -0.8017  0.3593
  169MOL   H14330719   3.002   5.090   4.025 -1.9479 -0.5713  2.9437
  169MOL   H14430720   2.946   5.261   4.186  1.3465 -0.8437  0.0701
  169MOL   H14530721   2.817   4.949   4.297 -2.5292  0.6345 -0.5503
  169MOL   C14630722   2.779   5.345   4.107  0.1600 -0.9705 -0.3045
  169MOL   C14730723   2.860   5.463   4.041 -0.0909  0.2346 -0.1053
  169MOL   C14830724   2.933   5.542   4.148 -1.1994 -0.2410  0.6330
  169MOL   O14930725   2.889   5.555   4.263  0.4537  0.3426 -0.1530
  169MOL   O15030726   3.053   5.591   4.108  0.5089  0.4318 -0.4745
  169MOL   H15130727   2.728   5.382   4.197 -0.9278 -0.2657 -1.1962
  169MOL   H15230728   2.702   5.313   4.037  0.2271 -2.7953  0.4387
  169MOL   H15330729   2.925   5.420   3.964 -1.0807 -0.8475 -0.3539
  169MOL   H15430730   3.084   5.646   4.178 -0.6586  0.5746 -0.0574
  169MOL   C15530731   2.757   5.555   3.963  1.2472  0.2433 -0.3487
  169MOL   C15630732   2.819   5.664   3.862  0.3015 -0.8629 -0.3519
  169MOL   C15730733   2.788   5.808   3.903 -0.2806  0.3190  0.3291
  169MOL   O15830734   2.672   5.841   3.929  0.2635  0.3469  0.3001
  169MOL   O15930735   2.898   5.877   3.918  0.2348  0.0944  0.1720
  169MOL   H16030736   2.687   5.599   4.035 -0.2100  1.1202 -2.2486
  169MOL   H16130737   2.695   5.484   3.908 -0.4531  1.9921 -0.7544
  169MOL   H16230738   2.928   5.655   3.865  0.2409 -1.5250 -0.1407
  169MOL   H16330739   2.863   5.964   3.931 -1.3892 -0.7549  1.6019
  169MOL   C16430740   2.773   5.634   3.716 -0.0851 -0.0065  0.0991
  169MOL   C16530741   2.873   5.688   3.604  0.1034  0.4218  0.5176
  169MOL   C16630742   3.013   5.621   3.597 -1.2454 -0.0521  0.2231
  169MOL   O16730743   3.058   5.545   3.681  0.1397 -0.1553  0.6600
  169MOL   O16830744   3.087   5.637   3.483  0.0305  0.0397  0.1476
  169MOL   H16930745   2.672   5.654   3.681  0.8519  0.1676 -2.6530
  169MOL   H17030746   2.773   5.526   3.705 -1.4537  0.2252 -2.5307
  169MOL   H17130747   2.827   5.655   3.511  2.0289  2.7459 -1.3425
  169MOL   H17230748   3.167   5.586   3.480 -0.8373 -1.3633  0.2379
  169MOL   C17330749   2.880   5.840   3.582 -0.0135 -0.2607 -0.1283
  169MOL   C17430750   2.738   5.911   3.560 -0.3364  0.7177  0.6564
  169MOL   C17530751   2.754   6.064   3.538 -0.0300 -0.3843  1.2179
  169MOL   O17630752   2.863   6.122   3.531  0.3457 -0.5783  0.1214
  169MOL   O17730753   2.639   6.124   3.503 -0.3773  0.0287  0.1272
  169MOL   H17830754   2.948   5.866   3.501  0.4814 -1.2297 -0.0332
  169MOL   H17930755   2.931   5.894   3.662 -0.4262 -0.0717  0.0098
  169MOL   H18030756   2.701   5.881   3.462 -0.2233 -0.1037  0.8628
  169MOL   H18130757   2.652   6.217   3.489 -1.5487  0.4122  1.4472
  169MOL   H18230758   2.665   5.898   3.639 -1.4008  2.5981  0.0207
  170MOL     C130759   1.348   6.552   0.728  0.0409 -0.4073  0.2413
  170MOL     C230760   1.486   6.578   0.668 -0.4693  0.0404  0.4835
  170MOL     C330761   1.507   6.726   0.654  0.5870 -0.3156  0.1110
  170MOL     O430762   1.492   6.785   0.545 -0.0634  0.3990 -0.5617
  170MOL     O530763   1.547   6.785   0.764  0.0388  0.7011 -0.5511
  170MOL     H630764   1.274   6.561   0.648 -0.6186 -1.4299  0.7203
  170MOL     H730765   1.338   6.455   0.777  0.6635 -0.5375  0.1113
  170MOL     H830766   1.557   6.537   0.740 -0.2495 -0.4986 -0.0365
  170MOL     H930767   1.568   6.871   0.731 -0.2195  0.2160 -2.0328
  170MOL    H1030768   1.329   6.629   0.803 -2.8505  0.9493 -1.7297
  170MOL    C1130769   1.513   6.494   0.544 -0.0165 -0.8105  0.2322
  170MOL    C1230770   1.515   6.339   0.557  0.5851  0.1375  0.1835
  170MOL    C1330771   1.646   6.290   0.627 -0.2426  0.0834  0.4664
  170MOL    O1430772   1.642   6.193   0.697  0.1455  0.4953  0.0132
  170MOL    O1530773   1.764   6.355   0.591 -0.3753 -0.1171  0.1678
  170MOL    H1630774   1.597   6.534   0.488  0.0541  1.1647  1.6867
  170MOL    H1730775   1.419   6.514   0.493 -0.0071  0.0543  0.5327
  170MOL    H1830776   1.428   6.315   0.618  0.3163 -0.5934 -0.4762
  170MOL    H1930777   1.841   6.332   0.640  1.6156 -0.9573 -3.1962
  170MOL    C2030778   1.497   6.260   0.422 -0.5969  0.3255  0.4959
  170MOL    C2130779   1.396   6.143   0.443 -0.3390 -0.3122  0.1497
  170MOL    C2230780   1.446   6.038   0.542  0.1121  0.3321 -0.1309
  170MOL    O2330781   1.409   6.032   0.656  0.0129  0.6744 -0.4628
  170MOL    O2430782   1.553   5.974   0.497  0.2539 -0.6544  0.1578
  170MOL    H2530783   1.589   6.229   0.372 -2.5908 -1.5028 -2.1628
  170MOL    H2630784   1.456   6.332   0.351  1.3545 -0.0747 -1.0785
  170MOL    H2730785   1.310   6.193   0.487 -0.4609 -0.1830 -0.2259
  170MOL    H2830786   1.594   5.934   0.573 -1.3749 -2.0624  0.3301
  170MOL    C2930787   1.341   6.068   0.319 -0.3998 -0.3370 -0.2979
  170MOL    C3030788   1.203   6.011   0.331 -0.4269  0.0694  0.0842
  170MOL    C3130789   1.202   5.872   0.401 -0.5710  0.0795  0.5713
  170MOL    O3230790   1.276   5.780   0.373 -0.0780 -0.0024  0.3989
  170MOL    O3330791   1.102   5.857   0.495 -0.5212  0.1127  0.3745
  170MOL    H3430792   1.415   5.993   0.289  0.6061 -0.8394  3.1791
  170MOL    H3530793   1.332   6.145   0.242 -0.7828 -0.0410  0.0405
  170MOL    H3630794   1.150   6.072   0.404  0.6268  1.1877 -0.0738
  170MOL    H3730795   1.110   5.773   0.538 -0.4450 -0.8970 -1.5321
  170MOL    C3830796   1.130   6.012   0.196  0.3174  0.6361  0.0365
  170MOL    C3930797   0.997   6.091   0.186 -0.3836  0.0233 -0.5528
  170MOL    C4030798   1.027   6.243   0.213 -0.1017 -0.0194  0.3051
  170MOL    O4130799   0.967   6.317   0.291  0.7126  0.3411 -0.3304
  170MOL    O4230800   1.132   6.292   0.133 -0.0660  0.2744  0.1133
  170MOL    H4330801   1.100   5.910   0.167  1.7125  0.4742 -0.9020
  170MOL    H4430802   1.201   6.040   0.118 -0.6473  0.7177 -0.8216
  170MOL    H4530803   0.966   6.077   0.083  0.5033  0.1561 -0.8411
  170MOL    H4630804   1.137   6.385   0.153 -0.8146  0.0041  1.6658
  170MOL    C4730805   0.883   6.035   0.285 -0.7638  0.6989 -0.5816
  170MOL    C4830806   0.814   5.898   0.241 -0.2668 -0.0563 -0.6714
  170MOL    C4930807   0.719   5.907   0.126  0.0957 -0.1528  0.0001
  170MOL    O5030808   0.729   5.828   0.032  0.3370  0.0335  0.0967
  170MOL    O5130809   0.621   6.001   0.151  0.2956  0.2291  0.5369
  170MOL    H5230810   0.804   6.106   0.307 -0.9123  0.0948  0.8970
  170MOL    H5330811   0.935   6.018   0.379 -0.8709  0.8820 -0.4895
  170MOL    H5430812   0.897   5.828   0.228  0.5456  1.3411 -3.3603
  170MOL    H5530813   0.562   6.015   0.079  1.7274  2.0900 -0.3088
  170MOL    C5630814   0.736   5.839   0.360 -0.0246 -0.0394  0.0617
  170MOL    C5730815   0.765   5.690   0.393 -0.3514  0.4086 -0.2881
  170MOL    C5830816   0.715   5.588   0.287  0.0790  0.6936  0.2580
  170MOL    O5930817   0.616   5.516   0.300  0.1800  0.2713 -0.1145
  170MOL    O6030818   0.799   5.591   0.182  0.4197 -0.9509 -0.5970
  170MOL    H6130819   0.631   5.858   0.338  0.3674 -0.6023 -2.4252
  170MOL    H6230820   0.763   5.890   0.452  0.1169  1.4131 -0.7725
  170MOL    H6330821   0.873   5.678   0.391 -0.6988 -3.1872 -2.0624
  170MOL    H6430822   0.777   5.533   0.111 -2.4477 -0.3135 -0.2669
  170MOL    C6530823   0.719   5.656   0.539 -0.3725  0.9649 -0.3746
  170MOL    C6630824   0.812   5.702   0.657  0.0159 -0.1193 -0.4748
  170MOL    C6730825   0.928   5.602   0.672  0.0420  0.2569 -0.4530
  170MOL    O6830826   1.046   5.637   0.662 -0.1652 -0.0251  0.4266
  170MOL    O6930827   0.886   5.476   0.703  0.1692  0.3428 -0.1072
  170MOL    H7030828   0.706   5.548   0.533  1.8472  0.6028  0.9177
  170MOL    H7130829   0.618   5.690   0.563 -0.3588 -0.5881  2.0962
  170MOL    H7230830   0.863   5.794   0.628  0.3931 -0.6684 -1.5725
  170MOL    H7330831   0.960   5.418   0.693  0.5146  0.8642 -0.5901
  170MOL    C7430832   0.738   5.721   0.798 -0.6347  0.0809  0.3160
  170MOL    C7530833   0.825   5.787   0.907 -0.3891 -0.4034 -0.2945
  170MOL    C7630834   0.762   5.812   1.042 -0.3036  0.6915  0.2143
  170MOL    O7730835   0.804   5.765   1.146 -0.1142 -0.0034  0.2939
  170MOL    O7830836   0.654   5.889   1.034  0.2354 -0.1327 -0.1682
  170MOL    H7930837   0.707   5.624   0.836  0.8535 -0.9884 -1.1687
  170MOL    H8030838   0.643   5.772   0.785  1.4848  3.7169 -1.7184
  170MOL    H8130839   0.903   5.713   0.927 -0.7147 -0.6849 -0.0697
  170MOL    H8230840   0.635   5.918   0.946 -2.6271 -1.8371 -0.1637
  170MOL    C8330841   0.916   5.911   0.868  0.3590 -0.3828 -0.0589
  170MOL    C8430842   0.845   6.048   0.838 -0.3364  0.3028  0.0988
  170MOL    C8530843   0.725   6.049   0.734 -0.0466  0.2886  0.2549
  170MOL    O8630844   0.748   6.078   0.616  0.1925  0.0049 -0.3007
  170MOL    O8730845   0.603   6.016   0.778 -0.4489 -0.0297 -0.3123
  170MOL    H8830846   0.979   5.887   0.782 -0.1320 -0.4318 -0.4096
  170MOL    H8930847   0.985   5.925   0.951  0.1685 -2.1644  0.4159
  170MOL    H9030848   0.796   6.083   0.929  0.5271  2.9772 -0.4225
  170MOL    H9130849   0.538   6.013   0.709  0.7554 -3.3379 -1.3795
  170MOL    C9230850   0.952   6.147   0.781 -0.2006  0.1873  0.7837
  170MOL    C9330851   0.911   6.298   0.770  0.0343 -0.1374 -0.1632
  170MOL    C9430852   0.976   6.367   0.650  0.3242 -0.3394 -0.2358
  170MOL    O9530853   0.922   6.436   0.567 -0.4299 -0.0906  0.2839
  170MOL    O9630854   1.110   6.345   0.654  0.3532  0.0257 -0.0921
  170MOL    H9730855   0.991   6.105   0.689  0.3925  0.9718  0.6651
  170MOL    H9830856   1.027   6.133   0.859  0.0846 -1.1276  0.2796
  170MOL    H9930857   0.807   6.309   0.740 -0.3273 -1.6961  0.4585
  170MOL   H10030858   1.133   6.290   0.727 -0.1214 -1.2664 -0.8890
  170MOL   C10130859   0.935   6.379   0.901 -0.0207 -0.2474 -0.4153
  170MOL   C10230860   0.852   6.512   0.913  0.1729 -0.5940 -0.2974
  170MOL   C10330861   0.925   6.597   1.028 -0.3423  0.6307  0.2003
  170MOL   O10430862   0.893   6.599   1.145  0.0850 -0.0124 -0.3414
  170MOL   O10530863   1.030   6.671   0.971 -0.3830  0.4445 -0.2321
  170MOL   H10630864   1.042   6.401   0.903  0.1493 -1.0905  0.3949
  170MOL   H10730865   0.904   6.323   0.990  2.5920  0.2203  0.8593
  170MOL   H10830866   0.867   6.568   0.821 -2.7187  0.3888 -0.2109
  170MOL   H10930867   1.077   6.724   1.034  0.7746  0.7163 -1.3000
  170MOL   C11030868   0.701   6.478   0.939 -0.0729  0.6003 -0.0776
  170MOL   C11130869   0.591   6.576   0.878 -0.7846 -0.3227 -0.1073
  170MOL   C11230870   0.601   6.704   0.963  0.3663 -0.0142  0.3817
  170MOL   O11330871   0.541   6.711   1.068 -0.3471 -0.4095  0.9841
  170MOL   O11430872   0.699   6.791   0.926 -0.6223 -0.1400  0.2242
  170MOL   H11530873   0.682   6.463   1.045  0.9684 -0.4143 -0.0340
  170MOL   H11630874   0.679   6.380   0.897  2.6999 -0.1395  0.1717
  170MOL   H11730875   0.628   6.593   0.777  1.0383 -0.1403  0.5757
  170MOL   H11830876   0.710   6.865   0.983  2.5240  1.1475 -1.8911
  170MOL   C11930877   0.446   6.515   0.869 -0.4546 -0.3602  0.1224
  170MOL   C12030878   0.322   6.593   0.808 -0.0685 -0.5682  0.4966
  170MOL   C12130879   0.191   6.553   0.885  0.2912 -0.2032 -0.4765
  170MOL   O12230880   0.098   6.488   0.833 -0.0888  0.1196  0.9479
  170MOL   O12330881   0.183   6.603   1.016 -0.3380  0.2710  0.0207
  170MOL   H12430882   0.427   6.498   0.975 -0.1448 -0.2215  0.2008
  170MOL   H12530883   0.461   6.414   0.830 -3.9271 -1.8567  2.4658
  170MOL   H12630884   0.324   6.702   0.809 -2.1786 -0.4244 -3.4620
  170MOL   H12730885   0.110   6.573   1.067  0.9712  2.0881  3.0640
  170MOL   C12830886   0.306   6.560   0.659 -0.6646  0.3356 -0.6251
  170MOL   C12930887   0.423   6.616   0.573  0.0949 -0.1011 -0.6671
  170MOL   C13030888   0.439   6.767   0.562 -0.3487 -0.2122 -0.2088
  170MOL   O13130889   0.351   6.848   0.573  0.1144  0.5316 -0.4547
  170MOL   O13230890   0.565   6.795   0.526 -0.4016  0.6366 -0.6039
  170MOL   H13330891   0.210   6.601   0.626 -2.2690 -2.7176  0.0079
  170MOL   H13430892   0.309   6.452   0.643 -2.4218  0.2105 -0.2851
  170MOL   H13530893   0.516   6.583   0.618 -0.1359  1.6140  1.1213
  170MOL   H13630894   0.589   6.886   0.533 -1.1689  0.7034  2.1027
  170MOL   C13730895   0.421   6.551   0.430  0.4762 -0.8526  0.1356
  170MOL   C13830896   0.532   6.451   0.388 -0.0222  0.5092  0.1273
  170MOL   C13930897   0.570   6.339   0.487  0.5863  0.4423  0.5143
  170MOL   O14030898   0.522   6.321   0.601 -0.1419  0.3429  0.3045
  170MOL   O14130899   0.659   6.256   0.431  0.3707  0.0889 -0.0375
  170MOL   H14230900   0.428   6.629   0.354  0.2907 -0.2391  0.7423
  170MOL   H14330901   0.326   6.498   0.423 -0.1653  0.3019 -0.0640
  170MOL   H14430902   0.493   6.395   0.303  0.2922 -2.2972  1.7769
  170MOL   H14530903   0.690   6.188   0.489 -1.1346  0.5316  1.3033
  170MOL   C14630904   0.661   6.522   0.326  0.0117 -0.1413 -0.7427
  170MOL   C14730905   0.646   6.571   0.175 -0.2447  0.0248  0.3780
  170MOL   C14830906   0.616   6.444   0.082  0.3888 -0.2387  0.1278
  170MOL   O14930907   0.537   6.436   7.837 -1.0343 -0.1107  0.2845
  170MOL   O15030908   0.700   6.345   0.107  0.4739  0.4026  0.2564
  170MOL   H15130909   0.751   6.461   0.337 -0.0208 -0.1398 -0.4659
  170MOL   H15230910   0.690   6.601   0.395  0.9609  0.2127 -1.5455
  170MOL   H15330911   0.565   6.644   0.170 -0.7071 -0.6000 -1.6247
  170MOL   H15430912   0.749   6.374   0.183  1.0047  1.0614 -0.3357
  170MOL   C15530913   0.779   6.649   0.134 -0.3080  0.2094 -0.2762
  170MOL   C15630914   0.773   6.740   0.012  0.4980 -1.0112 -0.7829
  170MOL   C15730915   0.670   6.856   0.031 -0.3247  0.3014  0.4779
  170MOL   O15830916   0.625   6.923   7.793  0.3874 -0.0503 -0.4126
  170MOL   O15930917   0.644   6.889   0.162 -0.1008  0.0022 -0.1180
  170MOL   H16030918   0.865   6.582   0.129  0.0809  0.7342 -0.6091
  170MOL   H16130919   0.801   6.716   0.217  0.3238  0.3858 -0.5874
  170MOL   H16230920   0.865   6.798   0.007 -0.2081  0.0899 -0.9909
  170MOL   H16330921   0.602   6.973   0.170 -0.2280 -0.1363  0.6341
  170MOL   C16430922   0.757   6.674   7.729 -0.0618  1.2691 -0.9511
  170MOL   C16530923   0.860   6.556   7.694  0.2113 -0.3546  0.4911
  170MOL   C16630924   1.003   6.610   7.700  0.3350  0.3472 -0.6087
  170MOL   O16730925   1.084   6.573   7.785  0.2149  0.3565 -0.1194
  170MOL   O16830926   1.020   6.707   7.605  0.3847 -0.0185  0.5099
  170MOL   H16930927   0.782   6.746   7.651  0.4614  0.7063 -1.3082
  170MOL   H17030928   0.655   6.641   7.710  0.1321  1.8528 -3.1454
  170MOL   H17130929   0.844   6.477   7.767 -2.5777 -0.0362  0.2954
  170MOL   H17230930   1.105   6.743   7.623  0.8276 -0.8796  0.1713
  170MOL   C17330931   0.821   6.491   7.551  0.8696  0.5661 -0.0388
  170MOL   C17430932   0.911   6.375   7.510 -0.0985 -0.1562  0.8747
  170MOL   C17530933   0.873   6.303   7.379 -0.6990  0.1323 -1.0867
  170MOL   O17630934   0.941   6.219   7.322 -0.0347 -0.1968 -0.6182
  170MOL   O17730935   0.754   6.351   7.337  0.1445 -0.2895  0.2735
  170MOL   H17830936   0.821   6.565   7.472  0.9309 -3.7307 -4.2543
  170MOL   H17930937   0.720   6.452   7.560  0.1976  2.5840  1.7016
  170MOL   H18030938   1.010   6.419   7.498 -0.7487  0.3613 -3.5938
  170MOL   H18130939   0.724   6.307   7.259  0.1018 -0.2786  0.2837
  170MOL   H18230940   0.926   6.298   7.586 -2.0192 -0.6422  0.7737
  171MOL     C130941   3.271   1.203   3.587  0.0881  0.1054  0.1616
  171MOL     C230942   3.285   1.196   3.423 -0.0803  0.3562 -0.2296
  171MOL     C330943   3.344   1.325   3.375  0.1717 -0.0668  0.0445
  171MOL     O430944   3.464   1.339   3.342 -0.0633  0.2287 -0.1164
  171MOL     O530945   3.254   1.426   3.365 -0.2348  0.4076 -0.5802
  171MOL     H630946   3.190   1.156   3.641  1.4828 -1.2815  1.0924
  171MOL     H730947   3.371   1.184   3.627  0.4318  3.6009  1.1037
  171MOL     H830948   3.356   1.118   3.394  2.7748  2.2176  1.4590
  171MOL     H930949   3.293   1.494   3.311  0.2144 -0.8748 -1.9039
  171MOL    H1030950   3.255   1.305   3.622  3.0713  0.6027  0.2355
  171MOL    C1130951   3.152   1.161   3.355 -0.1272  0.5288  0.2834
  171MOL    C1230952   3.123   1.012   3.323  0.0232  0.0766  0.3292
  171MOL    C1330953   3.210   0.960   3.204  0.2754  0.5260 -0.5645
  171MOL    O1430954   3.316   1.011   3.165  0.6533  0.2907  0.4936
  171MOL    O1530955   3.173   0.831   3.174  0.0515  0.2039  0.6170
  171MOL    H1630956   3.133   1.221   3.266 -1.2247  0.7286  0.6356
  171MOL    H1730957   3.072   1.207   3.414 -0.6762 -0.1234  0.0520
  171MOL    H1830958   3.161   0.953   3.406  0.3947  1.7082  1.3347
  171MOL    H1930959   3.242   0.819   3.110 -0.3233 -1.9443  0.5853
  171MOL    C2030960   2.977   0.985   3.294  1.2141  0.7537 -1.2692
  171MOL    C2130961   2.882   0.989   3.416 -0.3316  0.4504  0.0525
  171MOL    C2230962   2.904   0.878   3.513  0.5384 -0.4868  0.1623
  171MOL    O2330963   2.860   0.880   3.624 -0.1802  0.2895  0.0191
  171MOL    O2430964   2.965   0.773   3.456 -0.1571 -0.1510 -0.2694
  171MOL    H2530965   2.968   0.887   3.246  1.5431  0.7538 -1.3366
  171MOL    H2630966   2.949   1.042   3.206 -1.4911  2.5003  0.6617
  171MOL    H2730967   2.916   1.078   3.469  1.2118  1.0326 -1.8104
  171MOL    H2830968   2.975   0.708   3.525  0.1355  0.8471  0.6390
  171MOL    C2930969   2.736   1.009   3.384  0.4662 -0.6344 -0.1067
  171MOL    C3030970   2.663   0.897   3.296  0.2120 -0.9607 -0.5850
  171MOL    C3130971   2.692   0.932   3.145  0.0242  0.3795  0.2673
  171MOL    O3230972   2.633   1.019   3.080 -0.0270  0.7608  0.2617
  171MOL    O3330973   2.779   0.843   3.094 -0.3227 -0.0782 -0.2501
  171MOL    H3430974   2.722   1.107   3.339 -0.8038 -1.2576 -1.0879
  171MOL    H3530975   2.682   1.022   3.479  3.2870  1.5079  1.2734
  171MOL    H3630976   2.716   0.803   3.314 -1.0038 -1.3559  1.0445
  171MOL    H3730977   2.816   0.783   3.157 -0.4504 -0.4682 -0.5410
  171MOL    C3830978   2.510   0.886   3.321 -0.0975 -0.2558 -0.4057
  171MOL    C3930979   2.455   0.803   3.440 -0.0620 -0.2702  0.3999
  171MOL    C4030980   2.444   0.656   3.407 -0.9092 -0.2713  0.0597
  171MOL    O4130981   2.331   0.601   3.415  0.2092 -0.4471 -0.4247
  171MOL    O4230982   2.564   0.593   3.398  0.6224  0.6426 -0.5506
  171MOL    H4330983   2.471   0.839   3.231 -0.3628 -1.1173  0.1476
  171MOL    H4430984   2.478   0.990   3.317 -3.0263 -1.1471 -0.5812
  171MOL    H4530985   2.522   0.811   3.526  0.1382  0.6049  0.1733
  171MOL    H4630986   2.550   0.501   3.386 -2.8758  1.4399 -3.1624
  171MOL    C4730987   2.315   0.860   3.485 -0.0960 -0.2383  0.2398
  171MOL    C4830988   2.288   1.003   3.536  1.1678  0.4829 -0.2991
  171MOL    C4930989   2.409   1.061   3.613  0.3578  0.4382  0.0989
  171MOL    O5030990   2.486   0.992   3.683 -0.1407 -0.2113 -0.0468
  171MOL    O5130991   2.416   1.200   3.620  0.0246  0.0046  0.2065
  171MOL    H5230992   2.289   0.790   3.565 -1.1174 -1.5936 -1.2643
  171MOL    H5330993   2.247   0.842   3.402 -0.9225  1.5354  0.5016
  171MOL    H5430994   2.280   1.067   3.448  0.0276 -0.7602 -1.1132
  171MOL    H5530995   2.488   1.225   3.676  0.8318 -0.5677 -0.5653
  171MOL    C5630996   2.163   1.009   3.625 -0.0642 -0.5309  0.9922
  171MOL    C5730997   2.049   1.081   3.547 -0.3518  0.1852  0.0856
  171MOL    C5830998   2.070   1.233   3.528  0.6693  0.1448 -0.1903
  171MOL    O5930999   2.127   1.301   3.616  0.2736  0.7992  0.4635
  171MOL    O6031000   2.008   1.277   3.411  0.1299  0.4118 -0.1466
  171MOL    H6131001   2.188   1.068   3.713 -1.9796  1.9674 -0.0750
  171MOL    H6231002   2.126   0.916   3.667 -1.1727 -0.2719  0.6030
  171MOL    H6331003   2.045   1.028   3.452  2.0686 -0.3143  0.2429
  171MOL    H6431004   2.012   1.371   3.397 -0.2634 -0.0044 -3.4576
  171MOL    C6531005   1.907   1.050   3.613 -0.3424 -0.4984  0.3889
  171MOL    C6631006   1.848   0.905   3.595 -0.1653  0.0040 -0.1640
  171MOL    C6731007   1.754   0.874   3.478 -0.1204  0.0589  0.3858
  171MOL    O6831008   1.755   0.942   3.374  0.3981 -0.1065 -0.1545
  171MOL    O6931009   1.663   0.770   3.497 -0.3321 -0.4952  0.7961
  171MOL    H7031010   1.830   1.114   3.570  0.8091  1.6397  1.4621
  171MOL    H7131011   1.911   1.098   3.711  0.9217  1.9357 -0.8108
  171MOL    H7231012   1.937   0.844   3.583 -0.0481 -0.8182  4.0279
  171MOL    H7331013   1.609   0.752   3.422  0.4148 -0.0064  0.1433
  171MOL    C7431014   1.805   0.851   3.734  0.0731 -0.3466 -0.7027
  171MOL    C7531015   1.661   0.887   3.782 -0.1036 -0.2607  0.7250
  171MOL    C7631016   1.626   1.034   3.798 -0.0551  0.1867 -0.4582
  171MOL    O7731017   1.580   1.087   3.895 -0.3491  0.5299 -0.7071
  171MOL    O7831018   1.619   1.099   3.682  0.5238 -0.2308 -0.7595
  171MOL    H7931019   1.885   0.879   3.801  0.5838  1.4404 -2.0307
  171MOL    H8031020   1.823   0.744   3.726  0.6926 -0.2174 -1.0641
  171MOL    H8131021   1.592   0.859   3.703  0.3287  1.4537 -0.2946
  171MOL    H8231022   1.570   1.177   3.701 -2.0651 -2.2503  1.3358
  171MOL    C8331023   1.613   0.807   3.912 -0.3883  0.7046 -0.1850
  171MOL    C8431024   1.577   0.662   3.873  0.4088 -0.1116 -0.1134
  171MOL    C8531025   1.430   0.647   3.849 -0.0608 -0.9177 -0.3839
  171MOL    O8631026   1.363   0.559   3.907  0.3689  0.0371  0.0537
  171MOL    O8731027   1.383   0.741   3.764 -0.0395  0.3092  0.4852
  171MOL    H8831028   1.533   0.853   3.969 -0.7466 -0.0551 -0.0644
  171MOL    H8931029   1.696   0.826   3.980 -1.4305 -0.4598  1.4437
  171MOL    H9031030   1.623   0.626   3.781 -0.1339 -1.4026  0.1048
  171MOL    H9131031   1.289   0.731   3.756 -0.5044  2.7346  2.5736
  171MOL    C9231032   1.618   0.564   3.989 -0.1399  0.3764 -0.1705
  171MOL    C9331033   1.767   0.557   4.025 -0.4537  0.1019 -0.2315
  171MOL    C9431034   1.848   0.500   3.907 -0.2647 -0.0767 -0.5787
  171MOL    O9531035   1.948   0.553   3.865  0.0152 -0.2069  0.3894
  171MOL    O9631036   1.795   0.392   3.846  0.0370 -0.1637 -0.3823
  171MOL    H9731037   1.574   0.466   3.972 -1.3941  1.0963 -1.2045
  171MOL    H9831038   1.569   0.595   4.081 -0.7611  0.3080 -0.4736
  171MOL    H9931039   1.799   0.658   4.049 -1.0032  0.0423  0.8103
  171MOL   H10031040   1.824   0.366   3.760  2.4063  0.1519  0.2733
  171MOL   C10131041   1.787   0.470   4.153  0.6693  0.7506 -0.1262
  171MOL   C10231042   1.934   0.466   4.202 -0.1026 -0.0557 -0.5460
  171MOL   C10331043   1.981   0.334   4.263  0.0373  1.1035  0.1876
  171MOL   O10431044   2.038   0.324   4.373 -0.1223 -0.1002 -0.2662
  171MOL   O10531045   1.972   0.225   4.179  0.9294 -0.4097  0.3610
  171MOL   H10631046   1.751   0.370   4.129  1.3690 -0.2067  2.5430
  171MOL   H10731047   1.719   0.501   4.233 -0.3666 -1.8328  0.0667
  171MOL   H10831048   2.002   0.476   4.118  0.6409  0.6898  0.1346
  171MOL   H10931049   2.026   0.159   4.220  1.9980  1.0798  1.3987
  171MOL   C11031050   1.951   0.591   4.294  0.0252  0.9957 -0.2462
  171MOL   C11131051   2.091   0.647   4.284 -0.2196  0.5043 -0.4544
  171MOL   C11231052   2.119   0.738   4.397 -0.0744 -0.0087  0.0185
  171MOL   O11331053   2.109   0.862   4.396  0.5137  0.3769 -0.3313
  171MOL   O11431054   2.142   0.672   4.513 -0.0292  0.4330  0.2368
  171MOL   H11531055   1.929   0.561   4.397 -0.7756 -0.5187 -0.8484
  171MOL   H11631056   1.885   0.673   4.267  1.0963  1.5891 -1.1000
  171MOL   H11731057   2.162   0.564   4.284 -0.5576  0.2166 -1.1350
  171MOL   H11831058   2.164   0.727   4.587  2.6727 -0.2603 -0.0130
  171MOL   C11931059   2.099   0.725   4.150  0.3808 -0.4795 -0.0150
  171MOL   C12031060   2.241   0.773   4.112 -0.2321 -0.4082  0.2416
  171MOL   C12131061   2.235   0.854   3.986 -1.1042 -0.2687  1.1639
  171MOL   O12231062   2.154   0.831   3.894  0.5500  0.5365 -0.9185
  171MOL   O12331063   2.343   0.936   3.971 -0.0870 -0.7243  0.3428
  171MOL   H12431064   2.033   0.811   4.159  0.1208 -0.5552 -1.1824
  171MOL   H12531065   2.060   0.668   4.066  0.5780 -0.6073 -0.0203
  171MOL   H12631066   2.264   0.838   4.196 -4.8362  0.1684  1.2190
  171MOL   H12731067   2.346   0.977   3.886 -0.8415  0.0267  0.6678
  171MOL   C12831068   2.360   0.673   4.121  0.3008 -0.9560 -0.6793
  171MOL   C12931069   2.337   0.542   4.036  0.2410 -0.0447  0.5783
  171MOL   C13031070   2.391   0.426   4.117 -0.2230  0.1481 -0.3154
  171MOL   O13131071   2.337   0.312   4.123 -0.2426 -0.4731  0.3626
  171MOL   O13231072   2.500   0.454   4.200 -0.2889  0.3808  0.5380
  171MOL   H13331073   2.371   0.657   4.228  0.8156  0.9959 -0.4228
  171MOL   H13431074   2.459   0.711   4.094  0.1344  0.0237  0.0709
  171MOL   H13531075   2.232   0.531   4.009  0.3135 -1.2651  0.7600
  171MOL   H13631076   2.522   0.385   4.260  2.7475  0.2133 -0.6662
  171MOL   C13731077   2.427   0.562   3.904  0.5417  0.9666  0.4342
  171MOL   C13831078   2.395   0.467   3.783  0.2926 -0.5976  0.3309
  171MOL   C13931079   2.246   0.465   3.761  0.0535  0.1125 -0.1972
  171MOL   O14031080   2.176   0.368   3.777 -0.0995 -0.7636  0.5391
  171MOL   O14131081   2.200   0.583   3.705  0.2063 -0.4551  0.4215
  171MOL   H14231082   2.530   0.560   3.938 -0.4456 -0.2527  3.5481
  171MOL   H14331083   2.403   0.661   3.866 -1.7482 -0.2096 -1.2911
  171MOL   H14431084   2.438   0.514   3.695  3.4349 -2.4848  0.8001
  171MOL   H14531085   2.106   0.581   3.714  0.3898  0.3830  2.9097
  171MOL   C14631086   2.447   0.322   3.791  0.3486  0.1355  0.6599
  171MOL   C14731087   2.599   0.308   3.764 -0.4237  0.0395  0.2560
  171MOL   C14831088   2.644   0.349   3.621  0.4799 -0.5906  0.2394
  171MOL   O14931089   2.570   0.357   3.521 -0.4785  0.1329  0.4295
  171MOL   O15031090   2.776   0.376   3.614  0.1718  0.6796  0.6441
  171MOL   H15131091   2.403   0.267   3.707 -0.3482 -0.9343  1.6986
  171MOL   H15231092   2.425   0.263   3.880 -1.8789 -0.1761 -0.0446
  171MOL   H15331093   2.644   0.379   3.833 -0.7196  0.9821 -0.5152
  171MOL   H15431094   2.811   0.403   3.531  0.3630 -2.8166 -0.4952
  171MOL   C15531095   2.641   0.164   3.786  0.1044  0.4336 -0.6638
  171MOL   C15631096   2.638   0.114   3.932  0.5695 -0.2003  0.0974
  171MOL   C15731097   2.732   0.185   4.028  0.4481  0.3393 -0.4327
  171MOL   O15831098   2.807   0.279   4.003 -0.2052  0.1992  0.4221
  171MOL   O15931099   2.719   0.133   4.152  0.4472 -0.3541 -1.0111
  171MOL   H16031100   2.739   0.153   3.739 -1.2774 -2.5783 -3.0400
  171MOL   H16131101   2.566   0.105   3.734 -0.1581 -0.2151  0.4385
  171MOL   H16231102   2.545   0.134   3.986  0.8563  0.5807  0.3045
  171MOL   H16331103   2.791   0.156   4.209 -0.1183 -0.8956 -0.0675
  171MOL   C16431104   2.663   7.810   3.925 -0.2247  0.7956  0.0169
  171MOL   C16531105   2.549   7.724   3.976 -0.3244 -0.2928 -0.0830
  171MOL   C16631106   2.521   7.745   4.121  0.6590  0.5052  0.0323
  171MOL   O16731107   2.416   7.791   4.168 -0.3658  0.2028  0.3806
  171MOL   O16831108   2.627   7.697   4.187  0.2329  0.5366 -0.5137
  171MOL   H16931109   2.755   7.779   3.975  0.3462 -1.3825 -2.2990
  171MOL   H17031110   2.674   7.788   3.819 -0.4147 -0.4999  0.2611
  171MOL   H17131111   2.466   7.775   3.929  1.1725  1.0344 -1.3416
  171MOL   H17231112   2.618   7.718   4.279 -3.4970 -0.2804 -0.6003
  171MOL   C17331113   2.570   7.573   3.948  0.0279 -0.5602  0.2179
  171MOL   C17431114   2.450   7.487   3.963  0.1433 -0.0215 -0.6976
  171MOL   C17531115   2.460   7.355   3.892  0.2212 -0.4773 -0.3377
  171MOL   O17631116   2.362   7.291   3.859  0.6883  0.1273 -0.2364
  171MOL   O17731117   2.583   7.304   3.880  0.5574 -0.3135  0.0532
  171MOL   H17831118   2.651   7.519   3.997  0.0741 -2.4722 -1.8945
  171MOL   H17931119   2.601   7.568   3.843  1.3677 -1.5115  0.6558
  171MOL   H18031120   2.423   7.466   4.066 -1.3322 -0.1372 -1.0953
  171MOL   H18131121   2.581   7.219   3.838  0.4126 -0.0123 -0.5483
  171MOL   H18231122   2.363   7.532   3.915  0.5264  1.4967  0.0335
  172MOL     C131123   3.865   2.235   7.840  0.5262 -0.4100  0.4612
  172MOL     C231124   3.997   2.171   7.803  0.6720  0.2594  0.8512
  172MOL     C331125   4.040   2.081   0.063  0.0037  0.1130 -0.3041
  172MOL     O431126   3.991   2.086   0.177 -0.0412 -0.3564  0.1606
  172MOL     O531127   4.143   1.997   0.037  0.3824  0.0690  0.2022
  172MOL     H631128   3.883   2.325   0.046 -2.3769 -0.4685  1.5368
  172MOL     H731129   3.810   2.269   7.752 -0.4102  1.6961  1.8252
  172MOL     H831130   3.990   2.112   7.712 -1.0851  0.3304  0.9238
  172MOL     H931131   4.161   1.940   0.110 -0.0366  0.8150  0.8938
  172MOL    H1031132   3.798   2.173   0.048  1.5219 -0.6365  1.3437
  172MOL    C1131133   4.103   2.278   7.776  0.0014 -0.1639  0.0147
  172MOL    C1231134   4.073   2.365   7.655  0.2070  0.1467 -0.2984
  172MOL    C1331135   4.070   2.288   7.520 -0.2562  0.2561  0.2858
  172MOL    O1431136   4.160   2.210   7.496  0.3900  0.2398 -0.8473
  172MOL    O1531137   3.955   2.315   7.454  0.3222 -0.2452 -0.5708
  172MOL    H1631138   4.194   2.229   7.743 -0.7796 -2.2150  0.8196
  172MOL    H1731139   4.122   2.338   0.012 -0.1287 -1.4812  0.9549
  172MOL    H1831140   3.978   2.414   7.676  0.2346  1.0326 -2.1696
  172MOL    H1931141   3.952   2.250   7.385  1.0760 -1.5161  0.5637
  172MOL    C2031142   4.166   2.494   7.643  0.0849 -0.5809 -0.2505
  172MOL    C2131143   4.322   2.470   7.625  0.2949 -0.1272 -0.2043
  172MOL    C2231144   4.395   2.411   7.748  0.5815  0.2323  1.0346
  172MOL    O2331145   4.363   2.432   0.008  0.0144 -0.3898  0.2481
  172MOL    O2431146   4.495   2.333   7.704 -0.4596  0.2877  0.4696
  172MOL    H2531147   4.156   2.547   7.737 -0.0699 -1.2578  0.1148
  172MOL    H2631148   4.126   2.555   7.561  2.6479  2.1074  0.4160
  172MOL    H2731149   4.345   2.406   7.539 -0.5072  1.7478 -1.8653
  172MOL    H2831150   4.539   2.278   7.767  2.9772  1.3699 -0.8881
  172MOL    C2931151   4.401   2.606   7.582  0.3824  0.5771 -0.0736
  172MOL    C3031152   4.423   2.713   7.691 -0.1809 -0.4415 -0.2543
  172MOL    C3131153   4.300   2.752   7.780 -0.6414  0.0181  0.5756
  172MOL    O3231154   4.228   2.849   7.759 -0.3197  0.2786  0.4283
  172MOL    O3331155   4.284   2.675   0.039 -0.4639  0.1769 -0.2092
  172MOL    H3431156   4.352   2.658   7.500 -1.6209 -2.9459 -1.2258
  172MOL    H3531157   4.494   2.569   7.540  0.8629  1.0751  0.5411
  172MOL    H3631158   4.486   2.653   7.756 -0.6032 -0.8314 -0.1983
  172MOL    H3731159   4.331   2.594   0.029  1.0989  1.2045 -1.5300
  172MOL    C3831160   4.508   2.833   7.640  0.4556  1.4746 -0.6601
  172MOL    C3931161   4.623   2.898   7.731  0.1401 -0.8638 -0.1945
  172MOL    C4031162   4.735   2.796   7.745  0.2920 -0.2683  0.3930
  172MOL    O4131163   4.726   2.674   7.721 -0.0038 -0.1913 -0.3917
  172MOL    O4231164   4.842   2.859   7.796  1.1763 -0.2311 -0.0867
  172MOL    H4331165   4.437   2.914   7.626 -1.6158 -0.2650 -0.5545
  172MOL    H4431166   4.539   2.820   7.536  2.5680 -0.5759  0.1580
  172MOL    H4531167   4.656   2.992   7.687 -1.9313 -0.0860 -0.1248
  172MOL    H4631168   4.912   2.798   7.813  1.0481 -0.5606 -0.7663
  172MOL    C4731169   4.565   2.939   0.015 -0.1962  0.6679  0.5310
  172MOL    C4831170   4.656   3.026   0.112 -0.0176 -0.0746  0.2581
  172MOL    C4931171   4.591   3.037   0.251 -0.1287  0.2154  0.4469
  172MOL    O5031172   4.643   2.981   0.349  0.2410 -0.4606 -0.0562
  172MOL    O5131173   4.483   3.115   0.256 -0.2734  0.0637  0.4952
  172MOL    H5231174   4.534   2.846   0.062 -2.4788  1.2686  0.2807
  172MOL    H5331175   4.477   3.000   7.849 -1.7246 -1.3292  1.0289
  172MOL    H5431176   4.743   2.963   0.133 -0.3140 -0.0592  1.5297
  172MOL    H5531177   4.460   3.128   0.346  2.4710  2.0887  0.9645
  172MOL    C5631178   4.697   3.164   0.050 -0.2267  0.0294  0.2476
  172MOL    C5731179   4.807   3.243   0.125  0.5574  0.4830  0.1654
  172MOL    C5831180   4.808   3.390   0.074  0.5670  0.3473 -0.2837
  172MOL    O5931181   4.897   3.436   0.001 -0.1070  0.7011 -0.3990
  172MOL    O6031182   4.707   3.464   0.133  0.4341 -0.0455  0.4881
  172MOL    H6131183   4.606   3.223   0.050 -0.7204 -0.7242 -1.2370
  172MOL    H6231184   4.739   3.155   7.803 -1.9970  0.4240 -0.5400
  172MOL    H6331185   4.779   3.243   0.230  2.4603 -2.0485  0.7332
  172MOL    H6431186   4.705   3.547   0.087  2.1252 -0.4518 -0.3482
  172MOL    C6531187   4.949   3.184   0.111 -0.4244  0.0903  0.6892
  172MOL    C6631188   5.053   3.244   0.215 -0.0451  0.2971  0.4875
  172MOL    C6731189   5.202   3.221   0.182  0.3976  0.3193 -0.1091
  172MOL    O6831190   5.238   3.150   0.084  0.5516 -0.5202 -0.1668
  172MOL    O6931191   5.284   3.283   0.266 -0.4996 -0.3010 -0.1419
  172MOL    H7031192   4.984   3.212   0.012  0.0110  1.3769  1.1904
  172MOL    H7131193   4.950   3.075   0.115 -0.8907  0.1245  2.5681
  172MOL    H7231194   5.038   3.351   0.228 -4.3224 -0.4108  2.2252
  172MOL    H7331195   5.369   3.247   0.244 -0.1773  0.1881  0.2910
  172MOL    C7431196   5.015   3.191   0.359 -0.0359 -0.2036  0.4481
  172MOL    C7531197   4.966   3.298   0.461  0.1590 -0.5750  0.2264
  172MOL    C7631198   5.076   3.402   0.478  0.3380  0.0233 -0.3848
  172MOL    O7731199   5.190   3.389   0.528 -0.4619 -0.2682 -1.0761
  172MOL    O7831200   5.032   3.522   0.427  0.0307 -0.3817 -0.4162
  172MOL    H7931201   5.095   3.134   0.407  0.7347  1.3577  1.0686
  172MOL    H8031202   4.939   3.113   0.352 -1.5030  1.1479  0.8509
  172MOL    H8131203   4.876   3.343   0.419 -1.2276 -2.1660  1.4266
  172MOL    H8231204   5.097   3.589   0.440  0.8023 -1.1569 -0.2545
  172MOL    C8331205   4.934   3.237   0.594  0.2053 -0.6048 -0.0146
  172MOL    C8431206   4.784   3.185   0.603  0.2876 -0.2894  0.5953
  172MOL    C8531207   4.676   3.293   0.580  0.4873  0.1942 -0.0854
  172MOL    O8631208   4.596   3.282   0.490 -0.3770 -0.1075 -0.0646
  172MOL    O8731209   4.682   3.396   0.670  0.7277  0.2906 -0.3328
  172MOL    H8831210   4.942   3.321   0.663  1.0380  2.6106 -3.8275
  172MOL    H8931211   5.008   3.165   0.629  1.8195  1.2899  0.5185
  172MOL    H9031212   4.777   3.115   0.520 -1.9538 -1.0070  1.3457
  172MOL    H9131213   4.604   3.447   0.658  0.4130  0.1503  1.1167
  172MOL    C9231214   4.749   3.111   0.735 -0.3830 -0.3662 -0.7072
  172MOL    C9331215   4.809   2.971   0.759 -0.0325  0.0379  0.2074
  172MOL    C9431216   4.791   2.872   0.642  0.1015 -0.2743  0.5237
  172MOL    O9531217   4.713   2.777   0.644 -0.9281 -0.1425 -0.2275
  172MOL    O9631218   4.875   2.909   0.542 -0.5305  0.5055 -0.0636
  172MOL    H9731219   4.641   3.101   0.737 -0.4469  0.3025 -0.2522
  172MOL    H9831220   4.772   3.171   0.823  1.2060 -0.9435 -0.7050
  172MOL    H9931221   4.913   2.999   0.775 -0.0405 -0.8964  1.9704
  172MOL   H10031222   4.872   2.858   0.463 -0.7631 -0.1621  0.3658
  172MOL   C10131223   4.754   2.914   0.892  0.3149 -0.3733  0.7402
  172MOL   C10231224   4.850   2.814   0.976  0.5393 -0.0773 -0.3576
  172MOL   C10331225   4.781   2.679   1.007 -0.1007  0.4734  0.4696
  172MOL   O10431226   4.704   2.621   0.930 -0.4986  0.4238 -0.1117
  172MOL   O10531227   4.828   2.627   1.122 -0.5600 -0.0059 -0.1667
  172MOL   H10631228   4.657   2.866   0.881  0.4433 -0.6081  0.6209
  172MOL   H10731229   4.731   3.005   0.948  0.9039  0.1878  0.0880
  172MOL   H10831230   4.941   2.776   0.929  1.0649 -0.6789  1.1033
  172MOL   H10931231   4.777   2.552   1.147  1.3276 -1.7437 -1.3630
  172MOL   C11031232   4.906   2.885   1.098  0.1879 -0.6646  0.2868
  172MOL   C11131233   4.983   3.017   1.071  0.0308  0.2957  0.4208
  172MOL   C11231234   5.103   2.997   0.976 -0.1803 -0.5266  0.3439
  172MOL   O11331235   5.187   2.906   0.984  0.1946 -0.2879  0.4643
  172MOL   O11431236   5.107   3.094   0.886 -0.1279  0.0902 -0.6770
  172MOL   H11531237   4.979   2.813   1.137 -1.9615 -1.5208  2.8773
  172MOL   H11631238   4.833   2.894   1.178 -1.2241 -0.1160 -1.0498
  172MOL   H11731239   4.911   3.085   1.027 -2.0289 -1.2324  1.3530
  172MOL   H11831240   5.186   3.099   0.835  0.8782 -2.5704  0.5095
  172MOL   C11931241   5.027   3.079   1.204  0.0986  0.1147 -0.1039
  172MOL   C12031242   5.070   3.230   1.198  0.0671  0.1774 -0.5729
  172MOL   C12131243   5.183   3.270   1.293 -0.1767 -0.4345  0.0480
  172MOL   O12231244   5.296   3.308   1.260 -0.0054 -0.3355  0.0055
  172MOL   O12331245   5.149   3.271   1.424 -0.5599 -0.4316 -0.6812
  172MOL   H12431246   5.108   3.014   1.238  0.8600 -0.5975 -3.0927
  172MOL   H12531247   4.948   3.060   1.277  0.3720 -0.7752 -0.0315
  172MOL   H12631248   5.112   3.249   1.100 -2.8221  2.1480 -1.4933
  172MOL   H12731249   5.231   3.297   1.463 -0.2913 -0.6406 -1.0937
  172MOL   C12831250   4.945   3.323   1.220 -0.1708  0.1877 -0.5847
  172MOL   C12931251   4.963   3.466   1.157  0.2559  0.0858  0.4134
  172MOL   C13031252   4.859   3.551   1.211  0.5938 -0.5289  0.2870
  172MOL   O13131253   4.744   3.522   1.193 -0.2338 -0.6394 -0.0381
  172MOL   O13231254   4.898   3.666   1.274 -0.7890  0.2440 -0.4700
  172MOL   H13331255   4.920   3.328   1.326 -0.7606 -0.5381 -0.6792
  172MOL   H13431256   4.853   3.276   1.185  0.0347  1.2534 -2.6053
  172MOL   H13531257   5.060   3.511   1.178  0.3219 -0.2527  0.8572
  172MOL   H13631258   4.836   3.729   1.305  0.3079  0.7874  0.6976
  172MOL   C13731259   4.955   3.450   1.003  0.5712 -0.2016 -0.3236
  172MOL   C13831260   5.000   3.577   0.926 -0.0586  0.1911 -0.5986
  172MOL   C13931261   4.908   3.617   0.814  0.0481  0.0765  0.2369
  172MOL   O14031262   4.814   3.680   0.851  0.0695  0.4882 -0.2411
  172MOL   O14131263   4.930   3.564   0.694 -1.0169 -0.0260  0.4288
  172MOL   H14231264   4.856   3.421   0.968 -1.3671  0.9604  3.8414
  172MOL   H14331265   5.017   3.372   0.958  0.7957 -1.1065  1.5033
  172MOL   H14431266   5.003   3.658   1.000  0.8275 -0.6059  0.2488
  172MOL   H14531267   4.852   3.575   0.641 -1.9601 -2.7967  1.1693
  172MOL   C14631268   5.146   3.552   0.881 -0.7817  0.3898  0.7317
  172MOL   C14731269   5.231   3.676   0.887 -0.2928 -0.8713 -0.3872
  172MOL   C14831270   5.343   3.679   0.777  0.6972 -0.2506  0.6232
  172MOL   O14931271   5.330   3.746   0.675  0.4540  0.4804  0.1820
  172MOL   O15031272   5.445   3.589   0.801 -0.2233 -0.2984 -0.3873
  172MOL   H15131273   5.137   3.493   0.790 -0.6540  0.2731  0.7941
  172MOL   H15231274   5.193   3.486   0.953 -0.4690 -0.2729 -0.0694
  172MOL   H15331275   5.168   3.755   0.845  0.9385  0.2641 -0.1075
  172MOL   H15431276   5.420   3.542   0.878 -2.1882  2.6957  0.8879
  172MOL   C15531277   5.275   3.715   1.024 -0.2901  0.0190 -0.1622
  172MOL   C15631278   5.293   3.868   1.049  0.1379 -0.8400  0.2792
  172MOL   C15731279   5.163   3.934   1.106  0.2994 -0.0968 -0.2861
  172MOL   O15831280   5.107   3.895   1.212  0.0923 -0.6430 -0.0065
  172MOL   O15931281   5.115   4.042   1.036 -0.0871  0.1833  0.2497
  172MOL   H16031282   5.369   3.670   1.056 -1.2012 -1.5723  0.3767
  172MOL   H16131283   5.205   3.676   1.098 -0.6658  0.9444 -0.0178
  172MOL   H16231284   5.351   3.863   1.141  0.2177 -0.2248  0.2629
  172MOL   H16331285   5.048   4.093   1.080 -1.4118 -2.2922  1.1993
  172MOL   C16431286   5.368   3.956   0.942  0.1572  0.7827  0.3566
  172MOL   C16531287   5.518   3.925   0.919  0.0459  0.0787 -1.0335
  172MOL   C16631288   5.604   3.957   1.042  0.2304 -0.3837 -0.3686
  172MOL   O16731289   5.554   4.025   1.134 -0.2129 -0.2916 -0.1877
  172MOL   O16831290   5.729   3.901   1.049  0.3753 -0.2373 -0.5066
  172MOL   H16931291   5.365   4.061   0.972  0.7220  0.9681 -0.2161
  172MOL   H17031292   5.314   3.955   0.848 -0.9668 -1.2799  0.9937
  172MOL   H17131293   5.519   3.817   0.902  0.6345  0.1516 -1.4768
  172MOL   H17231294   5.770   3.919   1.132 -0.6473  0.4214 -0.1351
  172MOL   C17331295   5.564   3.995   0.790  0.5044 -0.4583 -0.5528
  172MOL   C17431296   5.694   3.935   0.723  0.1526  0.6839  0.1231
  172MOL   C17531297   5.810   4.041   0.707 -0.0172  0.5038  0.3014
  172MOL   O17631298   5.843   4.110   0.803 -0.8469  0.4186 -0.3697
  172MOL   O17731299   5.870   4.027   0.587 -0.0826  0.1546 -0.0550
  172MOL   H17831300   5.571   4.104   0.794  1.6513 -0.4915 -1.3823
  172MOL   H17931301   5.486   3.976   0.716  1.2186  1.0451 -1.7222
  172MOL   H18031302   5.732   3.852   0.782 -1.9296 -1.2331 -1.1275
  172MOL   H18131303   5.932   4.099   0.577 -1.4727  1.7895  2.5878
  172MOL   H18231304   5.665   3.893   0.627 -0.7935  0.3492  0.5503
  173MOL     C131305   5.921   3.530   7.000  0.6789  0.0663  0.6715
  173MOL     C231306   6.030   3.539   7.103 -0.1947 -0.4898 -0.3174
  173MOL     C331307   6.153   3.461   7.058 -0.6987  0.1105 -0.2781
  173MOL     O431308   6.260   3.495   7.107  0.2524  0.1817  0.3095
  173MOL     O531309   6.124   3.344   6.995 -0.0833 -0.0376  0.4880
  173MOL     H631310   5.862   3.621   7.011 -1.1204 -1.0994  1.0459
  173MOL     H731311   5.958   3.520   6.898 -1.5752 -2.7686  0.0647
  173MOL     H831312   6.063   3.643   7.104  0.7187 -0.7763 -0.0642
  173MOL     H931313   6.201   3.296   6.969  0.7194  1.5236 -0.0865
  173MOL    H1031314   5.855   3.444   7.012 -0.2673  0.5678 -0.6969
  173MOL    C1131315   5.988   3.488   7.241  0.0347 -0.0257 -1.1758
  173MOL    C1231316   5.868   3.564   7.308 -0.2700 -0.5231 -0.3743
  173MOL    C1331317   5.897   3.703   7.372 -0.1145 -0.2085  0.9320
  173MOL    O1431318   5.824   3.743   7.467 -0.1301 -0.0112 -0.1558
  173MOL    O1531319   5.986   3.777   7.305  0.1202 -0.1538 -0.2644
  173MOL    H1631320   6.068   3.481   7.314 -1.3125  0.3906  0.3554
  173MOL    H1731321   5.961   3.383   7.226  0.1167 -0.5100  1.8559
  173MOL    H1831322   5.807   3.576   7.219 -0.1228  1.8146 -0.1858
  173MOL    H1931323   6.000   3.865   7.336 -2.0063 -0.3410  1.3132
  173MOL    C2031324   5.793   3.456   7.400  0.3042  0.3348 -0.8437
  173MOL    C2131325   5.876   3.365   7.500  0.4618 -0.5726  0.4650
  173MOL    C2231326   5.791   3.253   7.564  0.0084 -0.0920 -0.3044
  173MOL    O2331327   5.789   3.144   7.515 -0.4948  0.0012  0.0583
  173MOL    O2431328   5.726   3.288   7.672  0.3802 -0.3875 -0.1774
  173MOL    H2531329   5.751   3.385   7.328  1.3206  0.6758 -1.7874
  173MOL    H2631330   5.710   3.507   7.449 -0.7630 -0.7707 -1.4780
  173MOL    H2731331   5.960   3.323   7.445 -0.2566 -2.4984  0.7845
  173MOL    H2831332   5.678   3.212   7.702 -0.4189  0.4192  0.6123
  173MOL    C2931333   5.930   3.463   7.614 -0.3246 -0.7223  0.6269
  173MOL    C3031334   6.034   3.397   7.715  0.3752  0.0627  0.3169
  173MOL    C3131335   6.049   3.473   7.849  0.2144 -0.6366 -0.0483
  173MOL    O3231336   6.119   3.433   0.089  0.2034 -0.1851 -0.1133
  173MOL    O3331337   5.988   3.595   7.844  0.0975  0.3214 -0.3000
  173MOL    H3431338   5.848   3.513   7.665  0.1123 -0.2196  0.8361
  173MOL    H3531339   5.989   3.542   7.568 -0.5462 -1.9455 -1.8414
  173MOL    H3631340   5.978   3.312   7.755  0.9118  0.4943  2.0419
  173MOL    H3731341   6.016   3.645   0.067  1.0394  2.4754 -2.0273
  173MOL    C3831342   6.161   3.338   7.661  0.2587  0.1713 -0.3348
  173MOL    C3931343   6.257   3.440   7.595  0.2296 -0.2502 -0.7170
  173MOL    C4031344   6.351   3.369   7.505 -0.2214  1.0012 -0.1852
  173MOL    O4131345   6.465   3.333   7.542 -0.3366 -0.2479 -0.4560
  173MOL    O4231346   6.303   3.347   7.381 -0.5013 -0.2947 -0.6327
  173MOL    H4331347   6.139   3.253   7.597 -0.9516  0.7098 -0.6637
  173MOL    H4431348   6.219   3.300   7.745  0.8456  2.0815  0.1676
  173MOL    H4531349   6.196   3.509   7.536 -1.6397 -0.0323  1.4262
  173MOL    H4631350   6.374   3.314   7.328  0.4171 -1.7692  1.4232
  173MOL    C4731351   6.331   3.529   7.698 -0.0301  0.1726  0.3878
  173MOL    C4831352   6.449   3.620   7.655 -0.8389  0.2511 -0.2501
  173MOL    C4931353   6.570   3.594   7.751  0.2025  0.5529  0.3377
  173MOL    O5031354   6.591   3.659   0.004 -0.1745 -0.1794  0.3540
  173MOL    O5131355   6.630   3.482   7.721 -0.2691 -1.0230  0.4055
  173MOL    H5231356   6.348   3.469   7.787  1.8294 -0.7253 -0.5556
  173MOL    H5331357   6.253   3.598   7.732  0.3877  1.4285 -1.1515
  173MOL    H5431358   6.487   3.594   7.556 -0.5505  0.6655 -0.2498
  173MOL    H5531359   6.577   3.442   7.654 -0.6949 -0.3664  0.3458
  173MOL    C5631360   6.401   3.765   7.641 -0.9116  0.2199 -0.0645
  173MOL    C5731361   6.502   3.871   7.600 -0.7770 -0.2265  0.5531
  173MOL    C5831362   6.435   4.015   7.601  0.2797  0.0308  0.2898
  173MOL    O5931363   6.319   4.032   7.639  0.3132 -0.2065  0.1075
  173MOL    O6031364   6.525   4.111   7.573 -0.0402  0.0580 -0.2579
  173MOL    H6131365   6.358   3.797   7.736  0.0551  1.4089 -0.0154
  173MOL    H6231366   6.312   3.758   7.578 -0.4808  1.1690 -0.7778
  173MOL    H6331367   6.587   3.870   7.669  1.0307  4.4427 -1.4388
  173MOL    H6431368   6.488   4.197   7.578 -2.5470 -0.9866 -0.2706
  173MOL    C6531369   6.566   3.842   7.456 -0.3303  0.2966  0.5450
  173MOL    C6631370   6.473   3.862   7.329  0.6588 -0.0401 -0.7389
  173MOL    C6731371   6.392   3.743   7.288  0.1330  0.1056 -0.1588
  173MOL    O6831372   6.425   3.631   7.315 -0.2598 -0.2551 -0.1922
  173MOL    O6931373   6.283   3.775   7.206 -0.2004  0.2025  0.1196
  173MOL    H7031374   6.600   3.739   7.439  0.6573  0.6766  0.1596
  173MOL    H7131375   6.649   3.910   7.435 -1.3632 -0.0510 -5.3705
  173MOL    H7231376   6.401   3.940   7.355  0.6761  0.2650 -1.6025
  173MOL    H7331377   6.244   3.692   7.184 -0.0057  0.6280 -1.8755
  173MOL    C7431378   6.557   3.928   7.212  0.1169  0.1881 -0.1413
  173MOL    C7531379   6.605   4.078   7.230 -0.0745  0.2806 -0.0916
  173MOL    C7631380   6.487   4.175   7.218 -0.4998  0.1154 -0.6728
  173MOL    O7731381   6.373   4.143   7.188 -0.3016  0.3920  0.0371
  173MOL    O7831382   6.527   4.307   7.238 -0.0660 -0.1299 -0.0808
  173MOL    H7931383   6.501   3.920   7.119 -0.9743 -1.7592  0.6513
  173MOL    H8031384   6.646   3.866   7.200  0.5041  1.0540 -1.8716
  173MOL    H8131385   6.649   4.093   7.328  2.2350 -1.3618 -0.8413
  173MOL    H8231386   6.450   4.361   7.240  0.5954  0.8360 -0.3814
  173MOL    C8331387   6.724   4.107   7.128 -0.3505 -0.0713  1.1445
  173MOL    C8431388   6.869   4.097   7.183  0.7159 -0.3725  0.6137
  173MOL    C8531389   6.895   4.218   7.275 -0.6581  0.7342 -0.0417
  173MOL    O8631390   6.841   4.325   7.256  0.1576  0.1563 -0.4009
  173MOL    O8731391   6.985   4.192   7.379 -0.1139 -0.3701  0.2130
  173MOL    H8831392   6.708   4.200   7.075  0.5129 -0.7240 -0.3029
  173MOL    H8931393   6.707   4.034   7.048  0.6264  1.8208 -0.8134
  173MOL    H9031394   6.881   4.009   7.246  0.5152  1.2030  2.8883
  173MOL    H9131395   7.019   4.104   7.369 -0.3786 -0.2448 -2.0417
  173MOL    C9231396   6.962   4.100   7.055  0.3083  0.2229 -0.7467
  173MOL    C9331397   7.105   4.036   7.060  0.0885 -0.2111  0.4279
  173MOL    C9431398   7.193   4.074   6.940 -0.6371 -0.4788 -0.3641
  173MOL    O9531399   7.302   4.026   6.916  0.0779  0.1342  0.8672
  173MOL    O9631400   7.141   4.174   6.865  0.1796 -0.1813 -0.3390
  173MOL    H9731401   6.965   4.205   7.027  0.6902  0.3881 -0.0907
  173MOL    H9831402   6.909   4.043   6.979 -1.1566 -1.2110  1.2906
  173MOL    H9931403   7.158   4.079   7.146 -1.8395  0.3160  1.3696
  173MOL   H10031404   7.202   4.209   6.802 -1.9670 -0.1981 -2.5190
  173MOL   C10131405   7.091   3.878   7.071  0.0944  0.0969  0.0996
  173MOL   C10231406   7.221   3.794   7.121  0.1169  0.2484 -0.4018
  173MOL   C10331407   7.278   3.702   7.013  0.2277 -0.5879  0.0114
  173MOL   O10431408   7.281   3.581   7.030  0.0006  0.2270  0.1064
  173MOL   O10531409   7.342   3.769   6.914  0.1286 -0.2264  0.0290
  173MOL   H10631410   7.044   3.839   6.980  0.3735  2.0736 -0.9180
  173MOL   H10731411   7.016   3.855   7.146 -1.1313  0.3536 -1.0254
  173MOL   H10831412   7.297   3.865   7.152  0.5826 -0.4588  0.0855
  173MOL   H10931413   7.333   3.863   6.925  0.7709 -0.3577  1.8780
  173MOL   C11031414   7.198   3.714   7.251  0.5618  0.0945  0.2399
  173MOL   C11131415   7.162   3.778   7.388  0.4496 -0.0299 -0.1998
  173MOL   C11231416   7.260   3.886   7.429  1.1265 -0.5056  0.4212
  173MOL   O11331417   7.382   3.861   7.441 -0.3354 -0.1421  0.4128
  173MOL   O11431418   7.205   4.013   7.438  0.0950  0.3612 -0.3768
  173MOL   H11531419   7.295   3.671   7.274 -0.3091 -2.0439 -0.0374
  173MOL   H11631420   7.122   3.637   7.238  1.0892 -0.2520 -0.8590
  173MOL   H11731421   7.067   3.831   7.376  1.3488  1.8827  0.9300
  173MOL   H11831422   7.275   4.075   7.454  0.3278 -0.0321  0.1468
  173MOL   C11931423   7.137   3.675   7.501  0.1961 -0.5057  0.0267
  173MOL   C12031424   6.986   3.678   7.545  0.4097  0.0092 -0.0115
  173MOL   C12131425   6.888   3.618   7.437  0.0706  0.0144 -0.8966
  173MOL   O12231426   6.866   3.499   7.429  0.1160 -0.6308  0.4492
  173MOL   O12331427   6.833   3.711   7.358 -0.1077  0.0730  0.0410
  173MOL   H12431428   7.200   3.685   7.589 -0.2607  3.2353  0.0221
  173MOL   H12531429   7.155   3.578   7.454  0.2198 -1.7176  2.4869
  173MOL   H12631430   6.984   3.602   7.624  1.3451  0.3546  0.3617
  173MOL   H12731431   6.784   3.673   7.286  1.5332 -0.5024 -0.8064
  173MOL   C12831432   6.941   3.815   7.622 -0.0120 -0.2737 -0.0396
  173MOL   C12931433   7.016   3.853   7.751  0.0759 -0.0945  0.5703
  173MOL   C13031434   6.970   3.771   0.017 -0.3370 -0.5576  0.4900
  173MOL   O13131435   6.854   3.771   0.062  0.7264  0.2271 -0.7539
  173MOL   O13231436   7.072   3.691   0.054  0.2246 -0.0221  0.1246
  173MOL   H13331437   6.834   3.811   7.642 -0.0337 -1.0896 -0.2805
  173MOL   H13431438   6.950   3.891   7.545 -1.2807  0.4003  0.4698
  173MOL   H13531439   7.125   3.842   7.743  0.1259  0.9908 -0.3541
  173MOL   H13631440   7.059   3.634   0.128 -0.4574 -1.2859 -0.9483
  173MOL   C13731441   6.996   4.005   7.795  0.2789  1.3145  0.2375
  173MOL   C13831442   7.131   4.092   7.790 -0.0110  0.1955 -0.0441
  173MOL   C13931443   7.223   4.045   0.059 -0.4589 -0.1816 -0.8612
  173MOL   O14031444   7.313   3.957   0.055  0.0203 -0.0166 -0.0544
  173MOL   O14131445   7.209   4.132   0.164  0.3499  0.0278 -0.2200
  173MOL   H14231446   6.940   4.011   0.035  0.3297 -0.1927  0.3687
  173MOL   H14331447   6.917   4.044   7.731  1.6508 -0.0771 -2.4009
  173MOL   H14431448   7.175   4.065   7.695 -1.5377 -1.7998 -0.2261
  173MOL   H14531449   7.288   4.124   0.215  0.3376 -4.7296 -0.6905
  173MOL   C14631450   7.116   4.246   7.773  0.0339 -0.2370  0.2456
  173MOL   C14731451   7.244   4.326   7.735 -0.6569  0.5199 -0.6958
  173MOL   C14831452   7.385   4.263   7.760 -0.3553 -0.0166 -0.2971
  173MOL   O14931453   7.460   4.290   0.001 -0.0687 -0.0049 -0.4299
  173MOL   O15031454   7.405   4.167   7.673 -0.2347 -0.4236  0.3438
  173MOL   H15131455   7.075   4.284   0.014 -1.0297  0.4652 -0.4931
  173MOL   H15231456   7.048   4.265   7.690  2.2322  1.0208 -1.3287
  173MOL   H15331457   7.244   4.341   7.627 -1.8724 -0.5749 -0.8495
  173MOL   H15431458   7.494   4.145   7.698  0.2783  0.9579 -0.2259
  173MOL   C15531459   7.238   4.465   7.798  0.1876  0.5796  0.5153
  173MOL   C15631460   7.295   4.584   7.721 -0.4974  0.1985  0.5206
  173MOL   C15731461   7.337   4.704   7.807 -0.6578 -0.0870  0.2181
  173MOL   O15831462   7.446   4.757   7.808  0.5277 -0.2412 -0.2857
  173MOL   O15931463   7.230   4.752   0.027 -0.4037  0.0059 -0.4443
  173MOL   H16031464   7.279   4.465   0.046  0.5939 -2.1305  0.3748
  173MOL   H16131465   7.138   4.492   7.832 -0.4803 -0.7521 -0.3551
  173MOL   H16231466   7.396   4.558   7.689 -1.0024  0.7961 -1.6262
  173MOL   H16331467   7.257   4.827   0.078 -2.0439  1.2092 -1.3090
  173MOL   C16431468   7.209   4.629   7.599 -1.1929  0.3451 -0.2126
  173MOL   C16531469   7.277   4.593   7.464  0.3000  0.2416 -0.0116
  173MOL   C16631470   7.359   4.710   7.410 -0.2876 -0.1049  0.2116
  173MOL   O16731471   7.358   4.747   7.297  0.0797 -0.7267  0.2970
  173MOL   O16831472   7.437   4.763   7.510  0.3377  0.5736 -0.2132
  173MOL   H16931473   7.200   4.738   7.606  1.7592  0.6552 -0.6149
  173MOL   H17031474   7.109   4.587   7.605 -0.6200 -0.8358  1.4643
  173MOL   H17131475   7.354   4.520   7.487  1.2074  1.2486  0.1406
  173MOL   H17231476   7.487   4.831   7.467 -0.5335  0.8697 -0.7808
  173MOL   C17331477   7.169   4.531   7.371 -0.0984 -0.1056  0.3637
  173MOL   C17431478   7.228   4.472   7.238  0.1315  0.2787 -0.4388
  173MOL   C17531479   7.311   4.353   7.262 -0.0321 -1.1142 -0.0779
  173MOL   O17631480   7.312   4.293   7.365  0.5041 -0.2249  0.1452
  173MOL   O17731481   7.370   4.307   7.145 -0.0849  0.5080  0.4283
  173MOL   H17831482   7.087   4.599   7.345 -1.8666 -2.5546 -0.6799
  173MOL   H17931483   7.129   4.448   7.428  0.4354 -0.6666 -0.0720
  173MOL   H18031484   7.144   4.441   7.175 -1.1824 -0.6979  1.7166
  173MOL   H18131485   7.419   4.230   7.167  0.9419  1.1431  0.4129
  173MOL   H18231486   7.278   4.545   7.176 -2.9807  0.9045 -2.3428
  174MOL     C131487   0.321   3.838   2.666 -0.5367  0.2644  0.3800
  174MOL     C231488   0.167   3.828   2.678 -0.4938 -0.0777  0.3093
  174MOL     C331489   0.099   3.920   2.569 -0.2118 -0.6839 -0.6096
  174MOL     O431490   0.137   4.033   2.540 -0.1687 -0.7191  0.2685
  174MOL     O531491   7.847   3.860   2.504 -0.4111 -0.5910  0.1575
  174MOL     H631492   0.378   3.761   2.718 -0.0411  0.6013  0.3266
  174MOL     H731493   0.370   3.845   2.569  1.2613  5.3470  1.5057
  174MOL     H831494   0.144   3.724   2.654  1.2019 -0.7718  1.5912
  174MOL     H931495   7.818   3.921   2.439 -1.8811 -1.3775  0.0562
  174MOL    H1031496   0.352   3.930   2.714  0.8538  0.3236 -0.6095
  174MOL    C1131497   0.111   3.873   2.817 -0.5196 -0.1786 -0.5285
  174MOL    C1231498   0.194   3.824   2.942  0.0546 -0.9194  0.3329
  174MOL    C1331499   0.169   3.671   2.949  0.5564 -0.2008  0.4415
  174MOL    O1431500   0.061   3.623   2.992  0.0900 -0.5038  0.2013
  174MOL    O1531501   0.273   3.597   2.902 -0.5014 -0.5448 -0.4481
  174MOL    H1631502   0.010   3.836   2.833 -0.5161  0.2970  0.6046
  174MOL    H1731503   0.105   3.981   2.810 -0.8773  0.0204  2.2773
  174MOL    H1831504   0.300   3.843   2.929  0.0566  0.0296  1.5717
  174MOL    H1931505   0.264   3.507   2.932  0.1639 -0.6970 -0.6829
  174MOL    C2031506   0.146   3.908   3.069 -0.0012  0.2687  0.1067
  174MOL    C2131507   0.267   3.956   3.156 -0.5674 -0.2459  0.0025
  174MOL    C2231508   0.346   4.065   3.081 -0.9161 -0.0923 -0.1239
  174MOL    O2331509   0.309   4.180   3.075  0.7718  0.1718 -0.0792
  174MOL    O2431510   0.463   4.022   3.019 -0.1781 -0.6441 -0.3496
  174MOL    H2531511   0.067   3.857   3.124 -0.0689 -2.3140 -2.3075
  174MOL    H2631512   0.097   4.000   3.037  1.5749  0.7776 -0.9169
  174MOL    H2731513   0.216   4.009   3.236  1.4717  1.8248 -0.0136
  174MOL    H2831514   0.505   4.084   2.961  0.8665  0.3240  1.4037
  174MOL    C2931515   0.350   3.845   3.225 -0.0517  0.1887  0.2138
  174MOL    C3031516   0.435   3.886   3.345 -0.4763  0.4104 -0.0002
  174MOL    C3131517   0.581   3.926   3.318 -0.1053  0.3472 -0.3541
  174MOL    O3231518   0.633   4.028   3.354 -0.1873 -0.6583  0.0117
  174MOL    O3331519   0.637   3.827   3.242 -0.5283  0.2872 -0.3611
  174MOL    H3431520   0.405   3.793   3.147  0.6868 -0.6484  1.2813
  174MOL    H3531521   0.274   3.773   3.255  0.0067  0.7872  1.8756
  174MOL    H3631522   0.396   3.973   3.398  1.4572  0.9622  0.5420
  174MOL    H3731523   0.730   3.839   3.231 -0.9107  1.8546 -2.1956
  174MOL    C3831524   0.428   3.777   3.453  0.0158  0.0961  0.5960
  174MOL    C3931525   0.482   3.810   3.600 -0.3601 -0.6527  0.7907
  174MOL    C4031526   0.629   3.761   3.610 -0.6982 -0.8338  0.4738
  174MOL    O4131527   0.658   3.648   3.633  0.1460  0.2956 -0.0755
  174MOL    O4231528   0.714   3.858   3.583  0.0813 -0.3436  0.0768
  174MOL    H4331529   0.475   3.683   3.422  0.9523  0.4644  0.8862
  174MOL    H4431530   0.324   3.745   3.458  0.8471 -3.1227 -1.2099
  174MOL    H4531531   0.479   3.918   3.616 -2.0290 -0.7850  1.4971
  174MOL    H4631532   0.798   3.827   3.615  0.1561  0.5493  0.7529
  174MOL    C4731533   0.390   3.755   3.709  0.0953  0.4466 -0.4739
  174MOL    C4831534   0.259   3.826   3.734  0.0198 -0.2328 -0.0508
  174MOL    C4931535   0.277   3.955   3.807  0.1050 -0.5508 -0.0283
  174MOL    O5031536   0.265   3.961   3.929  0.0269 -0.2525 -0.1907
  174MOL    O5131537   0.287   4.056   3.716  0.0764 -0.3378 -0.2724
  174MOL    H5231538   0.440   3.748   3.805  1.0508  0.8346 -0.9335
  174MOL    H5331539   0.365   3.656   3.670 -0.3543  0.3512  0.0586
  174MOL    H5431540   0.211   3.853   3.640  0.2142  2.4725  0.5815
  174MOL    H5531541   0.297   4.137   3.763 -1.0369 -0.0979 -0.4526
  174MOL    C5631542   0.166   3.736   3.815 -0.1743 -0.1217  0.2723
  174MOL    C5731543   0.017   3.768   3.802 -0.2862 -0.3626 -0.1203
  174MOL    C5831544   7.806   3.760   3.940  0.6234 -0.3525  0.6031
  174MOL    O5931545   7.707   3.691   3.968  0.4683 -0.3234 -0.0110
  174MOL    O6031546   0.020   3.835   4.031 -0.1150  0.2962  0.2092
  174MOL    H6131547   0.206   3.727   3.916  1.7257  1.2827 -0.3136
  174MOL    H6231548   0.184   3.636   3.777  0.5315 -0.3057  1.0737
  174MOL    H6331549   0.006   3.877   3.798  0.0138 -0.2963  0.7564
  174MOL    H6431550   7.829   3.829   4.115  1.2208  2.9377  1.1686
  174MOL    C6531551   7.784   3.703   3.688 -0.0753  0.3227 -0.4098
  174MOL    C6631552   7.833   3.734   3.549  0.1599  0.0712 -0.1421
  174MOL    C6731553   7.835   3.889   3.513  0.5963  0.2797  0.0112
  174MOL    O6831554   7.750   3.963   3.561 -0.2615 -0.0843 -0.0539
  174MOL    O6931555   0.061   3.929   3.408 -0.1071 -0.1861  0.1504
  174MOL    H7031556   7.681   3.738   3.698 -0.0481  0.4287 -0.4950
  174MOL    H7131557   7.790   3.596   3.708 -0.3925  0.4276  0.2547
  174MOL    H7231558   0.083   3.702   3.533 -0.2810 -1.8466  0.7492
  174MOL    H7331559   0.045   4.016   3.375  0.6408  0.3286  1.0992
  174MOL    C7431560   7.754   3.659   3.437  0.0488  0.2180  0.7844
  174MOL    C7531561   7.791   3.509   3.425 -0.3476 -0.0512  0.7742
  174MOL    C7631562   0.086   3.489   3.376 -0.2195 -0.1656  0.9436
  174MOL    O7731563   0.180   3.455   3.446 -0.2702  0.8213  0.4082
  174MOL    O7831564   0.112   3.525   3.249  0.3727  0.3205  0.3493
  174MOL    H7931565   7.774   3.711   3.344  2.1401 -2.0967 -0.1193
  174MOL    H8031566   7.648   3.648   3.458  0.0524 -0.0809  0.6441
  174MOL    H8131567   7.780   3.473   3.528  1.1396 -0.6794  0.7218
  174MOL    H8231568   0.199   3.521   3.213  0.1899 -1.5649  0.0594
  174MOL    C8331569   7.710   3.433   3.314  0.5695 -0.1964  0.2104
  174MOL    C8431570   7.567   3.374   3.339  0.0310  0.4669 -0.5771
  174MOL    C8531571   7.585   3.264   3.443  0.0305 -0.5697  0.4198
  174MOL    O8631572   7.544   3.268   3.558  0.0823 -0.1057 -0.4003
  174MOL    O8731573   7.640   3.143   3.390 -0.1639  0.4072 -0.5441
  174MOL    H8831574   7.768   3.361   3.257  0.9313 -0.9551  1.5270
  174MOL    H8931575   7.696   3.507   3.234 -1.7492  0.2885  1.0110
  174MOL    H9031576   7.500   3.449   3.381  0.1527 -0.3416  1.1341
  174MOL    H9131577   7.630   3.068   3.447 -0.7480  1.6900  1.0634
  174MOL    C9231578   7.502   3.320   3.216 -0.1130  0.0504  0.2350
  174MOL    C9331579   7.369   3.242   3.233  0.2820  0.5307  0.1500
  174MOL    C9431580   7.337   3.187   3.093  0.3369  0.0266  0.5319
  174MOL    O9531581   7.305   3.255   3.000  0.1351  0.1889 -0.0828
  174MOL    O9631582   7.344   3.058   3.090 -0.1351  0.1182  0.1142
  174MOL    H9731583   7.573   3.259   3.161  2.8266 -0.4234  4.3755
  174MOL    H9831584   7.483   3.407   3.152  0.2609 -0.4346 -0.5450
  174MOL    H9931585   7.385   3.159   3.302 -0.8637 -0.5642 -0.8745
  174MOL   H10031586   7.336   3.030   3.000 -1.2021 -2.5068  0.9821
  174MOL   C10131587   7.249   3.324   3.300  0.6223 -0.1322 -0.1356
  174MOL   C10231588   7.146   3.229   3.365 -0.5511  0.0212  0.4523
  174MOL   C10331589   7.000   3.277   3.338  0.3834 -0.7349 -0.1399
  174MOL   O10431590   6.940   3.346   3.417  0.1985 -0.5492 -0.2253
  174MOL   O10531591   6.948   3.240   3.224 -0.2330  0.1526  0.2793
  174MOL   H10631592   7.203   3.378   3.216  1.2136  2.7302  1.3098
  174MOL   H10731593   7.270   3.406   3.369 -2.8251 -0.6027  1.5953
  174MOL   H10831594   7.157   3.134   3.312  2.1767 -0.6555  2.1088
  174MOL   H10931595   6.863   3.282   3.221 -0.0466  0.5504  0.5215
  174MOL   C11031596   7.182   3.214   3.515 -0.6026  0.1902 -0.6047
  174MOL   C11131597   7.142   3.083   3.583  0.1772  0.2241 -0.1442
  174MOL   C11231598   7.022   3.087   3.681  1.6789  0.0355  0.2612
  174MOL   O11331599   7.026   3.091   3.805  0.0046  0.6110  0.2720
  174MOL   O11431600   6.909   3.076   3.607 -0.3591 -0.1302  0.0951
  174MOL   H11531601   7.123   3.287   3.570 -0.3064 -0.9289  1.2621
  174MOL   H11631602   7.285   3.244   3.534  0.0112 -1.6414 -0.9264
  174MOL   H11731603   7.114   3.017   3.500  0.5862  0.1826 -0.2486
  174MOL   H11831604   6.829   3.095   3.655  0.0378  0.9048  0.3591
  174MOL   C11931605   7.264   3.028   3.653  0.0942 -0.6495 -0.3653
  174MOL   C12031606   7.271   2.888   3.719  0.4079  0.5244  0.0947
  174MOL   C12131607   7.163   2.784   3.672  0.5327  0.9417  0.5957
  174MOL   O12231608   7.087   2.721   3.752  0.7299  0.6101  0.4993
  174MOL   O12331609   7.149   2.775   3.537 -0.1888 -0.5402 -0.1712
  174MOL   H12431610   7.306   3.095   3.728 -3.0976  0.7958  0.2280
  174MOL   H12531611   7.338   3.016   3.574  0.8418 -0.0601  0.2362
  174MOL   H12631612   7.360   2.848   3.671 -0.1497 -0.7466  0.1194
  174MOL   H12731613   7.076   2.719   3.516  0.3311 -1.0702 -0.5909
  174MOL   C12831614   7.285   2.897   3.875  0.0464  0.2956 -0.1512
  174MOL   C12931615   7.428   2.919   3.930 -0.6323 -0.7433  0.4824
  174MOL   C13031616   7.487   2.779   3.957  0.2741 -1.1620  0.1631
  174MOL   O13131617   7.492   2.730   4.068 -0.2617  0.0057  0.1728
  174MOL   O13231618   7.516   2.712   3.839  0.4504  0.1566  0.5163
  174MOL   H13331619   7.239   2.808   3.917 -3.5283  1.3455 -1.6406
  174MOL   H13431620   7.220   2.977   3.912  0.2919 -0.4047  1.8581
  174MOL   H13531621   7.497   2.947   3.851 -1.3841  0.5072  0.2758
  174MOL   H13631622   7.548   2.625   3.857  1.2195  0.2049 -0.5597
  174MOL   C13731623   7.439   3.022   4.048 -0.5993  0.0230  0.8441
  174MOL   C13831624   7.413   3.173   4.014 -0.4199  0.0998  0.7657
  174MOL   C13931625   7.514   3.229   3.912 -0.2839  0.4423  0.5333
  174MOL   O14031626   7.627   3.180   3.897 -0.3730  0.3761 -0.2437
  174MOL   O14131627   7.453   3.312   3.817 -0.0850  0.0791  0.1267
  174MOL   H14231628   7.537   3.019   4.095  0.3561 -0.3044 -1.1378
  174MOL   H14331629   7.366   2.982   4.119 -2.5898  0.4962 -0.9091
  174MOL   H14431630   7.318   3.179   3.961 -0.5622 -1.1866  0.8533
  174MOL   H14531631   7.506   3.315   3.739 -0.6441 -0.1031 -0.2697
  174MOL   C14631632   7.411   3.265   4.140 -0.2090 -0.5170 -0.6716
  174MOL   C14731633   7.366   3.413   4.130 -0.6310 -0.2967 -0.1456
  174MOL   C14831634   7.495   3.503   4.135  1.3691 -0.3115  0.2688
  174MOL   O14931635   7.524   3.564   4.233 -0.3718  0.3045 -0.1088
  174MOL   O15031636   7.548   3.513   4.009 -0.6932  0.7293  0.0709
  174MOL   H15131637   7.507   3.261   4.193 -0.2431 -0.5267 -0.6103
  174MOL   H15231638   7.356   3.213   4.218  0.4051  0.4274  0.4147
  174MOL   H15331639   7.321   3.417   4.031 -0.1786  0.4348 -0.3297
  174MOL   H15431640   7.619   3.576   4.009 -0.2187  0.2253 -1.7139
  174MOL   C15531641   7.253   3.446   4.227 -0.0291 -0.3898  0.1619
  174MOL   C15631642   7.122   3.370   4.197  0.5522 -0.5372  1.0641
  174MOL   C15731643   7.051   3.418   4.067 -0.4733  0.9160  0.2622
  174MOL   O15831644   6.942   3.374   4.029 -0.1955  0.1373 -0.4959
  174MOL   O15931645   7.115   3.531   4.007  0.4520 -0.3402 -1.0532
  174MOL   H16031646   7.239   3.554   4.233 -0.7263 -0.3235 -2.3444
  174MOL   H16131647   7.284   3.434   4.331 -0.4303  1.4789  0.5097
  174MOL   H16231648   7.158   3.276   4.157 -0.0963 -0.7170  0.8935
  174MOL   H16331649   7.089   3.559   3.921  0.8170  0.5631 -0.8825
  174MOL   C16431650   7.019   3.345   4.309 -0.4930  0.1087 -0.3242
  174MOL   C16531651   7.074   3.276   4.439  0.6148  0.0973 -0.0019
  174MOL   C16631652   7.155   3.147   4.414  0.0838 -0.3313 -0.1297
  174MOL   O16731653   7.242   3.103   4.490  0.4326 -0.2645  0.6163
  174MOL   O16831654   7.105   3.080   4.308  0.8640  0.2558  0.0675
  174MOL   H16931655   6.940   3.276   4.278 -0.6741  0.7216 -1.2599
  174MOL   H17031656   6.977   3.445   4.323  1.1086  0.7433  0.0740
  174MOL   H17131657   7.137   3.355   4.479  0.3321 -0.5716  1.8209
  174MOL   H17231658   7.130   2.989   4.312 -1.6467 -0.4175  2.6319
  174MOL   C17331659   6.957   3.244   4.534 -0.1823 -0.0322 -0.1893
  174MOL   C17431660   6.989   3.280   4.682  0.2862 -0.6331 -0.0703
  174MOL   C17531661   6.967   3.429   4.710  0.1221  0.4237  0.4008
  174MOL   O17631662   7.007   3.520   4.640 -0.0694  1.2685 -0.4656
  174MOL   O17731663   6.902   3.446   4.827  0.1579  0.1151 -0.6052
  174MOL   H17831664   6.941   3.137   4.521  0.5119 -0.1254 -0.2886
  174MOL   H17931665   6.871   3.303   4.504  1.2560  0.8901 -2.6557
  174MOL   H18031666   6.913   3.230   4.741  0.2969 -1.7622 -1.0082
  174MOL   H18131667   6.897   3.537   4.852 -0.7446 -0.1194  0.1099
  174MOL   H18231668   7.087   3.243   4.713  0.9033 -0.2918 -1.5494
  175MOL     C131669   7.366   0.475   5.102 -0.0214 -0.4555  0.1189
  175MOL     C231670   7.377   0.625   5.134  0.4241  0.4648  0.5972
  175MOL     C331671   7.524   0.673   5.105 -0.1257  0.0614  0.6382
  175MOL     O431672   7.630   0.619   5.139 -0.3265  0.2339  0.2164
  175MOL     O531673   7.525   0.795   5.049 -0.1656 -0.5810  0.1116
  175MOL     H631674   7.264   0.461   5.067  0.2937  0.4058 -1.1830
  175MOL     H731675   7.415   0.460   5.006  1.4674 -1.8367  1.0754
  175MOL     H831676   7.308   0.676   5.067 -0.6450  0.7753  1.9302
  175MOL     H931677   7.613   0.827   5.033 -0.1690 -0.2837  0.6976
  175MOL    H1031678   7.397   0.407   5.181 -2.1568 -1.5198  0.0802
  175MOL    C1131679   7.335   0.659   5.276 -0.2558  0.5289 -0.4706
  175MOL    C1231680   7.182   0.649   5.312 -1.1005  0.3724 -0.5292
  175MOL    C1331681   7.108   0.732   5.221  0.0157 -0.3888 -0.0083
  175MOL    O1431682   7.030   0.681   5.142 -0.1641  0.3066  0.3440
  175MOL    O1531683   7.149   0.859   5.214 -0.0903  0.0665 -0.1938
  175MOL    H1631684   7.365   0.762   5.298  0.5960  0.2144 -0.1600
  175MOL    H1731685   7.383   0.597   5.352 -0.5240 -1.1030 -1.6220
  175MOL    H1831686   7.148   0.547   5.300 -0.1629 -0.6245  4.0929
  175MOL    H1931687   7.109   0.910   5.145 -1.4150 -0.1031  0.4324
  175MOL    C2031688   7.170   0.694   5.467  0.1457  0.6389  0.0556
  175MOL    C2131689   7.042   0.658   5.538 -0.5353 -0.0771  1.0225
  175MOL    C2231690   6.923   0.751   5.504  0.1562  0.3070 -0.0289
  175MOL    O2331691   6.934   0.866   5.476 -0.3828  0.0032  0.0568
  175MOL    O2431692   6.800   0.690   5.507  0.6466 -0.7563  0.4489
  175MOL    H2531693   7.181   0.802   5.460 -0.3595  0.6962  0.1480
  175MOL    H2631694   7.245   0.641   5.525  2.1257  2.1859 -1.0042
  175MOL    H2731695   7.015   0.567   5.485 -1.2972  1.8047 -1.9141
  175MOL    H2831696   6.735   0.753   5.479  1.8186 -0.0051 -0.6421
  175MOL    C2931697   7.059   0.636   5.690  0.6611 -0.3729 -0.5732
  175MOL    C3031698   7.157   0.721   5.770 -0.1377  0.2562  0.2278
  175MOL    C3131699   7.210   0.633   5.890 -0.0712  0.5547 -0.0236
  175MOL    O3231700   7.328   0.606   5.910 -0.2547  0.1073  0.5104
  175MOL    O3331701   7.107   0.597   5.973 -0.1349  0.0503 -0.0208
  175MOL    H3431702   7.099   0.535   5.693  0.1896 -0.5996 -1.7255
  175MOL    H3531703   6.957   0.641   5.729  1.3353  1.5019  1.0580
  175MOL    H3631704   7.254   0.744   5.725  0.3270  1.4336  1.8149
  175MOL    H3731705   7.144   0.566   6.054  2.2094  0.8178 -0.7559
  175MOL    C3831706   7.108   0.863   5.817 -0.2056 -0.0144  0.0565
  175MOL    C3931707   7.222   0.952   5.865  0.3301 -0.3333  0.1456
  175MOL    C4031708   7.189   0.991   6.008 -0.5410 -0.0536 -0.0067
  175MOL    O4131709   7.147   1.101   6.036  0.2058 -0.2702 -0.4795
  175MOL    O4231710   7.188   0.884   6.095 -0.0456  0.4056  0.1644
  175MOL    H4331711   7.030   0.847   5.891 -1.3742 -0.2224 -1.1830
  175MOL    H4431712   7.052   0.911   5.737  1.9752  0.5509 -1.1702
  175MOL    H4531713   7.315   0.895   5.872  0.9017 -0.0049 -3.7086
  175MOL    H4631714   7.137   0.900   6.173  0.7579  1.2151  0.5303
  175MOL    C4731715   7.252   1.071   5.758  0.7218 -0.4251 -0.2224
  175MOL    C4831716   7.405   1.096   5.741  0.3395 -0.8910 -0.3323
  175MOL    C4931717   7.469   1.184   5.851  0.1533  0.8593  0.5653
  175MOL    O5031718   7.397   1.258   5.918  0.2026  0.1338  0.0914
  175MOL    O5131719   7.606   1.167   5.853 -0.0091 -0.2389  0.5675
  175MOL    H5231720   7.183   1.155   5.769 -1.1984 -2.0673  0.5795
  175MOL    H5331721   7.204   1.029   5.669 -0.6214 -2.6648  1.5116
  175MOL    H5431722   7.456   1.000   5.743 -1.6012 -1.9399  0.1253
  175MOL    H5531723   7.658   1.235   5.894 -0.3829 -0.3457  1.2378
  175MOL    C5631724   7.434   1.166   5.603  0.6722 -0.1742 -0.2663
  175MOL    C5731725   7.414   1.083   5.478 -0.3562  0.3857 -0.1003
  175MOL    C5831726   7.530   0.980   5.456  0.7194  0.2539  0.5966
  175MOL    O5931727   7.589   0.922   5.549 -0.0140 -0.3226 -0.3568
  175MOL    O6031728   7.550   0.934   5.334  0.2197  0.3447  0.0816
  175MOL    H6131729   7.537   1.200   5.608 -0.3450  3.0733 -0.7034
  175MOL    H6231730   7.366   1.251   5.602  1.9247  0.8570  0.5541
  175MOL    H6331731   7.324   1.023   5.496 -1.9371  2.5064 -0.7905
  175MOL    H6431732   7.595   0.851   5.339 -1.3681 -0.6497 -1.6134
  175MOL    C6531733   7.386   1.167   5.347  0.4327 -0.0739  0.3187
  175MOL    C6631734   7.499   1.242   5.275  0.3068 -1.0827  0.5153
  175MOL    C6731735   7.510   1.387   5.326 -0.0477 -0.9784  0.6317
  175MOL    O6831736   7.580   1.419   5.426  0.0110  0.4766 -0.5690
  175MOL    O6931737   7.438   1.475   5.258  0.2674  0.4228  0.3554
  175MOL    H7031738   7.310   1.241   5.371 -0.4120 -0.0748 -2.2043
  175MOL    H7131739   7.338   1.093   5.282 -0.2343 -1.2451  2.1198
  175MOL    H7231740   7.599   1.199   5.289  0.9606 -0.5605 -2.1800
  175MOL    H7331741   7.454   1.560   5.298 -0.0705 -1.0942  3.9418
  175MOL    C7431742   7.483   1.238   5.127  0.1180  0.3383  0.5356
  175MOL    C7531743   7.527   1.106   5.058 -0.7177 -0.0464  0.5932
  175MOL    C7631744   7.680   1.076   5.055 -0.2788 -0.2963  0.2366
  175MOL    O7731745   7.729   0.968   5.075 -0.0556  0.4309  0.4208
  175MOL    O7831746   7.750   1.193   5.021  0.0446  0.0184 -0.0952
  175MOL    H7931747   7.558   1.311   5.096  1.6378 -1.9694 -1.4901
  175MOL    H8031748   7.384   1.259   5.088  0.6421  3.0077  0.5453
  175MOL    H8131749   7.477   1.022   5.106  0.6350 -1.4278 -0.3712
  175MOL    H8231750   7.843   1.176   5.022 -0.0631 -0.6228 -0.5502
  175MOL    C8331751   7.478   1.088   4.915  0.2801  0.0588  0.4919
  175MOL    C8431752   7.544   1.152   4.790 -0.1044  0.6213  0.8778
  175MOL    C8531753   7.546   1.301   4.780 -0.3168 -0.2709 -1.4872
  175MOL    O8631754   7.468   1.375   4.841  0.8804 -0.4088 -0.2442
  175MOL    O8731755   7.647   1.342   4.706 -0.2083 -0.7472  0.0891
  175MOL    H8831756   7.384   1.143   4.916  1.2816  1.8879 -1.1419
  175MOL    H8931757   7.448   0.985   4.897  2.2416 -0.1452 -2.0110
  175MOL    H9031758   7.644   1.112   4.777 -0.7983 -1.0122  0.3764
  175MOL    H9131759   7.642   1.436   4.698  1.8402 -0.7697 -2.0938
  175MOL    C9231760   7.465   1.110   4.666 -0.0711 -0.2089 -0.3463
  175MOL    C9331761   7.310   1.142   4.642  0.6292  0.7065  0.0077
  175MOL    C9431762   7.239   1.009   4.671 -0.3759 -0.4643 -0.6919
  175MOL    O9531763   7.235   0.919   4.594 -0.0596  0.3552  0.0162
  175MOL    O9631764   7.188   1.012   4.796 -0.0535 -0.0581 -0.2796
  175MOL    H9731765   7.482   1.003   4.651 -0.1390 -0.0173 -1.8478
  175MOL    H9831766   7.517   1.158   4.583 -1.1909  1.9398  0.1620
  175MOL    H9931767   7.277   1.211   4.721 -0.4090 -0.0620  0.2546
  175MOL   H10031768   7.141   0.937   4.829 -0.2866 -0.3647 -1.2854
  175MOL   C10131769   7.287   1.203   4.504  0.1195  0.4105  0.5078
  175MOL   C10231770   7.146   1.215   4.447  0.1088 -0.1104  0.9400
  175MOL   C10331771   7.139   1.212   4.290 -0.2552  0.1025  0.0103
  175MOL   O10431772   7.071   1.291   4.231 -0.3296 -0.3859  0.0998
  175MOL   O10531773   7.215   1.117   4.230  0.3804 -0.8689  0.4572
  175MOL   H10631774   7.354   1.157   4.431  0.8026  1.1809  0.6408
  175MOL   H10731775   7.332   1.302   4.501  0.1738  0.4993  3.1756
  175MOL   H10831776   7.095   1.125   4.482  0.9641 -0.6036  0.9471
  175MOL   H10931777   7.205   1.131   4.137  1.0751 -0.8048  0.3911
  175MOL   C11031778   7.073   1.334   4.512 -0.8386 -0.0607 -0.2050
  175MOL   C11131779   6.917   1.343   4.514 -0.0806 -0.3138  0.6516
  175MOL   C11231780   6.875   1.492   4.526 -0.9338  0.1524 -0.0380
  175MOL   O11331781   6.782   1.540   4.472  0.3972  0.2672  0.5093
  175MOL   O11431782   6.952   1.558   4.615  0.2320  0.1003 -0.6742
  175MOL   H11531783   7.104   1.421   4.454 -1.3413  0.6950  0.6368
  175MOL   H11631784   7.107   1.350   4.615 -0.1108 -0.2918 -0.4114
  175MOL   H11731785   6.878   1.321   4.414  0.5829 -0.4583  0.4218
  175MOL   H11831786   6.931   1.650   4.619 -1.1502 -0.2513  0.6617
  175MOL   C11931787   6.844   1.254   4.616 -0.5561 -0.9421  0.9324
  175MOL   C12031788   6.713   1.180   4.584 -0.2252 -0.1327  0.4513
  175MOL   C12131789   6.590   1.249   4.632 -0.1667  0.2082 -0.5431
  175MOL   O12231790   6.592   1.353   4.693 -0.2728  0.0468  0.1128
  175MOL   O12331791   6.474   1.187   4.590  0.4508 -0.1835 -0.1539
  175MOL   H12431792   6.850   1.303   4.713  0.6119  0.1299  0.3347
  175MOL   H12531793   6.915   1.173   4.627 -0.8940 -1.1087  1.9410
  175MOL   H12631794   6.703   1.188   4.476  1.0934  2.4916  0.4862
  175MOL   H12731795   6.394   1.223   4.625 -0.2977 -3.1342  1.2911
  175MOL   C12831796   6.717   1.033   4.624  0.1552  0.0524 -0.3230
  175MOL   C12931797   6.803   0.934   4.541 -0.0648  0.3915  0.1223
  175MOL   C13031798   6.782   0.948   4.392 -0.2252 -0.1675 -0.7404
  175MOL   O13131799   6.674   0.928   4.332  0.7327 -0.1084  0.0432
  175MOL   O13231800   6.899   0.966   4.328  0.2937  0.1049 -0.1001
  175MOL   H13331801   6.624   0.977   4.629  0.9687 -1.2102  1.1520
  175MOL   H13431802   6.750   1.037   4.728 -0.7317  2.3221 -0.0903
  175MOL   H13531803   6.908   0.954   4.563  0.6999  0.7500 -3.4894
  175MOL   H13631804   6.878   0.974   4.237 -3.7488  3.1256  0.9704
  175MOL   C13731805   6.786   0.783   4.576 -0.3812  0.2394 -0.0864
  175MOL   C13831806   6.888   0.686   4.510  0.2215 -0.2770  0.0967
  175MOL   C13931807   6.821   0.550   4.478 -0.4323  0.4722 -0.3810
  175MOL   O14031808   6.702   0.526   4.500 -0.6858 -0.2976 -0.3663
  175MOL   O14131809   6.911   0.462   4.427  0.1617 -0.5796  0.5346
  175MOL   H14231810   6.691   0.757   4.529 -0.2443  1.9452 -1.3668
  175MOL   H14331811   6.773   0.776   4.684  0.8605  2.4260  0.2202
  175MOL   H14431812   6.913   0.719   4.409  0.2567  2.5991  0.9929
  175MOL   H14531813   6.864   0.381   4.411 -2.2971  0.2454  3.0563
  175MOL   C14631814   7.019   0.655   4.598  0.2578 -0.2044  0.0112
  175MOL   C14731815   7.013   0.588   4.743 -0.3544 -0.8060 -0.2139
  175MOL   C14831816   6.981   0.705   4.841  0.4497 -0.4471  0.0412
  175MOL   O14931817   7.053   0.807   4.852 -0.4034 -0.0030 -0.4564
  175MOL   O15031818   6.858   0.687   4.900  0.3659  0.3352 -0.2528
  175MOL   H15131819   7.074   0.749   4.606  1.0967 -0.4923 -2.0997
  175MOL   H15231820   7.085   0.596   4.535 -0.0841 -0.3636 -0.2019
  175MOL   H15331821   6.942   0.506   4.757 -1.4023  0.2860  1.1273
  175MOL   H15431822   6.850   0.765   4.953  0.8569 -0.2513  0.6915
  175MOL   C15531823   7.156   0.534   4.791  0.1561  0.1607 -0.9342
  175MOL   C15631824   7.224   0.438   4.685  0.1974  0.0580 -0.2355
  175MOL   C15731825   7.149   0.303   4.667  0.3779 -0.0802  1.1663
  175MOL   O15831826   7.077   0.269   4.577  0.1958  0.5448 -0.7733
  175MOL   O15931827   7.151   0.229   4.778 -0.2122 -0.3888 -0.5293
  175MOL   H16031828   7.139   0.485   4.887  4.0041 -0.3068 -0.4283
  175MOL   H16131829   7.215   0.625   4.806 -1.1501  0.9170 -0.3017
  175MOL   H16231830   7.252   0.492   4.594  1.3556  0.9296  0.6194
  175MOL   H16331831   7.102   0.151   4.756 -0.8277 -0.1893  0.1102
  175MOL   C16431832   7.373   0.411   4.734  0.1704 -0.3340  0.1848
  175MOL   C16531833   7.479   0.353   4.628  0.1522  0.2148 -0.1194
  175MOL   C16631834   7.605   0.306   4.702 -0.0165 -0.6337  0.4036
  175MOL   O16731835   7.644   0.194   4.689 -0.3686 -0.6112 -0.7414
  175MOL   O16831836   7.648   0.384   4.802  0.1705  0.0071 -0.4304
  175MOL   H16931837   7.366   0.341   4.817 -1.5492 -2.7904 -1.9335
  175MOL   H17031838   7.417   0.501   4.777 -0.3444  0.0304 -0.0478
  175MOL   H17131839   7.434   0.260   4.593  3.0066 -1.3758  0.2355
  175MOL   H17231840   7.727   0.355   4.845  1.1343 -0.0919 -2.2372
  175MOL   C17331841   7.511   0.437   4.503 -0.2833 -0.1807 -0.6230
  175MOL   C17431842   7.582   0.573   4.513  0.4575 -0.9725 -1.3136
  175MOL   C17531843   7.497   0.684   4.577 -0.6983 -0.3177 -0.0714
  175MOL   O17631844   7.501   0.715   4.696 -0.0004  0.1584  0.4439
  175MOL   O17731845   7.424   0.743   4.476 -0.2865  0.0228 -0.3120
  175MOL   H17831846   7.423   0.452   4.440  0.6372  1.1030 -1.6486
  175MOL   H17931847   7.569   0.364   4.446 -1.6011 -1.9110  0.1996
  175MOL   H18031848   7.677   0.561   4.566  0.6964 -0.9304 -1.7296
  175MOL   H18131849   7.368   0.811   4.511 -1.0572  1.2275 -3.6662
  175MOL   H18231850   7.629   0.606   4.420  0.4834 -0.4240 -1.1031
  176MOL     C131851   0.107   3.020   4.149 -0.4323  0.2444  0.5168
  176MOL     C231852   0.010   2.968   4.251  1.0252 -0.1346  0.0467
  176MOL     C331853   7.786   2.841   4.219  0.7659 -0.0936 -0.2588
  176MOL     O431854   7.741   2.766   4.301  0.3798  0.6466  0.0490
  176MOL     O531855   7.793   2.816   4.084 -0.2340  0.2442 -0.1559
  176MOL     H631856   0.190   2.951   4.133  0.7738  1.6876  0.4976
  176MOL     H731857   0.069   3.035   4.048 -0.3644 -1.1273  0.2763
  176MOL     H831858   0.075   2.938   4.333 -1.0772 -1.5028  1.2613
  176MOL     H931859   0.003   2.871   4.039  2.4421 -0.7931  2.1352
  176MOL    H1031860   0.154   3.115   4.173 -0.0610  0.3714 -0.6714
  176MOL    C1131861   7.774   3.081   4.307  0.3896  0.2272  0.1600
  176MOL    C1231862   7.733   3.075   4.457  0.3946  0.5756 -0.0569
  176MOL    C1331863   7.596   3.138   4.473  0.4129  0.5862  0.0490
  176MOL    O1431864   7.578   3.252   4.509 -0.6074 -0.3175  0.3722
  176MOL    O1531865   7.495   3.055   4.432  0.3671  0.7561 -0.3009
  176MOL    H1631866   7.689   3.095   4.241 -0.2379 -2.0202  0.4467
  176MOL    H1731867   7.827   3.175   4.292 -0.7388  0.6495 -1.2987
  176MOL    H1831868   7.727   2.967   4.470 -2.3813  0.6931 -0.1145
  176MOL    H1931869   7.409   3.095   4.440  0.3758  0.4304  1.5166
  176MOL    C2031870   7.837   3.130   4.558  0.1816 -0.4606  0.3249
  176MOL    C2131871   7.791   3.120   4.707  0.0354  0.0615  0.6175
  176MOL    C2231872   0.040   3.194   4.795 -0.0292 -0.1641  0.4967
  176MOL    O2331873   0.132   3.143   4.859  0.0808 -0.0436 -0.0206
  176MOL    O2431874   0.014   3.326   4.784 -0.8826  0.5567 -0.1874
  176MOL    H2531875   0.013   3.233   4.538 -0.1473  0.0581  2.3489
  176MOL    H2631876   0.075   3.074   4.539  0.1451 -0.7919  1.1088
  176MOL    H2731877   7.699   3.175   4.727 -0.1686 -0.1195  0.2106
  176MOL    H2831878   0.087   3.370   4.823  0.5989 -0.6495 -1.5527
  176MOL    C2931879   7.761   2.974   4.761 -0.4988  0.0228  0.1257
  176MOL    C3031880   7.695   2.966   4.899 -0.0474 -0.1180  0.2078
  176MOL    C3131881   7.761   2.848   4.980 -0.3781  0.1814  0.3798
  176MOL    O3231882   7.842   2.852   5.073 -0.7975 -0.1063 -0.2016
  176MOL    O3331883   7.713   2.730   4.930 -0.4250  0.1425 -0.3440
  176MOL    H3431884   0.010   2.935   4.763  0.3912  2.2363  3.0892
  176MOL    H3531885   7.715   2.912   4.684  2.2030  0.4133 -1.9037
  176MOL    H3631886   7.706   3.051   4.966  2.0795  0.1705 -0.4467
  176MOL    H3731887   7.758   2.664   4.981 -2.8832 -2.0318 -0.9041
  176MOL    C3831888   7.545   2.949   4.884 -0.0217  0.3625  0.7522
  176MOL    C3931889   7.471   2.928   5.018  0.4403  0.8532  0.5321
  176MOL    C4031890   7.316   2.911   4.991 -0.0371 -0.0228 -0.2689
  176MOL    O4131891   7.258   2.957   4.890  0.1713  0.0201 -0.6694
  176MOL    O4231892   7.256   2.840   5.090  0.2638 -0.5462 -0.0277
  176MOL    H4331893   7.537   2.863   4.816 -1.3649 -0.5417  2.0122
  176MOL    H4431894   7.506   3.039   4.836  1.1419  0.7097  0.4526
  176MOL    H4531895   7.499   2.836   5.071 -1.3229  0.5132  0.9031
  176MOL    H4631896   7.168   2.821   5.060 -0.8416  3.6514  0.2453
  176MOL    C4731897   7.476   3.040   5.123 -0.1361  1.0279  0.6653
  176MOL    C4831898   7.568   3.021   5.251  0.2958  0.2077  0.0706
  176MOL    C4931899   7.512   2.918   5.345  0.1540 -0.5352  0.2369
  176MOL    O5031900   7.420   2.942   5.419 -0.1571  0.0838 -0.4966
  176MOL    O5131901   7.567   2.798   5.329  0.2312 -0.3541 -0.2249
  176MOL    H5231902   7.377   3.058   5.166 -0.7735 -0.5535 -0.1230
  176MOL    H5331903   7.495   3.125   5.059  0.8478 -1.1211 -1.9648
  176MOL    H5431904   7.669   2.997   5.218  0.3216  0.4617 -0.0387
  176MOL    H5531905   7.518   2.730   5.375 -0.2124 -0.8833 -1.4552
  176MOL    C5631906   7.587   3.159   5.315  0.3703  0.0055  0.5199
  176MOL    C5731907   7.719   3.188   5.394 -0.0137 -0.7749 -0.1400
  176MOL    C5831908   7.826   3.215   5.292 -0.1634 -0.6173  0.1760
  176MOL    O5931909   7.800   3.232   5.171 -0.1508 -0.3466 -1.4938
  176MOL    O6031910   0.102   3.221   5.339 -0.1243  0.5315 -0.0794
  176MOL    H6131911   7.506   3.171   5.387  0.2516  3.0405 -0.0883
  176MOL    H6231912   7.560   3.245   5.254  1.5087 -0.3088 -0.4463
  176MOL    H6331913   7.692   3.280   5.446  0.7590 -1.2008  1.0321
  176MOL    H6431914   0.161   3.234   5.265  1.6723 -0.7851  1.0721
  176MOL    C6531915   7.761   3.093   5.520  0.3293  0.7262  0.5192
  176MOL    C6631916   0.023   3.137   5.619 -0.1830 -0.4923 -0.5999
  176MOL    C6731917   0.047   3.034   5.735  0.2933 -0.4379 -0.0223
  176MOL    O6831918   7.817   2.952   5.773  0.2695 -0.1250  0.3085
  176MOL    O6931919   0.175   3.032   5.779  0.0967 -0.0594 -0.3545
  176MOL    H7031920   7.786   2.996   5.479  1.2511  0.9962  0.4245
  176MOL    H7131921   7.673   3.086   5.585  0.8941  1.7552  1.4225
  176MOL    H7231922   0.117   3.126   5.566  0.5329  0.4124  0.4633
  176MOL    H7331923   0.184   2.967   5.847  1.7624  0.4971 -0.0028
  176MOL    C7431924   0.020   3.276   5.689 -0.0520  0.4997 -0.0326
  176MOL    C7531925   0.074   3.391   5.604  0.7207 -0.5319 -1.1450
  176MOL    C7631926   0.225   3.375   5.587  0.1347  0.1048  0.8414
  176MOL    O7731927   0.294   3.299   5.655 -0.1703 -0.2162  0.1566
  176MOL    O7831928   0.270   3.445   5.479  0.8258 -0.1333 -1.0166
  176MOL    H7931929   0.083   3.282   5.778 -0.4487 -0.7420  0.3561
  176MOL    H8031930   7.778   3.288   5.742 -0.1793 -0.3561 -0.0495
  176MOL    H8131931   0.028   3.389   5.505 -0.6907 -2.6087 -0.4920
  176MOL    H8231932   0.364   3.453   5.469  1.3636 -1.8552  1.8969
  176MOL    C8331933   0.033   3.530   5.654 -0.7326 -0.7641  0.1949
  176MOL    C8431934   7.741   3.572   5.621 -0.0389  0.3379  0.4026
  176MOL    C8531935   7.726   3.619   5.468  0.0827 -0.2005 -0.1588
  176MOL    O8631936   7.799   3.710   5.417  0.6655 -0.6233 -0.0076
  176MOL    O8731937   7.631   3.545   5.405  0.0001  0.3971  0.4410
  176MOL    H8831938   0.102   3.607   5.622  1.6824 -2.6873  0.6394
  176MOL    H8931939   0.050   3.534   5.762  0.2664 -2.8948  0.1326
  176MOL    H9031940   7.675   3.486   5.626 -0.9697  1.0084 -0.0190
  176MOL    H9131941   7.634   3.587   5.321 -0.3652 -0.1189  0.1651
  176MOL    C9231942   7.684   3.675   5.721  0.1462 -0.3032 -0.2279
  176MOL    C9331943   7.531   3.639   5.753 -0.2506  0.5885 -0.2823
  176MOL    C9431944   7.505   3.523   5.852  0.2366 -0.2331 -0.5503
  176MOL    O9531945   7.469   3.544   5.967 -0.5649  0.1318 -0.2645
  176MOL    O9631946   7.511   3.395   5.799 -0.2664  0.1396  0.1554
  176MOL    H9731947   7.696   3.774   5.676 -1.4251  1.3527  2.8792
  176MOL    H9831948   7.730   3.682   5.820 -0.1094 -1.8183  0.0144
  176MOL    H9931949   7.494   3.723   5.811 -1.0288 -1.0313  1.6352
  176MOL   H10031950   7.501   3.333   5.869  0.5922 -0.9684 -0.6865
  176MOL   C10131951   7.440   3.631   5.630  0.4558 -0.3028  0.5518
  176MOL   C10231952   7.296   3.676   5.658  0.4576  0.5395  0.2752
  176MOL   C10331953   7.198   3.617   5.557 -0.1800  0.1912 -0.0097
  176MOL   O10431954   7.140   3.680   5.471 -0.1129 -0.4604 -0.8099
  176MOL   O10531955   7.180   3.485   5.573  0.5801 -0.2358  0.5794
  176MOL   H10631956   7.445   3.531   5.588 -2.4009 -0.1933 -0.1007
  176MOL   H10731957   7.477   3.705   5.559  1.6794 -2.6955 -1.3562
  176MOL   H10831958   7.271   3.633   5.755  1.3876  1.3494  0.8826
  176MOL   H10931959   7.109   3.450   5.522 -1.4527 -0.4591  3.4117
  176MOL   C11031960   7.278   3.824   5.683  0.8341 -0.0017 -0.2342
  176MOL   C11131961   7.164   3.859   5.777  0.1387  0.0428  0.3348
  176MOL   C11231962   7.033   3.905   5.705  0.2061  0.2125 -0.2555
  176MOL   O11331963   7.012   4.026   5.682  0.1137  0.2173 -0.8020
  176MOL   O11431964   6.946   3.799   5.681 -0.0555 -0.1917 -0.0885
  176MOL   H11531965   7.265   3.863   5.582 -0.3799  2.3029  0.7635
  176MOL   H11631966   7.374   3.874   5.701  0.4046  1.8389 -2.6728
  176MOL   H11731967   7.125   3.779   5.839 -3.3704  2.5269  1.4943
  176MOL   H11831968   6.868   3.846   5.654  0.6211  0.6619 -0.6089
  176MOL   C11931969   7.215   3.972   5.872  0.2359 -0.3501  0.1996
  176MOL   C12031970   7.193   3.923   6.027  0.0998  0.0829 -0.0468
  176MOL   C12131971   7.055   3.899   6.073  0.4596  0.1005  0.3971
  176MOL   O12231972   6.954   3.935   6.010  0.5868 -0.0886 -0.9262
  176MOL   O12331973   7.043   3.832   6.183  0.3604 -0.0320 -0.3627
  176MOL   H12431974   7.157   4.064   5.856  0.4442 -0.4397 -1.1394
  176MOL   H12531975   7.322   3.986   5.856  0.6150 -2.1926  0.9860
  176MOL   H12631976   7.253   3.833   6.045  1.7303  0.4571 -3.1504
  176MOL   H12731977   6.955   3.802   6.201  0.3058  0.9195  1.0757
  176MOL   C12831978   7.254   4.039   6.116 -0.2638 -0.3348  0.1259
  176MOL   C12931979   7.404   4.018   6.155 -0.0014 -0.4864 -0.4518
  176MOL   C13031980   7.409   3.943   6.290 -0.5956 -0.7957 -0.8985
  176MOL   O13131981   7.417   4.006   6.400 -0.0043  0.0765 -0.0893
  176MOL   O13231982   7.406   3.808   6.281  0.3040  1.1564 -0.2564
  176MOL   H13331983   7.187   4.051   6.201 -2.5709 -2.8912 -1.2634
  176MOL   H13431984   7.258   4.136   6.066 -0.1376 -1.1380 -1.4613
  176MOL   H13531985   7.459   3.954   6.087  0.2976 -0.3606 -0.3259
  176MOL   H13631986   7.410   3.753   6.357  0.4038 -0.4711 -1.4180
  176MOL   C13731987   7.487   4.147   6.168  0.0002 -0.6281  0.3366
  176MOL   C13831988   7.522   4.204   6.028  0.5580  0.5742  0.1207
  176MOL   C13931989   7.656   4.138   5.981 -0.7348 -0.5005  0.1466
  176MOL   O14031990   7.759   4.208   5.973 -0.1202 -0.1515  0.8178
  176MOL   O14131991   7.643   4.013   5.926  0.0443 -0.2034 -0.4012
  176MOL   H14231992   7.577   4.130   6.227  0.1836 -0.2549  0.1708
  176MOL   H14331993   7.440   4.216   6.238 -0.1947 -2.1368  1.7223
  176MOL   H14431994   7.453   4.171   5.951  1.4009 -0.4930 -0.1858
  176MOL   H14531995   7.715   4.001   5.866  1.5922 -0.3999  1.4406
  176MOL   C14631996   7.524   4.356   6.035 -0.1383 -0.2085  0.4069
  176MOL   C14731997   7.381   4.418   6.051 -0.7714 -0.8312 -0.1682
  176MOL   C14831998   7.298   4.416   5.925  0.0348  0.4085 -0.9789
  176MOL   O14931999   7.336   4.440   5.811 -0.0693  0.3306  0.0206
  176MOL   O15032000   7.169   4.370   5.955 -0.6139 -0.2766  0.2080
  176MOL   H15132001   7.566   4.388   5.940 -1.0158  0.4828  0.2451
  176MOL   H15232002   7.589   4.382   6.118  0.8379 -0.8012 -0.1657
  176MOL   H15332003   7.328   4.356   6.123 -0.7410 -0.4182  0.2086
  176MOL   H15432004   7.138   4.347   5.869 -1.4291  0.9629  0.1556
  176MOL   C15532005   7.387   4.554   6.116 -0.8476 -0.4237  0.1652
  176MOL   C15632006   7.255   4.629   6.156  0.1422 -0.4912  0.2413
  176MOL   C15732007   7.271   4.779   6.195 -0.1759  0.1555 -0.3862
  176MOL   O15832008   7.381   4.832   6.204 -0.3416 -0.6365  0.1536
  176MOL   O15932009   7.156   4.855   6.212 -0.1002  0.1435 -0.2681
  176MOL   H16032010   7.456   4.615   6.060  0.7311 -0.4784  2.0121
  176MOL   H16132011   7.446   4.552   6.207 -0.9789  1.8968  0.3287
  176MOL   H16232012   7.201   4.624   6.061  2.1990 -2.7993 -0.8791
  176MOL   H16332013   7.182   4.941   6.240  2.0747  0.6150 -3.4273
  176MOL   C16432014   7.161   4.551   6.252 -0.3305  0.2211  0.1137
  176MOL   C16532015   7.193   4.567   6.395 -0.1586  0.1649  0.3925
  176MOL   C16632016   7.330   4.522   6.428  0.0318 -0.2801 -0.5560
  176MOL   O16732017   7.359   4.407   6.418 -0.2961 -0.9862  0.5572
  176MOL   O16832018   7.413   4.621   6.469 -0.4178 -0.7686  0.2863
  176MOL   H16932019   7.156   4.447   6.220 -0.7846  0.6602 -1.2439
  176MOL   H17032020   7.064   4.600   6.244 -1.4529 -1.7715  1.2674
  176MOL   H17132021   7.180   4.670   6.430  0.0707  0.0343  0.8660
  176MOL   H17232022   7.495   4.576   6.478 -0.1513 -0.2199  0.6220
  176MOL   C17332023   7.092   4.481   6.481  0.2748  0.3574  0.0252
  176MOL   C17432024   7.102   4.500   6.634  0.1063  0.7959  0.7364
  176MOL   C17532025   6.989   4.445   6.718  0.1462 -0.3939  0.2969
  176MOL   O17632026   6.904   4.368   6.672  0.2441  0.5249  0.3640
  176MOL   O17732027   7.004   4.485   6.847 -0.1180 -0.0593 -0.1852
  176MOL   H17832028   7.105   4.374   6.462  0.2900  0.4412 -0.4539
  176MOL   H17932029   6.992   4.510   6.448  1.3983  0.3472 -3.6502
  176MOL   H18032030   7.195   4.466   6.679  0.3528 -0.8409 -0.9631
  176MOL   H18132031   6.934   4.443   6.896 -0.4994  2.7131  1.7724
  176MOL   H18232032   7.102   4.607   6.656 -2.7295  0.6270  1.8966
  177MOL     C132033   3.729   0.397   6.316  0.2461  0.5131  0.1408
  177MOL     C232034   3.594   0.441   6.383 -0.1251  0.1273 -0.0636
  177MOL     C332035   3.487   0.477   6.284  0.1318  0.2014  0.0067
  177MOL     O432036   3.374   0.433   6.281 -0.3121  0.2566  0.0763
  177MOL     O532037   3.531   0.556   6.185  0.0028  0.2624 -0.8306
  177MOL     H632038   3.704   0.329   6.235  0.7250 -1.1658  1.3885
  177MOL     H732039   3.798   0.479   6.292  2.7184 -0.5880  3.1596
  177MOL     H832040   3.553   0.353   6.432 -1.5075 -0.2031 -1.7459
  177MOL     H932041   3.621   0.573   6.206 -0.7113  1.1776  1.6508
  177MOL    H1032042   3.778   0.329   6.386  0.8979  1.5480  0.7058
  177MOL    C1132043   3.623   0.553   6.492 -0.2532 -0.4336 -0.0092
  177MOL    C1232044   3.505   0.568   6.601  0.2261 -0.2132  0.4515
  177MOL    C1332045   3.531   0.695   6.674 -0.6151 -0.9476 -0.2066
  177MOL    O1432046   3.565   0.698   6.795  0.1848 -0.5415  0.2857
  177MOL    O1532047   3.521   0.808   6.598  0.2956 -0.2983 -0.1217
  177MOL    H1632048   3.643   0.648   6.443  2.0877  0.6969  3.0129
  177MOL    H1732049   3.714   0.521   6.542 -2.3298 -2.5899  2.5492
  177MOL    H1832050   3.413   0.594   6.549  1.1334  0.0970 -1.0130
  177MOL    H1932051   3.546   0.887   6.644 -4.4404  1.3892 -0.1532
  177MOL    C2032052   3.494   0.437   6.685 -0.8109  0.0585  0.7311
  177MOL    C2132053   3.360   0.417   6.773 -0.1889 -0.4486 -0.7336
  177MOL    C2232054   3.394   0.341   6.905 -0.4076 -0.1664 -0.9804
  177MOL    O2332055   3.489   0.269   6.922 -0.0986  0.2182 -0.2109
  177MOL    O2432056   3.308   0.372   7.008  0.1524  0.1193  0.0101
  177MOL    H2532057   3.585   0.431   6.745  0.0567  2.4244 -0.2958
  177MOL    H2632058   3.501   0.355   6.613  0.9319 -1.3259  2.4125
  177MOL    H2732059   3.334   0.513   6.818 -0.2106 -0.0845 -1.5213
  177MOL    H2832060   3.322   0.313   7.080  0.8320 -0.4845 -0.6216
  177MOL    C2932061   3.242   0.345   6.698 -0.1566 -0.2270  0.1714
  177MOL    C3032062   3.152   0.423   6.606 -0.4663  0.3844 -0.0452
  177MOL    C3132063   3.127   0.560   6.673  0.1674 -0.0943  0.0026
  177MOL    O3232064   3.053   0.568   6.779 -0.1947  0.5750  0.3782
  177MOL    O3332065   3.172   0.663   6.599  0.3624 -0.9184  0.2527
  177MOL    H3432066   3.175   0.304   6.773 -0.1014  0.9962  0.9143
  177MOL    H3532067   3.281   0.260   6.642 -1.7319 -0.5467 -0.4552
  177MOL    H3632068   3.200   0.440   6.509 -0.3953  1.3777  0.1602
  177MOL    H3732069   3.145   0.746   6.635  1.7820 -0.9994  1.5439
  177MOL    C3832070   3.025   0.342   6.585 -0.0279 -0.2735  0.1046
  177MOL    C3932071   2.925   0.380   6.467 -0.3170 -0.7503  0.2569
  177MOL    C4032072   2.918   0.529   6.438  0.4180 -0.2102  0.3858
  177MOL    O4132073   2.834   0.608   6.490  0.2041 -0.1237  0.4608
  177MOL    O4232074   3.022   0.572   6.357 -0.4161  0.0510 -0.3096
  177MOL    H4332075   2.974   0.338   6.681  0.6722  0.0547  0.4940
  177MOL    H4432076   3.066   0.246   6.553  0.4459  0.9043 -2.9853
  177MOL    H4532077   2.973   0.339   6.379  2.6128  0.0171  1.4270
  177MOL    H4632078   3.021   0.665   6.345  2.2995  0.2897  1.1020
  177MOL    C4732079   2.783   0.322   6.478 -0.5453  0.4025  0.2440
  177MOL    C4832080   2.771   0.170   6.490  0.0950 -0.2143  0.1666
  177MOL    C4932081   2.775   0.111   6.347 -1.0278 -0.2185 -1.1229
  177MOL    O5032082   2.736   0.169   6.245  0.4775  0.5768 -0.3668
  177MOL    O5132083   2.825   7.837   6.359 -0.1308 -0.4237 -0.0196
  177MOL    H5232084   2.719   0.366   6.402 -1.5638 -1.4663 -0.0000
  177MOL    H5332085   2.746   0.377   6.565  1.0408  0.6076  0.8066
  177MOL    H5432086   2.863   0.133   6.534  0.3828 -0.4007 -0.5859
  177MOL    H5532087   2.815   7.797   6.274  2.4090 -0.2564 -0.4272
  177MOL    C5632088   2.655   0.124   6.566  0.0053  0.0607  0.5872
  177MOL    C5732089   2.678   0.096   6.715 -0.4215  0.3915  0.0154
  177MOL    C5832090   2.593   7.828   6.761  0.5201  0.0578  0.1846
  177MOL    O5932091   2.487   7.841   6.828  0.2254  0.9251 -0.0105
  177MOL    O6032092   2.641   7.710   6.713  0.0684 -0.1488  0.1313
  177MOL    H6132093   2.613   0.034   6.520  2.0944 -0.8543  0.4356
  177MOL    H6232094   2.577   0.200   6.559 -0.0351  0.2507  2.6984
  177MOL    H6332095   2.781   0.062   6.718 -1.1768 -1.8247  1.7396
  177MOL    H6432096   2.560   7.665   6.731 -0.4391  1.0467  0.8292
  177MOL    C6532097   2.669   0.216   6.802 -0.2829 -0.6764  0.1912
  177MOL    C6632098   2.739   0.204   6.938  0.5470  0.4862  0.0378
  177MOL    C6732099   2.638   0.200   7.055 -0.0232  0.2565  0.1964
  177MOL    O6832100   2.628   0.105   7.133 -0.7532  0.4581  0.0266
  177MOL    O6932101   2.560   0.310   7.059  0.3486  0.2413 -0.0610
  177MOL    H7032102   2.567   0.249   6.818 -0.5160 -0.8456 -0.8895
  177MOL    H7132103   2.716   0.303   6.756  2.3973  0.0256  4.0122
  177MOL    H7232104   2.795   0.111   6.947  1.8467  1.1451 -1.1938
  177MOL    H7332105   2.506   0.315   7.137 -1.5682  1.9830 -1.4271
  177MOL    C7432106   2.843   0.318   6.969  0.6712 -0.6608  0.0635
  177MOL    C7532107   2.939   0.305   7.092  0.2157 -0.7599 -0.0296
  177MOL    C7632108   3.017   0.177   7.087 -0.1123  1.0820  0.7815
  177MOL    O7732109   2.999   0.082   7.163 -0.2142 -0.0010 -0.4253
  177MOL    O7832110   3.107   0.179   6.986 -0.2370  0.1434  0.2326
  177MOL    H7932111   2.789   0.412   6.955  0.9526 -0.2872  1.4178
  177MOL    H8032112   2.915   0.324   6.888  1.6969  2.6223  1.1261
  177MOL    H8132113   3.021   0.371   7.064  1.3063 -2.3716 -0.7396
  177MOL    H8232114   3.149   0.095   6.976  1.3242  0.5367  2.9708
  177MOL    C8332115   2.897   0.350   7.238 -0.1921 -0.1327  0.1706
  177MOL    C8432116   2.887   0.503   7.272 -0.0089 -0.4652  0.1272
  177MOL    C8532117   3.003   0.589   7.235 -0.0654 -0.5563 -0.0534
  177MOL    O8632118   2.989   0.699   7.184 -0.1898 -0.5929  0.5713
  177MOL    O8732119   3.124   0.531   7.250  0.3783  0.1281  0.2337
  177MOL    H8832120   2.958   0.308   7.318  0.7642 -0.5220 -0.7382
  177MOL    H8932121   2.800   0.303   7.250 -0.7592  0.2403 -2.5920
  177MOL    H9032122   2.794   0.535   7.223  0.2230 -0.5541 -0.3773
  177MOL    H9132123   3.193   0.591   7.225 -0.1528  0.9739  0.7552
  177MOL    C9232124   2.845   0.513   7.420 -0.4037  0.6775 -0.1900
  177MOL    C9332125   2.803   0.650   7.474 -0.0423  0.1232 -0.0761
  177MOL    C9432126   2.897   0.685   7.589  0.5458  0.3908  0.6445
  177MOL    O9532127   2.947   0.601   7.660 -0.1528  0.6030  0.1067
  177MOL    O9632128   2.900   0.821   7.602 -0.0250 -0.0489  0.2354
  177MOL    H9732129   2.920   0.456   7.476 -0.6230 -1.3179 -1.8664
  177MOL    H9832130   2.754   0.454   7.430  1.2053 -2.0453 -0.8381
  177MOL    H9932131   2.828   0.720   7.393  0.4302  1.2815  1.0499
  177MOL   H10032132   2.955   0.852   7.673  1.5322 -0.1515 -0.9098
  177MOL   C10132133   2.654   0.655   7.512 -0.3044  0.1094 -0.5323
  177MOL   C10232134   2.550   0.641   7.400  0.3314 -0.5868 -0.1148
  177MOL   C10332135   2.564   0.742   7.284 -0.4500 -0.9357  1.1276
  177MOL   O10432136   2.628   0.849   7.290 -0.7259  0.4789 -0.0053
  177MOL   O10532137   2.499   0.694   7.171 -0.1365  0.9162  0.3684
  177MOL   H10632138   2.642   0.749   7.566  2.1027 -0.8285  1.7105
  177MOL   H10732139   2.629   0.590   7.596  2.0284 -1.2690 -0.8864
  177MOL   H10832140   2.579   0.554   7.342 -0.9989  0.3884 -2.3143
  177MOL   H10932141   2.528   0.739   7.093  1.7397 -0.3585  0.3012
  177MOL   C11032142   2.403   0.621   7.459  0.3871 -0.6484  0.0135
  177MOL   C11132143   2.382   0.475   7.508 -0.3384 -0.2607  0.1802
  177MOL   C11232144   2.384   0.368   7.394  0.0449  0.5303 -0.1353
  177MOL   O11332145   2.425   0.391   7.277  0.4531  0.1991 -0.1661
  177MOL   O11432146   2.314   0.254   7.428  0.3377 -0.0048 -0.0117
  177MOL   H11532147   2.337   0.653   7.379  1.3673  1.2884 -0.0366
  177MOL   H11632148   2.388   0.692   7.541  0.3750 -1.2820  0.5649
  177MOL   H11732149   2.465   0.447   7.572 -0.1109 -3.9862 -1.6566
  177MOL   H11832150   2.300   0.207   7.348 -2.7332 -1.6351  1.3860
  177MOL   C11932151   2.258   0.472   7.594 -0.5943  0.3186  1.0006
  177MOL   C12032152   2.286   0.501   7.746  0.7227 -0.4764 -0.0365
  177MOL   C12132153   2.283   0.373   7.835 -0.8681 -0.1142 -0.4947
  177MOL   O12232154   2.210   0.278   7.806  0.1705  0.2201  0.2470
  177MOL   O12332155   2.346   0.392   0.100  0.5155  0.0588 -0.0891
  177MOL   H12432156   2.205   0.377   7.598 -1.6493  0.8911  0.6566
  177MOL   H12532157   2.184   0.539   7.553  0.2989  1.0595  0.5813
  177MOL   H12632158   2.383   0.545   7.768  0.4308 -0.1668  0.6744
  177MOL   H12732159   2.324   0.316   0.153  2.0857 -2.9078 -3.4807
  177MOL   C12832160   2.180   0.595   7.805 -0.0472  0.4388 -0.3280
  177MOL   C12932161   2.247   0.680   0.064  0.1257 -0.1393  0.4710
  177MOL   C13032162   2.143   0.743   0.163 -0.2143  0.0603  0.1979
  177MOL   O13132163   2.057   0.821   0.131 -0.2733  0.0907  0.1763
  177MOL   O13232164   2.158   0.701   0.289 -0.5831 -0.3980 -0.5199
  177MOL   H13332165   2.101   0.529   7.840  1.7506 -1.0920  0.9192
  177MOL   H13432166   2.149   0.666   7.728  1.8045  0.8558 -0.7272
  177MOL   H13532167   2.307   0.617   0.129  1.4866  1.1263  0.4803
  177MOL   H13632168   2.091   0.727   0.350  1.0370  0.5948  0.8898
  177MOL   C13732169   2.337   0.793   0.008  0.0356 -0.1171 -0.1157
  177MOL   C13832170   2.417   0.868   0.115 -0.3139  0.3801 -0.6634
  177MOL   C13932171   2.336   0.992   0.178  0.1550  0.4619 -0.0228
  177MOL   O14032172   2.321   1.101   0.123 -0.1485 -0.2776  0.3942
  177MOL   O14132173   2.302   0.974   0.308  0.2909 -0.1507  0.4053
  177MOL   H14232174   2.275   0.860   7.803 -3.4903 -2.6195  0.5888
  177MOL   H14332175   2.401   0.748   7.785 -0.3014 -1.0377  0.1371
  177MOL   H14432176   2.436   0.809   0.205 -1.6142  2.7352  1.2604
  177MOL   H14532177   2.282   1.056   0.350 -1.7461  0.3268 -1.4297
  177MOL   C14632178   2.558   0.906   0.075  0.8490 -0.2885  0.0247
  177MOL   C14732179   2.667   0.900   0.191 -0.1653 -0.3198  0.3060
  177MOL   C14832180   2.761   1.020   0.179  0.2657  0.5691 -1.0228
  177MOL   O14932181   2.784   1.085   0.081 -1.1523  0.4900 -0.0183
  177MOL   O15032182   2.822   1.045   0.298 -0.3732  0.5353 -0.1865
  177MOL   H15132183   2.548   1.010   0.045  0.1717 -0.5655 -0.7459
  177MOL   H15232184   2.598   0.852   7.841  0.7811  0.2112 -0.3197
  177MOL   H15332185   2.620   0.917   0.288 -1.5146 -0.9217 -0.2200
  177MOL   H15432186   2.797   0.992   0.371 -0.0679  1.2709  0.4607
  177MOL   C15532187   2.754   0.769   0.186  0.6351  0.0292 -0.2345
  177MOL   C15632188   2.671   0.638   0.189 -0.3383  0.2238 -0.3932
  177MOL   C15732189   2.595   0.605   0.313  0.1322  0.7689 -1.0875
  177MOL   O15832190   2.473   0.597   0.317 -0.2646  0.0650  0.6586
  177MOL   O15932191   2.673   0.580   0.419  0.3942  0.4915  0.1670
  177MOL   H16032192   2.827   0.765   0.267  1.4754  2.3625 -0.8237
  177MOL   H16132193   2.804   0.769   0.089 -0.2508  0.9039 -0.7027
  177MOL   H16232194   2.603   0.638   0.104 -1.1148  0.9601  0.2302
  177MOL   H16332195   2.613   0.556   0.489  1.0534  2.0365  1.2733
  177MOL   C16432196   2.761   0.518   0.148 -0.4365  0.0237  0.5635
  177MOL   C16532197   2.683   0.376   0.126  0.0009  0.2265 -0.8723
  177MOL   C16632198   2.672   0.305   0.261 -0.4426  0.1404 -0.0073
  177MOL   O16732199   2.766   0.262   0.329  0.0752  0.3220  0.0962
  177MOL   O16832200   2.537   0.289   0.294 -0.4302  0.4102  0.6534
  177MOL   H16932201   2.843   0.499   0.217 -0.2319 -1.5859 -0.1003
  177MOL   H17032202   2.815   0.549   0.058  0.3366 -1.8720  0.3567
  177MOL   H17132203   2.583   0.383   0.084 -1.4949 -0.2594  2.4797
  177MOL   H17232204   2.528   0.239   0.373 -0.0034  1.0540  1.1086
  177MOL   C17332205   2.767   0.290   0.024 -0.2069  0.3205  0.0696
  177MOL   C17432206   2.698   0.273   7.735 -0.1613 -0.0132 -0.2290
  177MOL   C17532207   2.581   0.178   7.743 -0.1463  0.7891 -0.1006
  177MOL   O17632208   2.535   0.134   7.849  0.1516 -0.2121  0.2429
  177MOL   O17732209   2.522   0.159   7.623  0.5142 -0.0428 -0.2085
  177MOL   H17832210   2.785   0.192   0.069 -4.8111 -0.7299 -0.0826
  177MOL   H17932211   2.861   0.338   7.850 -1.0522  1.3316 -1.0833
  177MOL   H18032212   2.677   0.372   7.694  0.0307 -0.3504 -1.1562
  177MOL   H18132213   2.458   0.090   7.631  0.1906 -0.0172 -2.3782
  177MOL   H18232214   2.771   0.227   7.669  0.6216  0.9007 -0.0211
  178MOL     C132215   4.698   3.359   6.764 -0.0536  0.1420  0.4807
  178MOL     C232216   4.720   3.510   6.788 -0.1446  0.3337  0.4420
  178MOL     C332217   4.870   3.530   6.829 -0.1773 -0.3023  0.0684
  178MOL     O432218   4.911   3.513   6.943 -0.5267  1.1881 -0.1265
  178MOL     O532219   4.954   3.550   6.719  0.4222 -0.2357 -0.0373
  178MOL     H632220   4.603   3.327   6.720  0.7844  1.4947 -2.4433
  178MOL     H732221   4.774   3.328   6.692 -0.1869 -2.9364  1.6035
  178MOL     H832222   4.710   3.550   6.687 -1.0752  2.2874  1.2840
  178MOL     H932223   4.908   3.573   6.640 -0.8864 -0.4784  0.6284
  178MOL    H1032224   4.708   3.309   6.860 -1.5096  0.2006  0.6779
  178MOL    C1132225   4.613   3.576   6.890  0.3291  0.0475 -0.0405
  178MOL    C1232226   4.637   3.726   6.905  0.5382 -0.0438 -0.3372
  178MOL    C1332227   4.575   3.781   7.037  0.2376  0.0178 -0.5225
  178MOL    O1432228   4.473   3.734   7.096  0.0461 -0.1383  0.1155
  178MOL    O1532229   4.613   3.911   7.064 -0.5955  0.2000  0.8490
  178MOL    H1632230   4.626   3.535   6.990  0.4143  1.5805  0.5864
  178MOL    H1732231   4.514   3.553   6.852  1.5983 -2.5908 -1.9536
  178MOL    H1832232   4.746   3.729   6.915  0.4386 -0.4852  0.9294
  178MOL    H1932233   4.561   3.960   7.126 -0.8036  1.4830 -0.3062
  178MOL    C2032234   4.602   3.827   6.788 -0.0328  0.4854  0.3166
  178MOL    C2132235   4.447   3.838   6.750 -0.4322  0.1462  0.7708
  178MOL    C2232236   4.389   3.715   6.673  0.6608  0.0327 -0.5476
  178MOL    O2332237   4.281   3.660   6.702 -0.0708  0.3678 -0.4331
  178MOL    O2432238   4.461   3.694   6.556 -0.0871  0.5107  0.1431
  178MOL    H2532239   4.672   3.818   6.705  0.0225  1.4386  0.2527
  178MOL    H2632240   4.635   3.925   6.824  2.1759  0.1323 -0.6231
  178MOL    H2732241   4.396   3.841   6.847 -1.0548 -0.7026  0.4784
  178MOL    H2832242   4.407   3.637   6.503  0.3314 -0.4445  0.7405
  178MOL    C2932243   4.418   3.964   6.671  0.6938 -0.7605 -0.0147
  178MOL    C3032244   4.423   4.108   6.740  0.0787 -0.0697  0.5139
  178MOL    C3132245   4.284   4.129   6.806 -0.2288  0.0365 -0.6337
  178MOL    O3232246   4.198   4.204   6.763 -0.0102 -0.2816  0.2450
  178MOL    O3332247   4.270   4.053   6.923 -0.2260 -0.5353 -0.3598
  178MOL    H3432248   4.322   3.936   6.627  0.2165 -1.2150  1.2800
  178MOL    H3532249   4.489   3.968   6.589 -0.7259  4.8371 -1.2110
  178MOL    H3632250   4.501   4.087   6.813  0.3186  1.1472  0.6285
  178MOL    H3732251   4.179   4.063   6.948  0.3928 -0.1572  1.8289
  178MOL    C3832252   4.456   4.229   6.644  0.2892  0.0204  0.4820
  178MOL    C3932253   4.530   4.347   6.691  0.1128 -0.2058  0.0746
  178MOL    C4032254   4.459   4.409   6.807  0.5320 -0.4852 -0.2931
  178MOL    O4132255   4.491   4.387   6.928 -0.6862 -0.3167 -0.4090
  178MOL    O4232256   4.344   4.476   6.773  0.3141  0.1742 -0.3312
  178MOL    H4332257   4.365   4.258   6.592 -0.9573 -2.9655  0.9005
  178MOL    H4432258   4.509   4.185   6.559 -1.9060 -0.7458 -0.5234
  178MOL    H4532259   4.627   4.307   6.721  0.3789  0.0960 -0.3635
  178MOL    H4632260   4.290   4.493   6.849 -0.7806 -1.7716 -0.6549
  178MOL    C4732261   4.552   4.437   6.569  0.2093  0.2268  0.8073
  178MOL    C4832262   4.689   4.517   6.560  0.6371  0.1739 -0.1763
  178MOL    C4932263   4.802   4.438   6.481 -0.3298  0.3348  0.1714
  178MOL    O5032264   4.788   4.321   6.447  0.4421  0.8390  0.2050
  178MOL    O5132265   4.914   4.507   6.450 -0.5374  0.1354  0.3510
  178MOL    H5232266   4.474   4.511   6.549  0.8404  0.3263 -1.4904
  178MOL    H5332267   4.553   4.378   6.477 -0.6024 -2.5685  2.5408
  178MOL    H5432268   4.674   4.606   6.498  0.7553 -1.1720 -2.1640
  178MOL    H5532269   4.986   4.451   6.426 -0.5896  0.0206  0.4680
  178MOL    C5632270   4.745   4.584   6.692 -0.0881 -0.0920  0.3927
  178MOL    C5732271   4.691   4.725   6.720 -0.3219  0.4648  0.1899
  178MOL    C5832272   4.806   4.813   6.774 -0.3100 -0.3222  0.8999
  178MOL    O5932273   4.808   4.868   6.888 -0.4002  0.3817  0.3098
  178MOL    O6032274   4.909   4.823   6.685 -0.1370 -0.4250  0.0572
  178MOL    H6132275   4.853   4.568   6.691 -0.0536  0.0438 -3.6611
  178MOL    H6232276   4.718   4.520   6.776  1.3211 -2.5254 -0.9809
  178MOL    H6332277   4.657   4.769   6.626 -0.4166 -0.8683 -0.4066
  178MOL    H6432278   4.975   4.875   6.728 -0.3984  2.2623 -2.6281
  178MOL    C6532279   4.563   4.724   6.803 -0.2610 -0.0509 -0.1844
  178MOL    C6632280   4.502   4.863   6.824 -0.3900  0.0350 -0.0255
  178MOL    C6732281   4.406   4.848   6.935  0.1119  0.7509  0.0867
  178MOL    O6832282   4.360   4.736   6.976  0.2186  0.0989 -0.0469
  178MOL    O6932283   4.395   4.975   6.992  0.0229  0.2249  0.3810
  178MOL    H7032284   4.586   4.672   6.896  0.9153  1.0234  0.1408
  178MOL    H7132285   4.494   4.661   6.747 -0.0645  0.9087 -1.5289
  178MOL    H7232286   4.576   4.935   6.861 -1.5955  0.5474  1.4384
  178MOL    H7332287   4.346   4.961   7.072 -0.2993 -1.1587 -0.0336
  178MOL    C7432288   4.438   4.948   6.710  0.0198  0.4353 -0.3176
  178MOL    C7532289   4.290   4.926   6.675 -0.3003 -0.1310  0.2748
  178MOL    C7632290   4.259   4.778   6.643  0.1138 -0.0341 -0.2640
  178MOL    O7732291   4.168   4.720   6.697 -0.4190 -0.2967 -0.0934
  178MOL    O7832292   4.323   4.721   6.541 -0.3120  0.2145  0.1585
  178MOL    H7932293   4.493   4.943   6.616 -1.3323  1.2855 -1.1963
  178MOL    H8032294   4.438   5.054   6.736 -0.4731  0.1011  1.1117
  178MOL    H8132295   4.230   4.954   6.762 -0.7500 -1.8559  0.5524
  178MOL    H8232296   4.289   4.633   6.537 -0.4467  0.2112  1.2912
  178MOL    C8332297   4.241   5.021   6.564  0.0589  0.0027 -0.5182
  178MOL    C8432298   4.082   5.030   6.561 -0.5733  0.4721  0.7041
  178MOL    C8532299   4.032   5.013   6.419 -0.2783 -0.2717  0.5743
  178MOL    O8632300   4.080   5.069   6.319  0.3116 -0.4064  0.0290
  178MOL    O8732301   3.929   4.924   6.414  0.2511  0.8699  0.3764
  178MOL    H8832302   4.289   4.990   6.471 -1.5105 -1.1431 -0.9677
  178MOL    H8932303   4.283   5.118   6.588  0.0078  0.2672 -1.5225
  178MOL    H9032304   4.041   4.946   6.617 -3.5605  1.8657  0.6756
  178MOL    H9132305   3.902   4.910   6.324  1.2151  1.3929 -0.0099
  178MOL    C9232306   4.018   5.158   6.624  0.9814 -0.2425 -0.3327
  178MOL    C9332307   3.934   5.125   6.750  0.3694  0.4087 -0.0015
  178MOL    C9432308   3.805   5.043   6.711 -0.0720 -0.0978  0.6058
  178MOL    O9532309   3.732   5.064   6.616 -0.3733  0.4806  0.3832
  178MOL    O9632310   3.787   4.942   6.799  0.1186 -0.4055  0.1783
  178MOL    H9732311   3.952   5.207   6.552 -0.3899 -1.6552 -0.0601
  178MOL    H9832312   4.088   5.240   6.640  0.5947 -0.1924  1.2146
  178MOL    H9932313   3.989   5.060   6.818 -2.7137 -2.8830 -0.4873
  178MOL   H10032314   3.703   4.898   6.802  0.5401 -1.1688  2.3201
  178MOL   C10132315   3.887   5.254   6.831  0.0037  0.8906  0.1549
  178MOL   C10232316   3.882   5.237   6.981 -0.1373 -0.5325 -0.5345
  178MOL   C10332317   3.753   5.180   7.037  0.3889  0.1708 -0.4945
  178MOL   O10432318   3.644   5.178   6.973  0.1941 -0.3343 -0.1046
  178MOL   O10532319   3.774   5.120   7.162  0.1315  0.3241  1.0400
  178MOL   H10632320   3.790   5.283   6.789 -0.9463  1.0373  2.3795
  178MOL   H10732321   3.955   5.335   6.806  2.4623 -1.0002  0.5448
  178MOL   H10832322   3.953   5.163   7.017  0.7664  0.0506 -1.0958
  178MOL   H10932323   3.696   5.088   7.203  0.3270  0.9165  1.8915
  178MOL   C11032324   3.913   5.373   7.058 -1.0349  0.5976 -1.0374
  178MOL   C11132325   4.064   5.416   7.050  0.2717  0.0409  0.2124
  178MOL   C11232326   4.152   5.336   7.149 -0.4880 -0.2162  1.1595
  178MOL   O11332327   4.113   5.271   7.245 -0.3397 -0.0671 -0.0840
  178MOL   O11432328   4.283   5.340   7.111 -0.1123 -0.2672  0.4483
  178MOL   H11532329   3.886   5.364   7.163 -1.3080 -1.6013 -1.2693
  178MOL   H11632330   3.857   5.454   7.011 -0.1000  2.3043  0.7270
  178MOL   H11732331   4.108   5.392   6.953 -2.5904 -1.2774 -0.8361
  178MOL   H11832332   4.343   5.285   7.160  3.0832  0.4052 -2.5100
  178MOL   C11932333   4.090   5.562   7.079  0.4148  0.6048 -0.1765
  178MOL   C12032334   4.051   5.658   6.967  0.1523 -0.7101 -0.3355
  178MOL   C12132335   4.153   5.655   6.851 -0.2228  0.9916 -0.2885
  178MOL   O12232336   4.270   5.682   6.870  0.5251  0.1068  0.2818
  178MOL   O12332337   4.095   5.626   6.731 -0.0712 -0.7582  0.4913
  178MOL   H12432338   4.195   5.583   7.096  1.1360 -2.3731 -0.6659
  178MOL   H12532339   4.047   5.585   7.176  1.1447 -1.8405  0.7719
  178MOL   H12632340   3.954   5.640   6.920  0.6821  2.8173 -3.0233
  178MOL   H12732341   4.160   5.630   6.662  0.9150 -0.9267  1.3948
  178MOL   C12832342   4.031   5.804   7.016  0.2846 -0.5698 -0.5229
  178MOL   C12932343   3.925   5.841   7.123 -0.4414 -0.3791 -0.3900
  178MOL   C13032344   3.800   5.758   7.113  0.6252 -0.4791 -0.6407
  178MOL   O13132345   3.730   5.758   7.012  0.2840 -0.7621  0.1121
  178MOL   O13232346   3.785   5.674   7.225  0.3992 -0.5037 -0.3323
  178MOL   H13332347   4.006   5.864   6.928 -0.5369 -0.5332 -0.2675
  178MOL   H13432348   4.128   5.834   7.055 -0.2995 -0.0244  0.5228
  178MOL   H13532349   3.971   5.812   7.217 -0.9485  0.7581  0.2294
  178MOL   H13632350   3.703   5.627   7.218  0.4281 -0.6270  0.1457
  178MOL   C13732351   3.892   5.995   7.115 -1.0183 -0.0850 -1.1031
  178MOL   C13832352   3.981   6.086   7.208 -0.1890 -0.9468  0.0145
  178MOL   C13932353   3.949   6.088   7.356  0.7881 -0.3005 -0.6130
  178MOL   O14032354   3.838   6.084   7.396 -0.6716  0.1788 -0.3217
  178MOL   O14132355   4.062   6.102   7.426  0.0992 -0.2057 -0.0472
  178MOL   H14232356   3.788   6.016   7.140 -0.3980  1.7461  0.0621
  178MOL   H14332357   3.893   6.033   7.013  2.1219  2.1093 -0.3514
  178MOL   H14432358   4.081   6.041   7.209  0.1752 -0.1483  2.3551
  178MOL   H14532359   4.029   6.119   7.512  2.4931 -2.2933  1.3790
  178MOL   C14632360   4.004   6.234   7.152 -0.8518  0.2645 -0.2894
  178MOL   C14732361   3.892   6.348   7.136 -0.0659  0.2387  0.0803
  178MOL   C14832362   3.780   6.308   7.037 -0.2720  0.5165 -0.3938
  178MOL   O14932363   3.694   6.223   7.066 -0.9574 -0.5775 -0.4752
  178MOL   O15032364   3.785   6.374   6.919  0.5082 -0.4192  0.1465
  178MOL   H15132365   4.045   6.232   7.051 -1.1748 -0.5812 -0.4045
  178MOL   H15232366   4.081   6.266   7.222 -3.2200  4.4964  0.5828
  178MOL   H15332367   3.843   6.344   7.233  0.9068 -0.8356  0.5546
  178MOL   H15432368   3.704   6.342   6.884 -0.2190  1.0197  0.4364
  178MOL   C15532369   3.946   6.483   7.103 -0.3522 -0.6189  0.2402
  178MOL   C15632370   4.036   6.576   7.203  0.3230  1.0110  0.4596
  178MOL   C15732371   3.961   6.582   7.336 -0.4125 -0.7623 -0.0352
  178MOL   O15832372   3.864   6.655   7.366 -0.6540 -0.2822 -0.0610
  178MOL   O15932373   4.006   6.484   7.420 -0.1645 -0.0790  0.0712
  178MOL   H16032374   3.861   6.551   7.089  1.0637  1.2709  0.6160
  178MOL   H16132375   3.982   6.489   7.000  0.2681  1.6823  0.5610
  178MOL   H16232376   4.124   6.514   7.216 -0.8944 -0.9363 -0.2359
  178MOL   H16332377   3.969   6.491   7.507  1.5627 -2.2155  1.0147
  178MOL   C16432378   4.079   6.708   7.137  0.4980 -0.0919  0.4422
  178MOL   C16532379   4.192   6.792   7.207  0.4040 -0.2013  0.6288
  178MOL   C16632380   4.335   6.731   7.199  0.3288  0.2768  0.0799
  178MOL   O16732381   4.421   6.726   7.287  0.0094 -0.0255  0.4497
  178MOL   O16832382   4.352   6.673   7.080  0.4644 -0.3754  0.1050
  178MOL   H16932383   3.999   6.782   7.129 -1.2529 -1.8617  1.0223
  178MOL   H17032384   4.108   6.684   7.035  0.7667 -0.3306  0.5753
  178MOL   H17132385   4.218   6.887   7.161  2.5226  0.2668  2.6536
  178MOL   H17232386   4.435   6.629   7.086  0.4628 -0.2956  0.7144
  178MOL   C17332387   4.158   6.843   7.353 -0.2175 -0.2596  0.3005
  178MOL   C17432388   4.033   6.942   7.381  0.5135  0.5716 -0.4129
  178MOL   C17532389   4.047   7.081   7.336  0.6260 -0.5900 -0.3732
  178MOL   O17632390   4.039   7.184   7.406 -0.1079 -0.0443 -0.2907
  178MOL   O17732391   4.063   7.093   7.198 -0.7779  0.1326 -0.2060
  178MOL   H17832392   4.248   6.894   7.385 -0.4009  0.0271  0.3635
  178MOL   H17932393   4.146   6.755   7.417 -0.4409  0.8309  1.7918
  178MOL   H18032394   3.950   6.898   7.326  1.9392 -2.9583  0.1793
  178MOL   H18132395   4.058   7.013   7.148  1.1285 -1.3373  1.8173
  178MOL   H18232396   4.013   6.945   7.488  1.1897  0.3688 -0.2819
  179MOL     C132397   1.696   2.770   0.390  0.0620  0.2292  0.1725
  179MOL     C232398   1.830   2.791   0.319  0.0799 -0.4008  0.4888
  179MOL     C332399   1.935   2.688   0.365 -0.0254  0.7596 -0.1952
  179MOL     O432400   1.992   2.602   0.296 -0.2224  0.6751  0.0508
  179MOL     O532401   1.953   2.697   0.493  0.3475  0.2001 -0.3430
  179MOL     H632402   1.619   2.835   0.349  1.0995  1.5959  0.3478
  179MOL     H732403   1.661   2.668   0.373  0.9330 -0.1679  0.7179
  179MOL     H832404   1.816   2.770   0.213 -0.6457  0.0959  0.4863
  179MOL     H932405   2.037   2.655   0.496 -0.3894 -1.3813 -1.1285
  179MOL    H1032406   1.707   2.777   0.498  0.9365 -0.2417  0.1235
  179MOL    C1132407   1.881   2.940   0.331 -0.2354 -0.0718  0.1902
  179MOL    C1232408   2.006   2.980   0.248  0.8664  0.8319 -0.4816
  179MOL    C1332409   2.069   3.097   0.312 -0.1848  0.3566  0.2837
  179MOL    O1432410   2.177   3.093   0.370 -0.0417  0.3360  0.3698
  179MOL    O1532411   1.990   3.205   0.297 -0.0485  0.5974  0.5058
  179MOL    H1632412   1.913   2.955   0.435  3.6087 -0.5250 -0.8340
  179MOL    H1732413   1.799   3.006   0.306  0.8820  0.8900 -1.0112
  179MOL    H1832414   2.078   2.901   0.270 -0.9919 -0.4931  1.0693
  179MOL    H1932415   2.023   3.282   0.341  0.4552  0.8644 -0.3318
  179MOL    C2032416   1.978   2.978   0.093 -0.2746 -0.0845 -0.2670
  179MOL    C2132417   2.104   3.004   7.852 -0.8037 -0.5502 -0.3845
  179MOL    C2232418   2.212   2.902   0.032  0.0394 -0.1730  0.4278
  179MOL    O2332419   2.310   2.941   0.087  0.1382 -0.1747 -0.0945
  179MOL    O2432420   2.181   2.771   7.847  0.0720  0.0196  0.1635
  179MOL    H2532421   1.915   3.062   0.066 -0.6485 -0.3353 -0.1805
  179MOL    H2632422   1.931   2.883   0.068 -2.0380  0.6110  0.3968
  179MOL    H2732423   2.085   2.974   7.749 -2.8405  0.2915 -0.2825
  179MOL    H2832424   2.250   2.715   0.028  1.4167  2.2285  1.1994
  179MOL    C2932425   2.156   3.154   7.843  0.6866 -0.1351 -0.9978
  179MOL    C3032426   2.066   3.249   7.766  0.0138 -0.2903  0.5404
  179MOL    C3132427   2.034   3.218   7.618 -0.1879  0.5419 -0.4687
  179MOL    O3232428   1.925   3.191   7.577  0.3083  0.2182  0.1608
  179MOL    O3332429   2.149   3.220   7.541  0.2977  0.0913 -0.3018
  179MOL    H3432430   2.250   3.159   7.788  1.2453  2.4243  0.1311
  179MOL    H3532431   2.181   3.203   0.084 -1.6220 -0.1575 -0.3350
  179MOL    H3632432   1.967   3.238   7.810  0.5159 -2.5844  1.1511
  179MOL    H3732433   2.133   3.213   7.448  1.8938 -0.6898 -0.5334
  179MOL    C3832434   2.102   3.397   7.786  0.2456  0.4856 -0.6082
  179MOL    C3932435   2.061   3.457   0.071 -0.4954  0.1025  0.2231
  179MOL    C4032436   1.909   3.484   0.087 -0.1149  0.0510 -0.3459
  179MOL    O4132437   1.852   3.577   0.026  0.1353  0.3975 -0.1609
  179MOL    O4232438   1.842   3.409   0.177 -0.4035 -0.3370  0.1172
  179MOL    H4332439   2.058   3.464   7.712 -0.4634  1.2141  0.4547
  179MOL    H4432440   2.211   3.407   7.792  0.2164  0.6601 -0.3406
  179MOL    H4532441   2.073   3.381   0.148 -1.5114 -0.2282  0.0718
  179MOL    H4632442   1.750   3.431   0.185  0.1493  1.8515  0.8997
  179MOL    C4732443   2.140   3.577   0.125  0.6634  0.1107 -0.1863
  179MOL    C4832444   2.285   3.550   0.173  0.1913  0.3158  0.8629
  179MOL    C4932445   2.289   3.436   0.271  0.4924 -0.0910  0.0142
  179MOL    O5032446   2.207   3.427   0.358 -0.8394  0.5774  0.4366
  179MOL    O5132447   2.399   3.355   0.255 -0.7452  0.2183 -0.1273
  179MOL    H5232448   2.085   3.634   0.200 -3.1282 -2.5160 -0.8128
  179MOL    H5332449   2.143   3.648   0.042 -2.8792 -1.0091 -1.3776
  179MOL    H5432450   2.349   3.531   0.087 -2.3143  3.1066 -1.7430
  179MOL    H5532451   2.415   3.287   0.319  0.9875  1.3802  0.6706
  179MOL    C5632452   2.342   3.672   0.243 -0.5350 -0.9897 -0.3614
  179MOL    C5732453   2.402   3.773   0.152  0.0923  0.1510  0.0002
  179MOL    C5832454   2.552   3.751   0.134  0.5532  0.4692  0.5172
  179MOL    O5932455   2.589   3.681   0.040  0.1171 -0.1731 -0.1692
  179MOL    O6032456   2.637   3.809   0.221  0.3206  0.0402  0.3836
  179MOL    H6132457   2.422   3.644   0.311 -2.7441 -2.9115  1.5543
  179MOL    H6232458   2.269   3.717   0.310  1.6848  1.3648  0.5648
  179MOL    H6332459   2.359   3.770   0.052 -0.4747 -0.7560  0.2700
  179MOL    H6432460   2.725   3.794   0.190  0.4650 -0.6645  1.1362
  179MOL    C6532461   2.370   3.926   0.203  0.1733  0.0533  0.4937
  179MOL    C6632462   2.276   4.013   0.112 -0.6329  0.7793 -0.6303
  179MOL    C6732463   2.360   4.056   7.839  0.2669 -0.1823 -0.5676
  179MOL    O6832464   2.354   3.986   7.736 -0.0237 -0.0773 -0.1260
  179MOL    O6932465   2.431   4.174   0.004 -0.2249 -0.2706 -0.2720
  179MOL    H7032466   2.455   3.987   0.234 -0.2125  0.9690 -0.2380
  179MOL    H7132467   2.327   3.918   0.303 -0.8050  2.2801  0.2830
  179MOL    H7232468   2.194   3.952   0.074 -0.5258 -0.8160  1.5648
  179MOL    H7332469   2.467   4.198   7.773  0.8412  1.0248  0.5424
  179MOL    C7432470   2.232   4.142   0.192 -0.2364  0.3225  0.5846
  179MOL    C7532471   2.121   4.126   0.298 -0.3859 -0.2772  0.1945
  179MOL    C7632472   1.979   4.124   0.230 -0.5989  0.2514 -0.4904
  179MOL    O7732473   1.961   4.142   0.108  0.8873  0.6472 -0.1866
  179MOL    O7832474   1.889   4.078   0.319 -0.1425 -0.0406  0.0682
  179MOL    H7932475   2.186   4.217   0.128 -0.5054  0.2096  0.6430
  179MOL    H8032476   2.319   4.185   0.242  0.6990 -0.8282 -0.0255
  179MOL    H8132477   2.121   4.028   0.346 -0.8646 -1.2313 -1.7203
  179MOL    H8232478   1.814   4.068   0.263 -0.2561 -2.4646  0.5870
  179MOL    C8332479   2.126   4.250   0.391 -0.5273  0.0408 -0.3629
  179MOL    C8432480   2.141   4.210   0.539  0.2500 -0.8774  0.0124
  179MOL    C8532481   2.126   4.328   0.638  0.1729  0.2771  0.9017
  179MOL    O8632482   2.134   4.316   0.760 -0.3901  0.5256  0.3413
  179MOL    O8732483   2.091   4.450   0.579  0.1549  0.1328  0.5162
  179MOL    H8832484   2.030   4.302   0.387 -1.1014 -1.0112 -0.3538
  179MOL    H8932485   2.189   4.332   0.356  0.7627 -1.0007 -0.5415
  179MOL    H9032486   2.056   4.145   0.559 -0.2294 -0.1660  0.3386
  179MOL    H9132487   2.079   4.529   0.629 -0.2693 -0.8102  1.9682
  179MOL    C9232488   2.276   4.129   0.567 -0.0171  0.3655 -0.4400
  179MOL    C9332489   2.409   4.190   0.530 -0.4492  0.3518  0.2979
  179MOL    C9432490   2.514   4.082   0.497  0.0843 -0.1939  0.0270
  179MOL    O9532491   2.526   3.978   0.564 -0.3253  0.1353  0.0091
  179MOL    O9632492   2.594   4.122   0.386 -0.8791 -0.0899  0.0515
  179MOL    H9732493   2.260   4.027   0.531  1.6505  0.0812 -0.4181
  179MOL    H9832494   2.275   4.119   0.676 -2.7678 -0.1433 -0.4929
  179MOL    H9932495   2.394   4.227   0.428  1.9119 -0.1550 -0.2776
  179MOL   H10032496   2.655   4.059   0.352 -0.0542  0.0274  1.3088
  179MOL   C10132497   2.461   4.303   0.624 -0.2559  0.0139 -0.2164
  179MOL   C10232498   2.577   4.393   0.553  0.2907 -0.0200 -1.0395
  179MOL   C10332499   2.697   4.423   0.645  0.1660  0.0099 -0.1490
  179MOL   O10432500   2.812   4.382   0.618 -0.4791  0.3466 -0.3389
  179MOL   O10532501   2.669   4.503   0.748  0.1861  0.1115  0.0126
  179MOL   H10632502   2.505   4.264   0.715 -2.4036  1.2047  1.3736
  179MOL   H10732503   2.384   4.369   0.662  0.6538  1.5401 -0.9741
  179MOL   H10832504   2.621   4.334   0.473  0.0148 -0.6029 -0.7653
  179MOL   H10932505   2.748   4.532   0.791  1.6192 -1.6525 -1.3612
  179MOL   C11032506   2.519   4.533   0.506 -0.4801  0.2433 -0.4165
  179MOL   C11132507   2.398   4.533   0.416  0.0169  0.0029  0.1865
  179MOL   C11232508   2.434   4.497   0.272  0.1392 -0.0678 -0.2344
  179MOL   O11332509   2.414   4.569   0.174 -0.0469 -0.0018 -0.0935
  179MOL   O11432510   2.501   4.381   0.264 -0.1378  1.1233 -0.4061
  179MOL   H11532511   2.597   4.590   0.456  0.3748 -0.3662  0.2156
  179MOL   H11632512   2.492   4.594   0.593 -0.7008 -1.5743  0.8242
  179MOL   H11732513   2.334   4.451   0.445  1.5539 -1.2631  0.0622
  179MOL   H11832514   2.531   4.363   0.176  1.5136  0.5193  0.2566
  179MOL   C11932515   2.302   4.657   0.415  0.7087 -0.6629 -0.4689
  179MOL   C12032516   2.348   4.796   0.369 -0.3823 -0.6261  0.2238
  179MOL   C12132517   2.396   4.876   0.493  0.5858  0.0858  0.5125
  179MOL   O12232518   2.316   4.915   0.576 -0.2723  0.1372 -0.2688
  179MOL   O12332519   2.527   4.897   0.503 -0.0555 -0.1241 -0.2635
  179MOL   H12432520   2.259   4.662   0.514  0.5058  1.6692 -0.6650
  179MOL   H12532521   2.214   4.627   0.359  0.0645 -0.3958  0.3981
  179MOL   H12632522   2.428   4.777   0.298 -0.1419  1.0345  0.0273
  179MOL   H12732523   2.553   4.960   0.570  0.3664  1.0709 -1.5263
  179MOL   C12832524   2.229   4.872   0.300 -0.1304  0.5127 -0.6999
  179MOL   C12932525   2.268   4.999   0.213  0.4454 -1.1141  0.0723
  179MOL   C13032526   2.241   5.130   0.293 -0.1426 -0.3105  0.0859
  179MOL   O13132527   2.328   5.215   0.313  0.2966  0.1298  0.3907
  179MOL   O13232528   2.109   5.144   0.317 -0.0846 -0.3545 -0.4256
  179MOL   H13332529   2.154   4.894   0.376 -0.3365  1.2704 -1.1177
  179MOL   H13432530   2.192   4.791   0.237 -1.1592 -1.7715  2.6991
  179MOL   H13532531   2.375   4.990   0.195  0.3290 -0.0345 -1.2435
  179MOL   H13632532   2.093   5.231   0.348  1.5086  0.9355 -3.0004
  179MOL   C13732533   2.199   5.002   0.076  0.0546  0.1690 -0.2454
  179MOL   C13832534   2.268   5.089   7.823  0.4471 -0.0717  0.3804
  179MOL   C13932535   2.169   5.121   7.707 -0.1550 -0.9610  0.1712
  179MOL   O14032536   2.121   5.232   7.683  0.2054  0.5318 -0.1864
  179MOL   O14132537   2.145   5.009   7.635  0.1030 -0.4048 -0.4879
  179MOL   H14232538   2.091   5.011   0.087 -0.2864 -1.9049 -1.7260
  179MOL   H14332539   2.205   4.903   0.031  1.0534 -0.3634  1.0391
  179MOL   H14432540   2.296   5.182   0.021 -0.3156  0.2620  0.1951
  179MOL   H14532541   2.097   5.041   7.560 -1.5653 -3.3801 -0.7566
  179MOL   C14632542   2.395   5.020   7.760 -0.6136 -0.1688  0.6702
  179MOL   C14732543   2.511   5.111   7.721 -0.1981  0.1655  0.3090
  179MOL   C14832544   2.587   5.180   7.840  0.1973  0.7198 -0.0779
  179MOL   O14932545   2.605   5.300   0.003 -0.5672 -0.2531  0.0070
  179MOL   O15032546   2.619   5.087   0.080  0.2188 -0.3981  0.1834
  179MOL   H15132547   2.367   4.953   7.679  1.3367  2.5537 -2.3619
  179MOL   H15232548   2.420   4.942   7.832 -1.3206  1.2050  2.4635
  179MOL   H15332549   2.584   5.043   7.678 -1.1137  1.8888 -4.2014
  179MOL   H15432550   2.653   5.139   0.151  1.2138 -0.1743 -0.4446
  179MOL   C15532551   2.472   5.210   7.607 -0.0757 -0.7645 -0.0952
  179MOL   C15632552   2.572   5.233   7.485 -0.2334 -0.0482  0.3910
  179MOL   C15732553   2.571   5.103   7.399 -0.7162  0.6121 -0.0617
  179MOL   O15832554   2.481   5.084   7.319  0.1650  0.6870  0.0704
  179MOL   O15932555   2.660   5.013   7.449  0.3787  0.7599 -0.0488
  179MOL   H16032556   2.444   5.309   7.643 -0.8214 -1.3533  0.9441
  179MOL   H16132557   2.379   5.174   7.565 -0.5849 -1.0708  1.2684
  179MOL   H16232558   2.529   5.311   7.422  0.7673 -0.9579 -1.4651
  179MOL   H16332559   2.657   4.934   7.398 -1.8696  0.7903  0.0129
  179MOL   C16432560   2.717   5.286   7.525 -0.3588 -0.1848 -0.0975
  179MOL   C16532561   2.783   5.376   7.425  0.5920  0.0492  0.8772
  179MOL   C16632562   2.820   5.312   7.295  0.1818 -0.1598  0.0514
  179MOL   O16732563   2.910   5.223   7.291 -0.0567 -0.3317  0.3223
  179MOL   O16832564   2.752   5.352   7.187  0.3492  0.6147  0.2562
  179MOL   H16932565   2.772   5.203   7.568  0.9509  1.2914  1.1412
  179MOL   H17032566   2.692   5.350   7.610  2.1934 -1.0819  1.3923
  179MOL   H17132567   2.719   5.453   7.382 -0.0091 -1.3279 -0.7595
  179MOL   H17232568   2.779   5.301   7.112  0.3667  0.7139  0.1948
  179MOL   C17332569   2.900   5.463   7.481 -1.0678 -0.5104  0.4269
  179MOL   C17432570   2.854   5.583   7.569  0.0576  0.2970 -0.2408
  179MOL   C17532571   2.963   5.650   7.651  0.7265  0.2015 -0.7553
  179MOL   O17632572   2.954   5.762   7.699  0.4032  0.0046  0.3724
  179MOL   O17732573   3.075   5.577   7.656 -0.0208  0.0515  0.2481
  179MOL   H17832574   2.953   5.511   7.399 -1.8529  0.0093  0.2187
  179MOL   H17932575   2.971   5.410   7.545 -1.0204 -0.9797 -0.0052
  179MOL   H18032576   2.794   5.658   7.518  0.0981 -0.3617 -1.2787
  179MOL   H18132577   3.149   5.615   7.701  0.5851 -1.1518  0.2938
  179MOL   H18232578   2.774   5.550   7.636 -0.5655  1.4396 -0.4063
  180MOL     C132579   2.986   5.493   5.294  0.0652 -0.1372  0.0969
  180MOL     C232580   3.117   5.449   5.231 -0.1657 -0.5279 -0.3845
  180MOL     C332581   3.149   5.533   5.107 -0.0811 -0.2246 -0.3105
  180MOL     O432582   3.220   5.631   5.113  0.1756  0.0569  0.1494
  180MOL     O532583   3.079   5.497   5.000 -0.2285 -0.5831  0.6355
  180MOL     H632584   2.900   5.463   5.233 -1.5172  0.4670  1.9905
  180MOL     H732585   2.989   5.454   5.396  0.2875  1.9745  0.9214
  180MOL     H832586   3.196   5.469   5.303 -0.3731  1.0820 -0.5872
  180MOL     H932587   3.108   5.548   4.926 -0.2565 -0.0593  0.9804
  180MOL    H1032588   2.983   5.600   5.309  1.5141 -0.3650  2.1673
  180MOL    C1132589   3.114   5.298   5.193  0.3951  0.1727  0.1382
  180MOL    C1232590   3.246   5.231   5.174 -0.8424  0.1078  0.3468
  180MOL    C1332591   3.248   5.148   5.045 -0.7934  0.0809 -0.7833
  180MOL    O1432592   3.282   5.032   5.039 -0.9134  0.7689 -0.2402
  180MOL    O1532593   3.233   5.223   4.932  0.1501 -0.4322  0.1471
  180MOL    H1632594   3.051   5.276   5.107  0.6672 -2.3458  0.5430
  180MOL    H1732595   3.066   5.240   5.272  0.4637 -0.4866 -0.3025
  180MOL    H1832596   3.327   5.297   5.141  0.5846 -2.0539 -0.6347
  180MOL    H1932597   3.245   5.156   4.867 -1.3088 -1.4702  0.9213
  180MOL    C2032598   3.307   5.165   5.297 -0.3583 -0.2481  1.4504
  180MOL    C2132599   3.407   5.253   5.371 -0.1773 -0.3606 -0.1225
  180MOL    C2232600   3.550   5.224   5.319  0.1761  0.0711  0.1691
  180MOL    O2332601   3.637   5.164   5.376  0.1226 -0.1276 -0.2289
  180MOL    O2432602   3.566   5.284   5.200 -0.3592  0.9612 -0.4564
  180MOL    H2532603   3.346   5.065   5.276 -1.6000 -0.5122  0.3202
  180MOL    H2632604   3.228   5.149   5.371 -3.2778 -0.6160 -1.6487
  180MOL    H2732605   3.400   5.359   5.350  0.3776 -0.0655  1.0908
  180MOL    H2832606   3.649   5.268   5.158  0.2976 -0.2191  1.1962
  180MOL    C2932607   3.393   5.254   5.526  0.8587 -0.2469 -0.2563
  180MOL    C3032608   3.293   5.342   5.583  0.0329  0.2060 -0.1797
  180MOL    C3132609   3.336   5.494   5.596 -0.3263 -0.3800 -0.5973
  180MOL    O3232610   3.447   5.541   5.568 -0.4267  0.3826 -0.2117
  180MOL    O3332611   3.231   5.567   5.632 -0.2247 -0.6862  0.3503
  180MOL    H3432612   3.482   5.275   5.585  1.2322  1.1004 -1.2868
  180MOL    H3532613   3.384   5.150   5.558 -0.0380  0.4014  1.6818
  180MOL    H3632614   3.212   5.353   5.511  0.6763 -0.5060 -1.0272
  180MOL    H3732615   3.253   5.659   5.635 -1.1158 -0.4941  1.6418
  180MOL    C3832616   3.224   5.293   5.713 -0.1934  0.7875  0.1885
  180MOL    C3932617   3.307   5.288   5.842 -0.5662 -0.6592 -0.3019
  180MOL    C4032618   3.389   5.157   5.865 -0.7270 -0.0615 -0.1787
  180MOL    O4132619   3.336   5.046   5.875  0.1975 -0.1144 -0.3010
  180MOL    O4232620   3.517   5.179   5.884 -0.2759  0.7643  0.6768
  180MOL    H4332621   3.182   5.193   5.706 -0.1241  0.7541  0.2558
  180MOL    H4432622   3.135   5.356   5.712  0.6539  2.0599  1.3320
  180MOL    H4532623   3.385   5.364   5.839  0.3880 -1.6002 -0.0968
  180MOL    H4632624   3.561   5.097   5.898  0.1597  0.3502 -2.6798
  180MOL    C4732625   3.218   5.304   5.972  0.8756 -0.2111  0.5042
  180MOL    C4832626   3.142   5.437   5.985 -0.2937  0.4713 -0.2867
  180MOL    C4932627   3.215   5.565   5.956 -0.7030  0.1438  0.1571
  180MOL    O5032628   3.174   5.658   5.889  0.4962  0.4271 -0.1769
  180MOL    O5132629   3.327   5.562   6.037  0.3422  0.0840  0.0671
  180MOL    H5232630   3.275   5.281   6.062  1.6463 -0.0810  0.0578
  180MOL    H5332631   3.144   5.225   5.975 -1.1610  1.7087  2.9968
  180MOL    H5432632   3.080   5.435   5.895 -0.6843 -2.3812 -0.0115
  180MOL    H5532633   3.365   5.648   6.028 -1.8113  1.2648  1.7646
  180MOL    C5632634   3.036   5.440   6.101 -0.3434 -0.3517 -0.0577
  180MOL    C5732635   3.089   5.426   6.241  0.0949 -0.0113 -0.0939
  180MOL    C5832636   2.991   5.335   6.319  0.3351  0.0046 -0.2335
  180MOL    O5932637   2.886   5.378   6.362  0.5227 -0.1977 -0.2318
  180MOL    O6032638   3.040   5.213   6.343 -0.3554  0.2047  0.0561
  180MOL    H6132639   2.958   5.368   6.079  2.2470 -2.6142 -2.2935
  180MOL    H6232640   2.991   5.538   6.084  0.4200  0.1962  0.9888
  180MOL    H6332641   3.183   5.370   6.236 -0.7706 -1.6293  1.0761
  180MOL    H6432642   3.112   5.206   6.283 -2.8008 -0.3549 -2.9530
  180MOL    C6532643   3.132   5.555   6.326 -0.0137  0.4360  1.0988
  180MOL    C6632644   3.037   5.671   6.317  0.0035  0.0948 -0.4425
  180MOL    C6732645   3.066   5.767   6.204  0.4948  0.0676  0.3988
  180MOL    O6832646   3.174   5.813   6.174 -0.5903  0.2658 -0.3406
  180MOL    O6932647   2.952   5.792   6.138  0.3830 -0.0603  0.3030
  180MOL    H7032648   3.229   5.588   6.289 -0.4654  0.9659  0.3952
  180MOL    H7132649   3.154   5.521   6.428  0.4411 -2.0047  0.2171
  180MOL    H7232650   2.945   5.620   6.286 -0.6840  0.5966  0.7399
  180MOL    H7332651   2.972   5.849   6.066  0.0107 -0.7756 -0.3821
  180MOL    C7432652   3.013   5.738   6.448 -0.4906 -0.6023  0.1836
  180MOL    C7532653   2.894   5.670   6.526 -0.2239  0.0616 -0.7870
  180MOL    C7632654   2.759   5.697   6.454 -0.1969  0.0046 -1.3983
  180MOL    O7732655   2.694   5.606   6.405 -0.4667 -0.2607  0.4579
  180MOL    O7832656   2.723   5.827   6.458 -0.3445 -0.2582  0.0164
  180MOL    H7932657   2.977   5.837   6.421 -0.9683  0.1058  3.2136
  180MOL    H8032658   3.106   5.747   6.504  0.1382  0.3799 -1.0035
  180MOL    H8132659   2.914   5.563   6.530  1.4537  0.3506 -1.1970
  180MOL    H8232660   2.647   5.845   6.406 -0.1627 -1.5597 -0.7482
  180MOL    C8332661   2.882   5.708   6.676  0.1451  0.4154  0.2687
  180MOL    C8432662   2.826   5.596   6.767 -0.6698  0.2517 -0.2876
  180MOL    C8532663   2.676   5.567   6.741  0.2819  0.1519 -0.6865
  180MOL    O8632664   2.588   5.647   6.762  0.1271 -0.1922 -0.3570
  180MOL    O8732665   2.655   5.442   6.683 -0.1186  0.0231  0.5654
  180MOL    H8832666   2.831   5.804   6.690 -0.7118  0.2114 -1.3828
  180MOL    H8932667   2.983   5.732   6.709  0.9649 -1.5352 -0.7606
  180MOL    H9032668   2.874   5.499   6.752 -0.7913 -0.1939  1.9590
  180MOL    H9132669   2.563   5.446   6.660 -0.1887 -2.5840  0.2506
  180MOL    C9232670   2.860   5.622   6.921  0.6190  0.0525  0.2985
  180MOL    C9332671   3.006   5.589   6.975  0.4570  0.2439  0.4471
  180MOL    C9432672   3.041   5.438   6.946 -0.2920  0.6863 -0.3942
  180MOL    O9532673   2.986   5.344   7.006  0.2703 -0.4460 -0.2402
  180MOL    O9632674   3.139   5.417   6.863  0.0272 -0.2373  0.7325
  180MOL    H9732675   2.793   5.565   6.985 -0.0974 -0.0723 -0.5500
  180MOL    H9832676   2.840   5.726   6.946  0.5626  0.4079 -1.1758
  180MOL    H9932677   3.090   5.627   6.916  0.5473  1.4795  1.3587
  180MOL   H10032678   3.166   5.328   6.851  2.0644  0.3424  0.8048
  180MOL   C10132679   3.030   5.624   7.123 -0.2213  0.4892 -0.2604
  180MOL   C10232680   3.111   5.752   7.156 -0.0388  0.3524  0.1107
  180MOL   C10332681   3.241   5.756   7.084 -0.5094  0.0770  1.0729
  180MOL   O10432682   3.297   5.654   7.048  0.4671 -0.5411  0.3775
  180MOL   O10532683   3.295   5.879   7.076  0.1141 -0.2295 -0.3580
  180MOL   H10632684   3.086   5.541   7.166  1.0548  0.6055 -1.6812
  180MOL   H10732685   2.938   5.625   7.182 -0.3781  0.4902 -0.5013
  180MOL   H10832686   3.054   5.841   7.129 -2.5247 -0.7971  1.4013
  180MOL   H10932687   3.380   5.873   7.034  0.2680 -0.0437 -0.0689
  180MOL   C11032688   3.128   5.756   7.312  0.7350  0.7223 -0.2083
  180MOL   C11132689   3.193   5.871   7.385  0.5226  0.0680  0.0724
  180MOL   C11232690   3.133   5.999   7.337  0.3327  0.2086 -0.0825
  180MOL   O11332691   3.189   6.094   7.287  0.0704  0.4908 -0.0448
  180MOL   O11432692   3.002   5.997   7.371 -0.3786  0.1801 -0.4944
  180MOL   H11532693   3.165   5.664   7.358  0.3318 -0.1878 -1.6395
  180MOL   H11632694   3.028   5.748   7.356  0.0015  2.7849 -1.4080
  180MOL   H11732695   3.159   5.859   7.488  2.8002 -1.5201  0.6676
  180MOL   H11832696   2.961   6.082   7.360 -1.6352 -0.4751 -1.0031
  180MOL   C11932697   3.346   5.857   7.396 -0.5565  0.0997  0.0593
  180MOL   C12032698   3.402   5.937   7.517  0.6407  0.1637  0.6587
  180MOL   C12132699   3.553   5.953   7.488  0.1734 -0.2154  0.5076
  180MOL   O12232700   3.633   5.889   7.558  0.3902 -0.4133 -0.3080
  180MOL   O12332701   3.585   6.045   7.388 -0.7350  0.3158 -0.1454
  180MOL   H12432702   3.394   5.888   7.304 -0.0186 -0.4892  0.1403
  180MOL   H12532703   3.368   5.751   7.403 -1.4885 -0.0752  0.5218
  180MOL   H12632704   3.356   6.035   7.504  0.9765  0.2435  0.0257
  180MOL   H12732705   3.678   6.058   7.377 -0.6652 -0.2704 -0.2322
  180MOL   C12832706   3.370   5.878   7.658 -0.5745  0.5485 -1.0964
  180MOL   C12932707   3.367   5.974   7.779  0.4515  0.1984  0.2179
  180MOL   C13032708   3.273   6.099   7.765  0.4510  0.3435  0.0848
  180MOL   O13132709   3.294   6.213   7.816 -0.9818  0.0333  0.6021
  180MOL   O13232710   3.160   6.069   7.697  0.7398  0.2311  0.2714
  180MOL   H13332711   3.432   5.789   7.673 -0.8725  0.3037 -1.3143
  180MOL   H13432712   3.273   5.829   7.661 -0.3736  0.2294  0.4382
  180MOL   H13532713   3.323   5.919   0.010  0.7357  0.1176  0.3164
  180MOL   H13632714   3.100   6.142   7.690 -1.7490 -1.8081 -0.1915
  180MOL   C13732715   3.503   6.012   7.839 -0.2250 -0.3350  0.0770
  180MOL   C13832716   3.597   5.898   0.036 -0.4390  0.0179 -0.8135
  180MOL   C13932717   3.533   5.815   0.145 -0.2324  0.7355  0.3809
  180MOL   O14032718   3.493   5.869   0.245  0.3102  0.6854  0.2038
  180MOL   O14132719   3.568   5.681   0.131 -0.2450 -0.6867 -0.2508
  180MOL   H14232720   3.483   6.079   0.069 -1.8478  0.5087 -0.9663
  180MOL   H14332721   3.552   6.080   7.768 -2.1079  1.8295  0.8167
  180MOL   H14432722   3.609   5.831   7.804 -0.9321  0.5400 -1.3024
  180MOL   H14532723   3.596   5.652   0.046  1.2666  1.0725 -0.3898
  180MOL   C14632724   3.739   5.942   0.092 -0.0052 -0.3557 -0.4265
  180MOL   C14732725   3.831   6.001   7.832 -0.1199  0.2079  0.0009
  180MOL   C14832726   3.896   5.894   7.742  0.0183 -0.3587  0.0255
  180MOL   O14932727   3.887   5.772   7.768 -0.5233 -0.8952  0.0819
  180MOL   O15032728   3.961   5.947   7.637 -0.1122 -0.3610 -0.4918
  180MOL   H15132729   3.793   5.858   0.133 -1.0364 -1.0742 -0.5145
  180MOL   H15232730   3.727   6.017   0.170 -0.9125 -1.9029  0.9429
  180MOL   H15332731   3.761   6.062   7.775  1.8405  2.3898 -0.1356
  180MOL   H15432732   3.979   5.869   7.588  1.9586 -0.6683  0.7366
  180MOL   C15532733   3.940   6.104   0.029  0.5665  0.3495  0.0943
  180MOL   C15632734   3.908   6.259   0.013 -0.0524 -0.4811 -0.1906
  180MOL   C15732735   3.884   6.301   7.725 -0.8575  0.1182 -0.2733
  180MOL   O15832736   3.961   6.280   7.635 -0.1782 -0.7286  0.0568
  180MOL   O15932737   3.760   6.341   7.701  0.0042 -0.0226 -0.1347
  180MOL   H16032738   4.043   6.077   0.002  0.2400  0.8624 -1.6945
  180MOL   H16132739   3.964   6.078   0.133  2.2766 -1.2950 -0.6594
  180MOL   H16232740   3.813   6.287   0.058  0.6844  3.4687 -0.8970
  180MOL   H16332741   3.745   6.362   7.611  1.1627  0.2060 -0.2871
  180MOL   C16432742   4.025   6.340   0.063 -0.0832  0.1783  0.3759
  180MOL   C16532743   4.026   6.351   0.218 -0.2453  0.2772  0.3854
  180MOL   C16632744   3.958   6.475   0.273 -0.2719  0.1515 -0.2376
  180MOL   O16732745   4.010   6.581   0.312  0.2659 -0.1851  0.9402
  180MOL   O16832746   3.828   6.459   0.254 -0.4696 -0.2637  0.0084
  180MOL   H16932747   4.022   6.439   0.017  1.1456 -0.4328 -1.0594
  180MOL   H17032748   4.117   6.288   0.037  0.6214  1.6912 -0.2388
  180MOL   H17132749   3.973   6.264   0.257 -1.8382  1.2483  0.4411
  180MOL   H17232750   3.792   6.542   0.281 -0.7111 -0.8298  1.5047
  180MOL   C17332751   4.173   6.345   0.269 -0.4776  0.4781 -0.2369
  180MOL   C17432752   4.182   6.323   0.425 -0.5373 -0.1982  0.7269
  180MOL   C17532753   4.326   6.312   0.470  0.4483  0.1220  0.1062
  180MOL   O17632754   4.416   6.258   0.405  0.4208 -0.4224 -0.5331
  180MOL   O17732755   4.338   6.379   0.591 -0.4872  0.2222 -0.2265
  180MOL   H17832756   4.224   6.426   0.218 -0.8587 -0.3175 -1.8949
  180MOL   H17932757   4.210   6.254   0.222  0.9757  1.2053 -0.5018
  180MOL   H18032758   4.135   6.399   0.487  1.7898  1.7159  0.1899
  180MOL   H18132759   4.425   6.366   0.626 -0.7748 -1.0089  0.0632
  180MOL   H18232760   4.132   6.227   0.441 -3.1438  0.8342 -0.9228
  181MOL     C132761   1.287   2.265   7.667 -0.0054 -0.6109  0.1006
  181MOL     C232762   1.226   2.399   7.734  0.2718 -0.3686  0.3114
  181MOL     C332763   1.258   2.513   7.646  0.3525 -0.2763 -0.2274
  181MOL     O432764   1.340   2.518   7.558 -0.5171  0.4917 -0.1305
  181MOL     O532765   1.173   2.615   7.671 -0.7099  0.7764 -0.1485
  181MOL     H632766   1.219   2.182   7.687  1.5931 -1.9177  0.3047
  181MOL     H732767   1.309   2.277   7.561 -1.8434  0.2928 -0.1981
  181MOL     H832768   1.118   2.385   7.728  0.1189  0.3433  1.3461
  181MOL     H932769   1.188   2.686   7.610 -2.7067  1.0681 -0.3400
  181MOL    H1032770   1.382   2.233   7.710  0.1513 -0.1367  0.1116
  181MOL    C1132771   1.262   2.417   0.029 -0.2567 -0.6577  0.8499
  181MOL    C1232772   1.191   2.318   0.128 -0.5192 -1.0028 -0.4631
  181MOL    C1332773   1.119   2.399   0.238  0.4916 -0.1924 -0.7767
  181MOL    O1432774   1.163   2.500   0.294  0.2489  0.1764 -0.0275
  181MOL    O1532775   1.009   2.338   0.288  0.5797  0.6979  0.3342
  181MOL    H1632776   1.231   2.517   0.059 -1.7198 -0.3599 -1.5209
  181MOL    H1732777   1.370   2.421   0.043 -0.1529  1.2715 -0.4213
  181MOL    H1832778   1.118   2.262   0.070 -0.6607 -1.1994 -0.0954
  181MOL    H1932779   0.989   2.383   0.369 -0.8899  0.1602  0.2940
  181MOL    C2032780   1.295   2.216   0.193  0.3582  0.4720 -0.2902
  181MOL    C2132781   1.243   2.074   0.236 -0.8801 -0.3078  0.0707
  181MOL    C2232782   1.162   1.993   0.123  0.0123  0.1547 -0.5147
  181MOL    O2332783   1.043   1.961   0.129 -0.4312  0.6100  0.6111
  181MOL    O2432784   1.230   1.992   0.008  0.0299  0.8006  0.3195
  181MOL    H2532785   1.354   2.254   0.277  0.2306 -1.4041  0.6812
  181MOL    H2632786   1.363   2.204   0.109  1.7522  1.4468  0.6742
  181MOL    H2732787   1.329   2.011   0.258 -1.5971 -1.6581 -0.9295
  181MOL    H2832788   1.188   1.953   7.786  0.0331  0.0539  0.6964
  181MOL    C2932789   1.169   2.087   0.369 -0.4837 -0.0430  0.3030
  181MOL    C3032790   1.195   1.972   0.474 -0.1487 -0.2356 -0.1346
  181MOL    C3132791   1.341   1.950   0.507  1.0161  0.3037  0.3306
  181MOL    O3232792   1.397   1.849   0.469 -0.3420  0.1297  0.5589
  181MOL    O3332793   1.405   2.054   0.553 -0.1458 -0.0942  0.6432
  181MOL    H3432794   1.062   2.100   0.352 -0.4081  0.4978  0.2404
  181MOL    H3532795   1.187   2.187   0.409  0.1455  0.5586 -1.4305
  181MOL    H3632796   1.158   2.014   0.568  0.2094  0.7054 -0.4080
  181MOL    H3732797   1.497   2.035   0.543  0.0262 -0.3742  2.5889
  181MOL    C3832798   1.113   1.848   0.457 -0.1060 -0.2813 -0.2956
  181MOL    C3932799   0.959   1.847   0.474  0.1689  0.0872 -0.6191
  181MOL    C4032800   0.925   1.919   0.604 -0.3725  0.3564 -0.2615
  181MOL    O4132801   0.975   1.890   0.711 -0.4328 -0.2825 -0.4473
  181MOL    O4232802   0.822   2.000   0.588 -0.2558 -0.8812 -0.3006
  181MOL    H4332803   1.156   1.776   0.527 -0.4028 -0.5929 -0.4272
  181MOL    H4432804   1.136   1.801   0.361  1.3545  1.4704 -0.8229
  181MOL    H4532805   0.911   1.903   0.395  0.1546 -1.6149 -1.8548
  181MOL    H4632806   0.805   2.039   0.673 -0.9702 -0.7377 -0.5081
  181MOL    C4732807   0.909   1.707   0.478 -0.2312 -0.3223 -0.0474
  181MOL    C4832808   0.756   1.691   0.502  0.3507 -0.3471 -0.4516
  181MOL    C4932809   0.718   1.660   0.645 -0.0828  0.0150 -0.0770
  181MOL    O5032810   0.660   1.744   0.709  0.3441 -0.4552 -0.0617
  181MOL    O5132811   0.756   1.545   0.701  0.0957  0.5884  0.6481
  181MOL    H5232812   0.969   1.648   0.548  0.3553 -1.7805 -1.7499
  181MOL    H5332813   0.927   1.660   0.381  1.1217  2.1077 -1.0055
  181MOL    H5432814   0.715   1.791   0.486  1.3443  0.0536 -0.5298
  181MOL    H5532815   0.740   1.533   0.794  1.6238 -1.8931  0.6238
  181MOL    C5632816   0.677   1.603   0.396  0.1401 -0.6752 -0.1872
  181MOL    C5732817   0.526   1.602   0.413  0.3106 -0.2680 -0.0013
  181MOL    C5832818   0.470   1.458   0.430 -0.6231  0.5494 -0.2987
  181MOL    O5932819   0.391   1.416   0.349  0.1054  0.5884  0.6437
  181MOL    O6032820   0.513   1.401   0.541  0.1928  0.2841 -0.5764
  181MOL    H6132821   0.722   1.504   0.402 -1.4836 -1.4925 -1.2872
  181MOL    H6232822   0.713   1.642   0.301 -0.4400  2.1277  0.6960
  181MOL    H6332823   0.494   1.635   0.512 -1.4549  0.2586 -0.7262
  181MOL    H6432824   0.491   1.309   0.541 -1.0961  0.5738 -1.2038
  181MOL    C6532825   0.458   1.689   0.302  0.4287 -0.0237  0.3496
  181MOL    C6632826   0.456   1.834   0.349 -0.1536  0.4616  0.1772
  181MOL    C6732827   0.344   1.858   0.447  0.0173 -0.1351 -0.4421
  181MOL    O6832828   0.228   1.897   0.427  0.2822  0.1816 -0.0525
  181MOL    O6932829   0.387   1.831   0.571  0.2948 -0.2540  0.2287
  181MOL    H7032830   0.360   1.657   0.264  1.1258 -0.2697 -1.2795
  181MOL    H7132831   0.514   1.682   0.209 -0.6460  2.3973 -0.5014
  181MOL    H7232832   0.547   1.854   0.407  0.9149 -1.9497 -0.6097
  181MOL    H7332833   0.316   1.854   0.630  0.8350 -0.1383  0.8489
  181MOL    C7432834   0.443   1.950   0.247 -0.2887 -0.3707 -0.1277
  181MOL    C7532835   0.550   1.958   0.137  0.5527 -0.0550 -0.7586
  181MOL    C7632836   0.695   1.991   0.182  0.3045  0.2737 -0.5184
  181MOL    O7732837   0.718   2.009   0.299 -0.4314  0.6853 -0.8356
  181MOL    O7832838   0.785   1.993   0.076 -0.5914  0.8734 -0.4187
  181MOL    H7932839   0.442   2.043   0.305 -1.8065 -0.2658 -0.2912
  181MOL    H8032840   0.343   1.934   0.206  0.1008  0.6630 -1.4834
  181MOL    H8132841   0.569   1.856   0.103 -1.7087 -0.7001 -0.2197
  181MOL    H8232842   0.877   1.986   0.099 -0.7263 -2.4340 -0.5713
  181MOL    C8332843   0.509   2.047   0.013 -0.8819 -0.1783 -0.4219
  181MOL    C8432844   0.375   2.003   7.795 -0.6672 -0.2176  0.0303
  181MOL    C8532845   0.378   1.852   7.784  0.3218 -0.5690  0.5777
  181MOL    O8632846   0.463   1.789   7.716 -0.2088 -0.8481  0.4807
  181MOL    O8732847   0.267   1.791   7.840  0.5390 -0.0309 -0.2346
  181MOL    H8832848   0.594   2.051   7.798  1.2553 -2.1597  2.0391
  181MOL    H8932849   0.494   2.147   0.054  0.4830  0.7589 -2.1612
  181MOL    H9032850   0.291   2.021   0.009 -0.5418 -1.6580  0.6057
  181MOL    H9132851   0.211   1.850   0.035 -0.4855 -1.1392 -0.0435
  181MOL    C9232852   0.357   2.073   7.656  0.1164  0.2759 -0.2845
  181MOL    C9332853   0.245   2.181   7.650 -0.3542  0.3317 -0.0038
  181MOL    C9432854   0.103   2.114   7.668 -0.4910  0.5883  0.3055
  181MOL    O9532855   0.091   1.993   7.665 -0.2192  0.1098  0.1603
  181MOL    O9632856   0.000   2.205   7.689 -0.3512 -0.1101  0.4507
  181MOL    H9732857   0.319   1.999   7.585 -1.4285  0.0133  0.8027
  181MOL    H9832858   0.448   2.126   7.626 -0.1847  0.2323 -1.2901
  181MOL    H9932859   0.256   2.254   7.730 -0.9284  1.2830 -0.7627
  181MOL   H10032860   7.767   2.166   7.694  0.3501 -1.7162  0.1549
  181MOL   C10132861   0.235   2.250   7.512  0.0825  0.2730 -0.1139
  181MOL   C10232862   0.344   2.357   7.492 -0.5124 -0.4303  0.2640
  181MOL   C10332863   0.293   2.492   7.538  0.2605 -0.4805  0.4053
  181MOL   O10432864   0.179   2.526   7.546  0.5080  0.4151 -0.1566
  181MOL   O10532865   0.392   2.582   7.562 -0.1221 -0.2175 -0.4380
  181MOL   H10632866   0.133   2.284   7.496 -0.4535 -1.5067 -0.5282
  181MOL   H10732867   0.249   2.170   7.439 -1.7755 -2.4102  2.4041
  181MOL   H10832868   0.436   2.332   7.544  0.4042  1.6282 -0.3014
  181MOL   H10932869   0.365   2.658   7.611  1.1968 -0.7260  1.1118
  181MOL   C11032870   0.383   2.364   7.340  0.4014  0.1247 -0.0099
  181MOL   C11132871   0.517   2.438   7.321 -0.0746  0.7549 -0.0775
  181MOL   C11232872   0.501   2.576   7.261 -0.1202  0.8545 -1.2628
  181MOL   O11332873   0.425   2.601   7.163  0.5642 -0.1309 -0.1628
  181MOL   O11432874   0.587   2.667   7.316 -0.4668  0.3344  0.6520
  181MOL   H11532875   0.301   2.397   7.276  1.4686 -0.0714 -1.5134
  181MOL   H11632876   0.391   2.259   7.309  0.7190 -0.6103  2.4192
  181MOL   H11732877   0.575   2.444   7.413  0.8413  0.7917 -0.6477
  181MOL   H11832878   0.593   2.737   7.253  0.9467 -0.8905 -0.6615
  181MOL   C11932879   0.599   2.361   7.218 -0.4610  0.2519 -0.4352
  181MOL   C12032880   0.745   2.404   7.192  0.1132  0.6697  0.1683
  181MOL   C12132881   0.807   2.323   7.080  0.5611 -0.8416 -0.7570
  181MOL   O12232882   0.826   2.368   6.968 -0.1150 -0.2922  0.7132
  181MOL   O12332883   0.831   2.197   7.119 -0.0609 -0.0757 -0.0299
  181MOL   H12432884   0.545   2.352   7.124  0.7089 -0.1933 -1.0570
  181MOL   H12532885   0.602   2.257   7.251 -0.3338 -0.2149 -1.9125
  181MOL   H12632886   0.742   2.502   7.144 -3.7219  0.2818 -0.4899
  181MOL   H12732887   0.863   2.150   7.044  2.1161  2.2812 -0.6405
  181MOL   C12832888   0.833   2.423   7.317  0.2199  0.4440  0.2473
  181MOL   C12932889   0.861   2.296   7.399  0.0018 -0.6158 -0.6704
  181MOL   C13032890   0.832   2.324   7.543 -0.3111 -0.1076 -1.0564
  181MOL   O13132891   0.886   2.409   7.606  0.7469 -0.0216 -0.1526
  181MOL   O13232892   0.742   2.236   7.598 -0.4335  0.0325 -0.3476
  181MOL   H13332893   0.786   2.508   7.368  0.9092  1.6494 -1.0799
  181MOL   H13432894   0.929   2.466   7.289  0.8863 -1.0191  0.2616
  181MOL   H13532895   0.783   2.225   7.370 -0.9821 -0.2588  1.0288
  181MOL   H13632896   0.736   2.265   7.688  0.1109 -0.2173 -0.2306
  181MOL   C13732897   0.999   2.217   7.385  0.1822 -0.2268  0.4160
  181MOL   C13832898   0.997   2.058   7.396 -0.3035  0.0912  0.2321
  181MOL   C13932899   0.942   2.009   7.531 -0.3830  0.3069 -0.2012
  181MOL   O14032900   0.984   2.050   7.639 -0.1903  0.4910  0.4439
  181MOL   O14132901   0.844   1.921   7.516  0.1996 -0.0215  0.1431
  181MOL   H14232902   1.074   2.261   7.451  0.9521 -1.3685  0.3196
  181MOL   H14332903   1.028   2.249   7.285  0.7913 -1.5040  0.1805
  181MOL   H14432904   0.927   2.021   7.321 -0.2371 -0.0478  0.2391
  181MOL   H14532905   0.809   1.898   7.601  0.5313  0.8591  0.5276
  181MOL   C14632906   1.138   2.000   7.359 -0.2680  0.2325  0.1350
  181MOL   C14732907   1.155   1.847   7.353 -0.4988  0.3410  0.1125
  181MOL   C14832908   1.197   1.776   7.487  0.0965  0.2450  0.0862
  181MOL   O14932909   1.210   1.845   7.587  0.0192  0.7907 -0.0210
  181MOL   O15032910   1.231   1.645   7.478 -0.1694  0.0854  0.8729
  181MOL   H15132911   1.202   2.036   7.440  0.3575 -1.0844  0.2404
  181MOL   H15232912   1.174   2.043   7.265  0.5045  2.8286  1.5516
  181MOL   H15332913   1.054   1.813   7.326 -1.3847  0.3919  3.1969
  181MOL   H15432914   1.269   1.622   7.562 -1.3724  0.3595  1.5107
  181MOL   C15532915   1.253   1.816   7.233 -0.5880  0.3123 -0.5218
  181MOL   C15632916   1.404   1.846   7.256 -0.0681  0.1837  0.3410
  181MOL   C15732917   1.447   1.968   7.171  0.6377 -0.0694  0.8048
  181MOL   O15832918   1.483   1.959   7.051 -0.0885 -0.1030  0.0249
  181MOL   O15932919   1.443   2.074   7.251 -0.5673 -0.1878  0.1830
  181MOL   H16032920   1.220   1.867   7.142  5.0608 -0.0159 -3.0328
  181MOL   H16132921   1.240   1.711   7.205 -1.9357  0.2803  0.1884
  181MOL   H16232922   1.417   1.872   7.361  1.5885  0.2427  0.1310
  181MOL   H16332923   1.493   2.144   7.211 -1.4875  0.7468  0.6726
  181MOL   C16432924   1.486   1.721   7.234  0.9746 -0.1920 -0.3702
  181MOL   C16532925   1.637   1.741   7.263  0.1564 -0.0375 -0.1728
  181MOL   C16632926   1.726   1.684   7.148  0.6179  0.0861  0.3618
  181MOL   O16732927   1.698   1.581   7.082 -0.1056  0.6090  0.1383
  181MOL   O16832928   1.842   1.753   7.140 -0.1884 -0.7289 -0.3591
  181MOL   H16932929   1.484   1.704   7.127 -2.1758  2.3746 -0.7744
  181MOL   H17032930   1.435   1.634   7.276 -0.9031  0.0628 -2.0975
  181MOL   H17132931   1.659   1.846   7.277  0.9809 -0.1005 -0.9229
  181MOL   H17232932   1.901   1.709   7.080  1.3031 -1.0358  1.2936
  181MOL   C17332933   1.683   1.669   7.394  0.1585  0.3743  0.0897
  181MOL   C17432934   1.811   1.703   7.473 -0.4414 -0.3400 -0.1181
  181MOL   C17532935   1.916   1.599   7.457 -0.8106 -0.0693  0.2604
  181MOL   O17632936   1.902   1.489   7.397  0.5733  0.4182 -0.2205
  181MOL   O17732937   2.025   1.629   7.531 -0.1378 -0.3172  1.0557
  181MOL   H17832938   1.662   1.562   7.388 -1.2140  0.6216  0.3885
  181MOL   H17932939   1.605   1.696   7.465  1.1238  0.3701  1.1626
  181MOL   H18032940   1.847   1.798   7.435 -3.9364  1.8396  1.7701
  181MOL   H18132941   2.087   1.568   7.494 -0.6988 -1.0926  1.3856
  181MOL   H18232942   1.783   1.703   7.579  0.6367 -0.2082  0.1675
  182MOL     C132943   5.489   5.750   5.801  0.1524  0.0541 -0.4641
  182MOL     C232944   5.586   5.869   5.757  0.8012 -0.2674 -0.0988
  182MOL     C332945   5.716   5.817   5.692  0.5522 -0.3757 -0.5976
  182MOL     O432946   5.829   5.871   5.719  0.7129  0.4366 -0.1160
  182MOL     O532947   5.701   5.711   5.616 -0.2642 -0.4908  0.2749
  182MOL     H632948   5.473   5.674   5.725 -2.6053  0.0291  0.0967
  182MOL     H732949   5.544   5.690   5.874 -0.7305 -0.5270 -0.2761
  182MOL     H832950   5.530   5.911   5.673  0.1042  0.0697  0.5276
  182MOL     H932951   5.784   5.699   5.574  0.4329  2.8723  0.4929
  182MOL    H1032952   5.399   5.790   5.846  1.2181  2.3692 -0.3286
  182MOL    C1132953   5.606   5.976   5.872 -0.0507 -0.8751  0.3394
  182MOL    C1232954   5.667   5.926   6.011  0.2257  0.1655 -0.5255
  182MOL    C1332955   5.562   5.871   6.104  0.8106  0.1034  0.8564
  182MOL    O1432956   5.540   5.750   6.110  0.4318 -0.0250 -1.1846
  182MOL    O1532957   5.500   5.974   6.163 -0.0882 -0.0456 -0.0007
  182MOL    H1632958   5.518   6.034   5.900  0.7266  1.1925 -1.3472
  182MOL    H1732959   5.657   6.061   5.828 -0.2798 -0.9780 -0.1298
  182MOL    H1832960   5.729   5.840   5.985  0.4712  0.2093 -0.0789
  182MOL    H1932961   5.432   5.951   6.224 -0.5222 -1.0217 -0.8372
  182MOL    C2032962   5.757   6.037   6.079  1.5188 -0.6929 -0.9498
  182MOL    C2132963   5.885   6.072   6.006 -0.3509  0.2651  0.4143
  182MOL    C2232964   5.993   5.957   5.999 -0.0268  0.1045 -0.5555
  182MOL    O2332965   6.066   5.932   5.910  0.0894  0.3453  0.6164
  182MOL    O2432966   5.986   5.885   6.113 -0.3773  0.0327  0.2265
  182MOL    H2532967   5.790   6.011   6.180 -1.7323 -1.6649 -0.0761
  182MOL    H2632968   5.698   6.128   6.090 -1.2006 -2.3461 -1.2997
  182MOL    H2732969   5.848   6.094   5.905 -0.9142 -1.6990  0.1707
  182MOL    H2832970   6.031   5.802   6.106  0.7536  0.4121  2.5463
  182MOL    C2932971   5.955   6.201   6.048  0.2628 -0.1818  0.0009
  182MOL    C3032972   5.890   6.338   6.022 -0.0156 -0.2066 -0.1337
  182MOL    C3132973   5.855   6.354   5.873 -0.8233 -0.0347  0.0520
  182MOL    O3232974   5.742   6.346   5.819  0.2526  0.4506  0.1610
  182MOL    O3332975   5.969   6.379   5.801  0.2245  0.1511 -0.2899
  182MOL    H3432976   6.052   6.217   6.000  0.6226  0.9931  1.0666
  182MOL    H3532977   5.988   6.195   6.152 -0.5148 -2.0227  0.1608
  182MOL    H3632978   5.795   6.323   6.073  1.1637  0.9535  2.5044
  182MOL    H3732979   5.962   6.355   5.710  1.5936  1.3928 -0.7438
  182MOL    C3832980   5.976   6.456   6.081 -0.7065 -0.2872  0.3114
  182MOL    C3932981   5.906   6.596   6.093  0.3985 -0.0286 -0.1720
  182MOL    C4032982   5.966   6.686   5.983  0.1177 -0.4043 -0.1653
  182MOL    O4132983   6.082   6.713   5.972  0.7790 -0.2735  0.1805
  182MOL    O4232984   5.868   6.736   5.900 -0.4753  0.3870 -0.0749
  182MOL    H4332985   6.071   6.471   6.030 -0.6927  0.0007  0.4196
  182MOL    H4432986   6.022   6.428   6.175  0.5222 -0.9717 -0.4902
  182MOL    H4532987   5.801   6.574   6.076  0.4084  0.9006 -1.4886
  182MOL    H4632988   5.904   6.785   5.827 -1.9023  0.2808 -0.8595
  182MOL    C4732989   5.930   6.662   6.233  0.0797  0.1637 -0.4161
  182MOL    C4832990   5.865   6.803   6.260 -0.0678  0.3370 -0.0071
  182MOL    C4932991   5.973   6.894   6.314 -0.0850  0.1736  0.0533
  182MOL    O5032992   5.985   6.934   6.430  0.2410  0.0863  0.2203
  182MOL    O5132993   6.045   6.937   6.214  0.1830 -0.1541 -0.7714
  182MOL    H5232994   6.038   6.671   6.237  0.1779 -1.3299  0.6066
  182MOL    H5332995   5.896   6.606   6.320  0.5353 -1.3030 -1.1758
  182MOL    H5432996   5.840   6.843   6.162  0.7647  3.4284  0.9861
  182MOL    H5532997   6.118   6.995   6.230  1.8548 -2.7443  1.5195
  182MOL    C5632998   5.735   6.817   6.340 -1.2472  0.5151 -0.1728
  182MOL    C5732999   5.616   6.741   6.279  0.9613  0.4341  0.3080
  182MOL    C5833000   5.525   6.818   6.185 -0.5411 -0.6333  0.3932
  182MOL    O5933001   5.512   6.795   6.066 -0.6386 -0.0291 -0.3077
  182MOL    O6033002   5.481   6.934   6.246 -0.4074  1.0678  0.2645
  182MOL    H6133003   5.712   6.920   6.368 -1.3163  0.6884 -0.8588
  182MOL    H6233004   5.760   6.777   6.438 -0.3159 -0.9550 -0.9900
  182MOL    H6333005   5.653   6.665   6.211  1.2937  1.2797 -0.4591
  182MOL    H6433006   5.433   6.989   6.186  0.8282  0.2310 -1.5175
  182MOL    C6533007   5.537   6.655   6.381  0.0384 -1.1255  0.5489
  182MOL    C6633008   5.466   6.528   6.331 -0.3317 -0.0099 -0.2042
  182MOL    C6733009   5.334   6.486   6.405 -0.1087 -0.1314 -0.2977
  182MOL    O6833010   5.297   6.370   6.399  0.4059 -0.2708  0.2527
  182MOL    O6933011   5.264   6.590   6.462 -0.0007 -0.1736 -1.3237
  182MOL    H7033012   5.463   6.716   6.432  1.0418 -0.8662  1.7205
  182MOL    H7133013   5.602   6.619   6.461 -1.4130 -3.5825  0.6785
  182MOL    H7233014   5.436   6.557   6.230  3.2628 -1.4797 -1.7956
  182MOL    H7333015   5.187   6.548   6.497  0.7968 -1.5419 -1.1616
  182MOL    C7433016   5.559   6.407   6.310 -0.0551  0.4359  0.2677
  182MOL    C7533017   5.609   6.316   6.427 -0.7162  0.0215 -0.3228
  182MOL    C7633018   5.758   6.347   6.459  0.1724 -0.9934 -0.1049
  182MOL    O7733019   5.855   6.281   6.423  0.2349  0.4992  0.2546
  182MOL    O7833020   5.771   6.462   6.530  0.5224 -0.0255 -0.4350
  182MOL    H7933021   5.647   6.439   6.255  0.3819  2.2368  1.9399
  182MOL    H8033022   5.503   6.337   6.248 -1.4564 -0.2805  2.2521
  182MOL    H8133023   5.564   6.357   6.518  0.8387 -0.0320  0.4902
  182MOL    H8233024   5.862   6.481   6.549  0.2431  1.4025 -0.4586
  182MOL    C8333025   5.583   6.163   6.414 -0.0745 -0.3889 -0.4017
  182MOL    C8433026   5.633   6.086   6.538  0.1252  0.3879  0.9059
  182MOL    C8533027   5.646   5.938   6.498  0.2747  0.8330 -0.4914
  182MOL    O8633028   5.752   5.879   6.515 -0.0051  0.1544  0.0435
  182MOL    O8733029   5.530   5.885   6.443  0.7999  0.2697  0.4875
  182MOL    H8833030   5.631   6.133   6.321 -0.7700 -1.5323 -0.4002
  182MOL    H8933031   5.475   6.153   6.404 -0.4348  1.4518  1.3482
  182MOL    H9033032   5.736   6.114   6.562  0.5903  0.3729 -0.9840
  182MOL    H9133033   5.548   5.793   6.428 -0.8915 -0.1385  0.7809
  182MOL    C9233034   5.543   6.101   6.667 -0.1511 -0.0382  0.6879
  182MOL    C9333035   5.623   6.096   6.803  0.4535  0.1582 -0.0920
  182MOL    C9433036   5.745   6.194   6.816 -0.0364  0.7616 -0.0665
  182MOL    O9533037   5.862   6.158   6.809  0.0725 -0.1815 -0.2950
  182MOL    O9633038   5.705   6.320   6.844  0.9126 -0.6423 -0.6593
  182MOL    H9733039   5.457   6.035   6.655  1.3449 -2.0383  0.6399
  182MOL    H9833040   5.510   6.204   6.655  0.1463 -0.1768 -1.6476
  182MOL    H9933041   5.559   6.134   6.883  1.6854  0.4175  0.7855
  182MOL   H10033042   5.771   6.387   6.843  0.6639 -0.3210  1.3429
  182MOL   C10133043   5.670   5.943   6.830  0.2774 -0.6831  0.7406
  182MOL   C10233044   5.639   5.888   6.968  0.2622 -0.2619  0.5645
  182MOL   C10333045   5.748   5.926   7.068  0.5226 -0.1787 -0.0668
  182MOL   O10433046   5.851   5.993   7.049 -0.1528  0.0409 -0.6506
  182MOL   O10533047   5.713   5.891   7.190  0.2342 -0.2730 -0.1789
  182MOL   H10633048   5.773   5.925   6.798  0.7584  0.2656  1.7039
  182MOL   H10733049   5.614   5.884   6.758  0.7178  0.5110 -0.6053
  182MOL   H10833050   5.546   5.939   6.992  0.1422 -0.5762  0.7743
  182MOL   H10933051   5.770   5.915   7.262  0.6445  0.7522 -0.8238
  182MOL   C11033052   5.621   5.738   6.978  0.6165  0.3096  0.4165
  182MOL   C11133053   5.489   5.679   6.928 -0.1378  0.0213  0.1061
  182MOL   C11233054   5.367   5.733   7.006  0.1252  0.6950 -0.4318
  182MOL   O11333055   5.375   5.800   7.112  0.3684 -0.9235 -0.1159
  182MOL   O11433056   5.249   5.701   6.949  0.2352  0.6563 -0.0379
  182MOL   H11533057   5.629   5.700   7.080 -0.8976  0.1345  0.4915
  182MOL   H11633058   5.699   5.680   6.928 -0.8831 -0.2716 -1.3203
  182MOL   H11733059   5.484   5.711   6.824 -1.1628 -1.4270 -0.2974
  182MOL   H11833060   5.180   5.732   7.006 -1.5332 -3.0835  0.0154
  182MOL   C11933061   5.493   5.520   6.946  0.3916 -0.4122  0.3364
  182MOL   C12033062   5.576   5.446   6.838 -0.5810 -0.1718  0.2519
  182MOL   C12133063   5.504   5.426   6.708  0.1016  0.2859 -0.3638
  182MOL   O12233064   5.475   5.309   6.674  0.1941  0.4384  0.0501
  182MOL   O12333065   5.457   5.537   6.648 -0.7258 -0.4680 -0.0109
  182MOL   H12433066   5.387   5.499   6.935  0.0445  0.2528  2.2391
  182MOL   H12533067   5.500   5.488   7.050 -0.9041  1.1112  0.8932
  182MOL   H12633068   5.656   5.513   6.805  0.2313 -0.2534  2.0107
  182MOL   H12733069   5.401   5.528   6.573  0.4929 -0.3754 -0.9446
  182MOL   C12833070   5.641   5.316   6.896 -0.0074 -0.4565 -1.0416
  182MOL   C12933071   5.800   5.324   6.893 -0.4026  0.2705 -0.0598
  182MOL   C13033072   5.858   5.189   6.859  0.0634  0.0621 -0.3751
  182MOL   O13133073   5.928   5.120   6.933 -0.3901  0.0379  0.4917
  182MOL   O13233074   5.824   5.147   6.736 -0.2542 -0.2491  0.0927
  182MOL   H13333075   5.608   5.224   6.848 -1.6036 -0.4303 -0.0412
  182MOL   H13433076   5.601   5.304   6.997  1.8273  2.1635  0.0590
  182MOL   H13533077   5.835   5.398   6.820  4.2134 -2.1043 -0.4748
  182MOL   H13633078   5.881   5.075   6.714 -1.2171 -0.6330 -1.2241
  182MOL   C13733079   5.865   5.382   7.024 -0.3868  0.4778  0.2407
  182MOL   C13833080   6.019   5.417   7.029  0.1908  0.4611 -0.2088
  182MOL   C13933081   6.071   5.436   7.177  0.5465 -0.5430 -1.1493
  182MOL   O14033082   6.052   5.543   7.241 -0.6229 -0.0024  0.3975
  182MOL   O14133083   6.149   5.332   7.218 -0.4920 -0.4299 -0.0769
  182MOL   H14233084   5.839   5.313   7.104  0.6430 -0.5406 -0.2866
  182MOL   H14333085   5.806   5.469   7.053 -1.0581 -0.2823  1.2017
  182MOL   H14433086   6.081   5.341   6.981 -0.5991  0.8020 -1.8007
  182MOL   H14533087   6.191   5.364   7.297  0.0371  0.6362 -0.7687
  182MOL   C14633088   6.029   5.547   6.945 -0.0727  0.7751 -0.5968
  182MOL   C14733089   6.174   5.612   6.912 -0.0949 -0.4982  0.1066
  182MOL   C14833090   6.160   5.755   6.856  0.3165 -0.3488  0.2810
  182MOL   O14933091   6.051   5.807   6.820 -0.4432  0.5174 -0.4678
  182MOL   O15033092   6.275   5.820   6.855  0.3996  0.0574 -0.9510
  182MOL   H15133093   5.968   5.616   7.003 -0.3301 -1.5772  2.0319
  182MOL   H15233094   5.977   5.540   6.849 -2.0990  0.9624  0.4596
  182MOL   H15333095   6.226   5.612   7.008  0.9948 -0.6646 -0.4773
  182MOL   H15433096   6.266   5.913   6.840  0.4825  0.2779  0.2622
  182MOL   C15533097   6.263   5.517   6.825 -0.1114  0.3422  0.5506
  182MOL   C15633098   6.202   5.458   6.693 -0.5703 -0.1522 -0.7281
  182MOL   C15733099   6.281   5.326   6.652 -0.6035  0.6588 -0.3775
  182MOL   O15833100   6.220   5.219   6.645 -1.0859 -0.5255  0.3204
  182MOL   O15933101   6.417   5.341   6.642  0.3353 -0.6838  0.1439
  182MOL   H16033102   6.295   5.438   6.893  0.3147 -0.8774 -1.0462
  182MOL   H16133103   6.355   5.573   6.805 -0.9182  0.9783 -1.5754
  182MOL   H16233104   6.099   5.432   6.716 -0.2311  0.1238  1.1689
  182MOL   H16333105   6.453   5.257   6.619 -0.5354 -0.0969 -3.6734
  182MOL   C16433106   6.200   5.564   6.574  0.2100 -0.0210  0.3800
  182MOL   C16533107   6.102   5.536   6.451  0.0579 -0.4081  0.4816
  182MOL   C16633108   6.141   5.595   6.313  0.0247 -0.1168 -0.1526
  182MOL   O16733109   6.065   5.681   6.270  0.4762  0.6177  0.0535
  182MOL   O16833110   6.255   5.550   6.246  0.0515 -0.3931  0.4955
  182MOL   H16933111   6.301   5.577   6.536  0.5084  0.5364  1.3382
  182MOL   H17033112   6.182   5.668   6.603 -1.1374 -0.5707  1.5573
  182MOL   H17133113   6.093   5.429   6.433  1.3947 -0.2375 -1.2449
  182MOL   H17233114   6.259   5.584   6.157 -2.6724 -0.6950  0.1987
  182MOL   C17333115   5.969   5.580   6.504 -0.0486 -0.2369 -0.5876
  182MOL   C17433116   5.850   5.512   6.432  0.5874 -0.8020  0.0186
  182MOL   C17533117   5.749   5.609   6.368  0.5601  0.3309 -0.3360
  182MOL   O17633118   5.629   5.602   6.399 -0.1890  0.0207 -0.1435
  182MOL   O17733119   5.804   5.673   6.263 -0.8119  0.2309 -0.4666
  182MOL   H17833120   5.966   5.689   6.503  0.0729 -0.2367 -2.5513
  182MOL   H17933121   5.959   5.559   6.611  0.5644  0.2802 -0.4269
  182MOL   H18033122   5.871   5.444   6.349  0.7672 -0.8021  0.0652
  182MOL   H18133123   5.894   5.688   6.287 -1.5808 -0.3937  3.0962
  182MOL   H18233124   5.802   5.450   6.508  0.9297  1.2918  2.0000
  183MOL     C133125   4.557   3.839   3.547  0.0607  0.1075 -0.3979
  183MOL     C233126   4.467   3.842   3.665  0.7908 -0.1004  0.0532
  183MOL     C333127   4.368   3.956   3.644 -0.4756  0.0210  0.2418
  183MOL     O433128   4.252   3.946   3.676 -0.4080 -0.3562 -0.4073
  183MOL     O533129   4.422   4.076   3.611  0.3576  0.0891  0.3676
  183MOL     H633130   4.518   3.882   3.455 -2.7622 -1.5491 -0.0592
  183MOL     H733131   4.647   3.896   3.569 -0.4771  1.5032 -1.7388
  183MOL     H833132   4.412   3.748   3.654 -0.2787  0.2210  2.4177
  183MOL     H933133   4.360   4.147   3.604 -0.8998 -1.2428 -3.2505
  183MOL    H1033134   4.582   3.739   3.511 -1.3411 -0.1789 -0.6067
  183MOL    C1133135   4.551   3.852   3.802  0.3338  0.0318  0.1501
  183MOL    C1233136   4.471   3.860   3.935  0.1793 -0.9078  0.8040
  183MOL    C1333137   4.569   3.876   4.046 -0.2266 -0.1838 -0.1178
  183MOL    O1433138   4.592   3.789   4.132  0.2585 -0.6069 -0.3143
  183MOL    O1533139   4.631   3.992   4.050 -0.0481 -0.2761  0.0005
  183MOL    H1633140   4.616   3.939   3.793  1.8867 -1.1568 -0.1853
  183MOL    H1733141   4.612   3.762   3.810 -0.2099 -0.1574  2.5719
  183MOL    H1833142   4.407   3.948   3.927  1.0419 -0.2109  1.5028
  183MOL    H1933143   4.590   4.053   3.990 -0.6794 -1.1485 -0.4578
  183MOL    C2033144   4.375   3.734   3.957 -0.7972 -0.2247 -0.4853
  183MOL    C2133145   4.263   3.754   4.060 -0.1259 -0.0744  0.4141
  183MOL    C2233146   4.187   3.622   4.089 -1.4352  0.2954 -0.3045
  183MOL    O2333147   4.070   3.598   4.058  0.2297  0.1012  0.0807
  183MOL    O2433148   4.268   3.538   4.146 -0.2205  0.5324  0.0194
  183MOL    H2533149   4.445   3.654   3.982 -0.7977 -0.0221  0.1770
  183MOL    H2633150   4.331   3.704   3.862 -0.8645  1.4285 -0.9929
  183MOL    H2733151   4.314   3.771   4.155 -0.6652  4.3802  0.0123
  183MOL    H2833152   4.356   3.566   4.166  0.5569 -0.5441 -1.7085
  183MOL    C2933153   4.173   3.877   4.029 -0.0457  0.5143 -0.2180
  183MOL    C3033154   4.060   3.910   4.131 -0.7992 -0.1295 -0.0788
  183MOL    C3133155   3.991   4.040   4.099  0.2666 -0.4002  0.3677
  183MOL    O3233156   4.042   4.152   4.105  0.0118  0.0196 -1.0302
  183MOL    O3333157   3.859   4.033   4.074  0.2355  0.5640  0.5668
  183MOL    H3433158   4.131   3.872   3.929 -1.5639 -0.1217  0.4306
  183MOL    H3533159   4.236   3.966   4.039 -0.7942  0.8776  1.5697
  183MOL    H3633160   3.980   3.839   4.114 -1.4127  0.2512  1.1349
  183MOL    H3733161   3.815   4.112   4.049  2.4561  1.4287 -0.8355
  183MOL    C3833162   4.103   3.898   4.287 -0.5495 -0.0717 -0.4882
  183MOL    C3933163   3.985   3.931   4.384 -0.0308 -0.3550  0.2513
  183MOL    C4033164   4.052   3.969   4.517  0.3282 -0.5624 -0.6873
  183MOL    O4133165   4.174   3.995   4.523 -0.1189  0.3936 -0.7808
  183MOL    O4233166   3.968   3.979   4.626  0.1872  0.6378 -0.1945
  183MOL    H4333167   4.182   3.973   4.296  1.6586 -2.4209  0.4922
  183MOL    H4433168   4.153   3.802   4.301  2.4060  1.5014  0.1696
  183MOL    H4533169   3.928   4.015   4.345  0.2490 -1.1553 -1.9370
  183MOL    H4633170   4.022   3.997   4.701 -2.2118  0.4924  1.6067
  183MOL    C4733171   3.882   3.813   4.388 -0.2644 -0.4906  0.2828
  183MOL    C4833172   3.741   3.842   4.337  0.3374  0.0784  0.1355
  183MOL    C4933173   3.645   3.937   4.420 -0.7188  0.2484  0.0801
  183MOL    O5033174   3.580   4.027   4.374 -0.6967 -0.1442  0.4636
  183MOL    O5133175   3.633   3.906   4.553  0.9493  0.5998 -0.1236
  183MOL    H5233176   3.861   3.787   4.492  2.0645 -0.4278  0.7829
  183MOL    H5333177   3.929   3.724   4.346 -2.4986 -0.9928 -1.2612
  183MOL    H5433178   3.750   3.904   4.248 -1.1144 -1.9459 -1.4680
  183MOL    H5533179   3.681   3.834   4.591 -0.0218  1.0749  2.0826
  183MOL    C5633180   3.666   3.719   4.289  0.1956  0.2984  0.2641
  183MOL    C5733181   3.703   3.657   4.147  0.5068  0.6251 -0.2391
  183MOL    C5833182   3.705   3.750   4.028  0.3121  0.6076 -0.0443
  183MOL    O5933183   3.611   3.826   3.993  0.7149  0.0616  0.1356
  183MOL    O6033184   3.822   3.745   3.959 -0.1057 -0.6273  0.2410
  183MOL    H6133185   3.563   3.754   4.278  0.2563  0.1941 -0.6841
  183MOL    H6233186   3.673   3.643   4.368 -1.5345 -0.6998 -0.5054
  183MOL    H6333187   3.803   3.621   4.170  1.2131  2.1237 -0.8811
  183MOL    H6433188   3.806   3.805   3.888 -0.3469 -1.9670 -0.8573
  183MOL    C6533189   3.600   3.541   4.128  0.4146 -0.4554 -0.7255
  183MOL    C6633190   3.639   3.445   4.017 -0.2030 -0.1442 -0.1243
  183MOL    C6733191   3.516   3.388   3.948  0.6981  0.1973 -0.4044
  183MOL    O6833192   3.402   3.395   3.988  0.1391  0.6272 -0.3668
  183MOL    O6933193   3.555   3.333   3.825  0.1530 -0.5069  0.8646
  183MOL    H7033194   3.511   3.594   4.093 -0.8990 -3.3177 -1.9094
  183MOL    H7133195   3.569   3.495   4.221  0.8402 -0.4682 -0.5935
  183MOL    H7233196   3.687   3.493   3.932 -0.7863 -0.7859 -0.8224
  183MOL    H7333197   3.479   3.295   3.783  0.1106 -1.1260  1.4895
  183MOL    C7433198   3.749   3.349   4.057 -0.0050 -0.6421 -0.7001
  183MOL    C7533199   3.709   3.265   4.182 -0.4522  0.5939  0.5464
  183MOL    C7633200   3.771   3.319   4.312  0.0951  0.2253  1.1353
  183MOL    O7733201   3.873   3.390   4.327  0.0160 -0.1799 -0.2479
  183MOL    O7833202   3.692   3.282   4.414  0.5213  0.0570 -0.3846
  183MOL    H7933203   3.850   3.390   4.060  0.4355 -1.7897  0.6904
  183MOL    H8033204   3.770   3.287   3.969 -0.4067 -1.2021 -0.4072
  183MOL    H8133205   3.601   3.269   4.199 -0.0776  2.1287  2.6863
  183MOL    H8233206   3.731   3.330   4.486  1.7265  1.3871 -1.8830
  183MOL    C8333207   3.745   3.117   4.158  0.0111  0.1332 -0.5213
  183MOL    C8433208   3.633   3.033   4.078  0.2834  0.0785  0.3725
  183MOL    C8533209   3.499   3.039   4.157 -0.6212  0.3316  0.0955
  183MOL    O8633210   3.489   3.053   4.281  0.0964  0.1449  0.2350
  183MOL    O8733211   3.392   3.019   4.078  0.3262  0.3543 -0.1041
  183MOL    H8833212   3.760   3.073   4.257  1.9867  1.5704 -0.1399
  183MOL    H8933213   3.846   3.115   4.117 -0.1505  0.1642 -0.9203
  183MOL    H9033214   3.600   3.071   3.981 -2.2135  1.1283  1.6091
  183MOL    H9133215   3.309   3.019   4.123  1.7282  2.2971  2.5612
  183MOL    C9233216   3.679   2.894   4.049  0.2175  0.3213 -0.6009
  183MOL    C9333217   3.602   2.804   3.946 -0.3079 -0.3631  0.5723
  183MOL    C9433218   3.596   2.652   3.983  0.3269 -0.1856 -0.2205
  183MOL    O9533219   3.519   2.578   3.924  0.5427 -0.4578 -0.6618
  183MOL    O9633220   3.695   2.607   4.067  0.5124 -0.6359  0.2016
  183MOL    H9733221   3.694   2.842   4.144  0.2692 -1.3056 -1.4798
  183MOL    H9833222   3.781   2.907   4.015  0.2967 -1.1766 -0.9558
  183MOL    H9933223   3.501   2.843   3.951  0.0902  0.7647 -0.0982
  183MOL   H10033224   3.672   2.516   4.077  1.0139 -0.6219  1.5354
  183MOL   C10133225   3.629   2.817   3.792  0.4462  0.5884  0.4219
  183MOL   C10233226   3.771   2.777   3.741  0.1392 -0.5372 -0.0267
  183MOL   C10333227   3.884   2.875   3.773 -0.1870  0.6170 -0.6242
  183MOL   O10433228   3.881   2.999   3.764 -0.3839  0.1586  0.1380
  183MOL   O10533229   4.001   2.809   3.808  0.1075 -0.5019  0.8997
  183MOL   H10633230   3.611   2.918   3.754  1.8703 -0.5869 -3.6037
  183MOL   H10733231   3.556   2.759   3.736  1.4525 -0.0781 -0.1924
  183MOL   H10833232   3.787   2.689   3.803 -1.6730  0.7271  2.3052
  183MOL   H10933233   3.996   2.715   3.821  2.9035 -0.7956  0.0357
  183MOL   C11033234   3.767   2.753   3.593  0.1833 -0.2301 -1.0994
  183MOL   C11133235   3.680   2.625   3.548 -0.1767 -0.2683 -0.3016
  183MOL   C11233236   3.746   2.498   3.591  0.5634 -0.0730 -0.7238
  183MOL   O11333237   3.835   2.437   3.527  0.0975 -0.7890  0.2533
  183MOL   O11433238   3.716   2.460   3.718  0.1455  0.2856 -0.9398
  183MOL   H11533239   3.867   2.739   3.553  0.8171  0.5696  0.1818
  183MOL   H11633240   3.735   2.843   3.539  1.2546  0.6646 -0.2740
  183MOL   H11733241   3.581   2.620   3.592  0.2753  0.3309  0.8057
  183MOL   H11833242   3.746   2.372   3.734 -0.1047  0.5179  0.9058
  183MOL   C11933243   3.659   2.622   3.390  0.2046 -0.0221 -0.3288
  183MOL   C12033244   3.521   2.691   3.356  0.1926 -0.3764 -0.3621
  183MOL   C12133245   3.406   2.600   3.375 -0.2195  0.2227  0.1473
  183MOL   O12233246   3.394   2.480   3.342  0.1583 -0.3428  0.1713
  183MOL   O12333247   3.311   2.665   3.440  0.6732  0.0887  0.7234
  183MOL   H12433248   3.657   2.524   3.343 -0.3581  0.8794 -2.2230
  183MOL   H12533249   3.735   2.674   3.332 -0.3567  1.8462  0.5752
  183MOL   H12633250   3.512   2.775   3.426 -1.4051 -0.7496 -0.0899
  183MOL   H12733251   3.236   2.610   3.458  0.6716 -0.3922 -0.7196
  183MOL   C12833252   3.514   2.742   3.208  0.4442  0.1011  0.6469
  183MOL   C12933253   3.394   2.831   3.170  0.5577 -0.0285 -0.1626
  183MOL   C13033254   3.388   2.847   3.015  0.2292  0.2376  0.0766
  183MOL   O13133255   3.481   2.822   2.941  0.4310 -0.5920  0.3222
  183MOL   O13233256   3.266   2.889   2.968 -0.0447 -0.2837 -0.2269
  183MOL   H13333257   3.507   2.656   3.141 -4.3104  1.5768 -1.0004
  183MOL   H13433258   3.607   2.793   3.182  2.6931 -4.0286  0.0970
  183MOL   H13533259   3.299   2.778   3.171  1.1148 -1.0897 -1.6597
  183MOL   H13633260   3.263   2.903   2.875 -0.8577  0.0414 -0.1493
  183MOL   C13733261   3.397   2.975   3.233  0.1978 -0.3773 -0.1670
  183MOL   C13833262   3.276   3.081   3.212  0.2719  0.8400  0.0559
  183MOL   C13933263   3.317   3.226   3.253  0.8796  0.1453 -0.3292
  183MOL   O14033264   3.277   3.286   3.348  0.6330 -0.9151 -0.2569
  183MOL   O14133265   3.400   3.282   3.157  0.1133 -0.5778  0.2667
  183MOL   H14233266   3.493   3.018   3.206 -1.0722  2.4279 -0.3907
  183MOL   H14333267   3.391   2.954   3.340  0.3058 -0.6519 -0.2159
  183MOL   H14433268   3.250   3.094   3.107  0.9224  2.4725  0.0871
  183MOL   H14533269   3.433   3.231   3.085 -1.2357  0.1414 -0.8992
  183MOL   C14633270   3.145   3.031   3.279 -0.2487  0.0378 -0.0358
  183MOL   C14733271   3.020   3.094   3.228 -0.2479  0.1184 -0.1488
  183MOL   C14833272   2.915   3.106   3.331  0.2526 -0.0813 -0.0185
  183MOL   O14933273   2.815   3.038   3.327 -0.2045  0.2924 -0.1990
  183MOL   O15033274   2.946   3.198   3.429 -0.0716 -0.1990 -0.0546
  183MOL   H15133275   3.156   3.040   3.387  0.0339  0.8872 -0.1334
  183MOL   H15233276   3.135   2.924   3.262 -1.3749  0.2820 -0.9988
  183MOL   H15333277   3.043   3.199   3.207 -0.3166  0.4502  1.3742
  183MOL   H15433278   2.870   3.215   3.482 -0.8095 -0.9851 -0.8337
  183MOL   C15533279   2.960   3.040   3.086 -0.4448 -0.4226  0.2941
  183MOL   C15633280   2.891   3.134   2.985  0.5333 -0.0678  0.5855
  183MOL   C15733281   2.773   3.205   3.051  0.0095  0.6457 -0.2095
  183MOL   O15833282   2.775   3.325   3.076  0.1283 -0.1202 -0.9368
  183MOL   O15933283   2.670   3.119   3.076 -0.2406  0.0105  0.4733
  183MOL   H16033284   2.891   2.959   3.110 -0.2239 -0.4401  0.8948
  183MOL   H16133285   3.049   3.002   3.037 -0.0004  0.6791  0.2396
  183MOL   H16233286   2.969   3.204   2.955 -0.8792  1.0565 -0.5185
  183MOL   H16333287   2.591   3.168   3.090 -0.7045 -1.2430  2.4626
  183MOL   C16433288   2.857   3.048   2.857  0.0054 -0.1687 -0.2053
  183MOL   C16533289   2.779   3.113   2.741  0.0701 -0.0682 -0.6771
  183MOL   C16633290   2.748   2.998   2.641 -1.3409 -0.2229  0.4759
  183MOL   O16733291   2.636   2.968   2.597  0.1476 -0.4727  0.1459
  183MOL   O16833292   2.864   2.929   2.616 -0.8502  0.4350  0.2334
  183MOL   H16933293   2.790   2.968   2.889 -0.9693  0.8183  0.2669
  183MOL   H17033294   2.948   2.994   2.830  0.8372  0.5991  0.9904
  183MOL   H17133295   2.685   3.155   2.778  0.0364 -1.9209  1.4069
  183MOL   H17233296   2.854   2.857   2.555  0.4862 -1.8663  2.6343
  183MOL   C17333297   2.872   3.222   2.677  0.4474  0.3955 -0.6272
  183MOL   C17433298   2.809   3.304   2.563  0.5769  0.4732 -0.6836
  183MOL   C17533299   2.698   3.391   2.621  0.6423  0.4386 -0.6416
  183MOL   O17633300   2.584   3.384   2.573 -0.4150  0.2773 -0.0693
  183MOL   O17733301   2.739   3.464   2.724 -0.0790 -0.3740 -0.1224
  183MOL   H17833302   2.963   3.170   2.647  0.9295  1.4378 -0.9575
  183MOL   H17933303   2.921   3.290   2.746 -0.7274  0.3859  0.2369
  183MOL   H18033304   2.877   3.367   2.504  1.4927 -0.7454 -0.9455
  183MOL   H18133305   2.669   3.527   2.735  0.2780  0.1988 -1.1419
  183MOL   H18233306   2.779   3.240   2.480  0.3732  0.8146 -0.8748
  184MOL     C133307   7.482   6.023   7.733 -0.4064 -0.0779 -0.2492
  184MOL     C233308   7.621   5.973   7.703 -0.2779 -0.2672 -0.5192
  184MOL     C333309   7.612   5.825   7.658  0.2944 -0.4943 -0.2996
  184MOL     O433310   7.651   5.729   7.728  0.2363 -0.2124  0.0811
  184MOL     O533311   7.565   5.814   7.531 -0.0367 -0.0818 -0.0239
  184MOL     H633312   7.431   5.975   7.817  0.4321 -2.5409 -1.1166
  184MOL     H733313   7.477   6.132   7.741  0.1225  0.0214 -1.2070
  184MOL     H833314   7.651   6.036   7.620 -0.7283 -0.9727 -1.2263
  184MOL     H933315   7.552   5.726   7.500 -0.3660  0.7469 -2.3180
  184MOL    H1033316   7.416   6.008   7.647  1.1547  1.5041 -1.7780
  184MOL    C1133317   7.716   5.996   7.821  0.0213  0.6743 -0.4247
  184MOL    C1233318   7.773   6.138   7.842 -0.5007  0.0798 -0.4323
  184MOL    C1333319   0.072   6.136   0.017  0.3414  0.1282 -0.3147
  184MOL    O1433320   0.144   6.034   0.043  0.4214 -0.1963  0.4806
  184MOL    O1533321   0.118   6.261   0.003 -0.0469 -0.1505 -0.7548
  184MOL    H1633322   7.802   5.932   7.799 -1.4817 -1.0149 -1.5431
  184MOL    H1733323   7.671   5.959   0.060 -1.8078  1.9426 -0.7810
  184MOL    H1833324   7.763   6.193   7.748  0.0396  1.5094  0.3347
  184MOL    H1933325   0.207   6.278   0.031 -0.4695  0.8542  0.0468
  184MOL    C2033326   7.700   6.224   0.096  0.2140  0.7565  0.3166
  184MOL    C2133327   7.705   6.178   0.240  0.1854 -0.2489  0.1874
  184MOL    C2233328   7.566   6.134   0.289 -0.5706  0.0671  0.4353
  184MOL    O2333329   7.469   6.210   0.289  0.6661 -0.3113  0.1649
  184MOL    O2433330   7.566   6.015   0.360  0.1447 -0.3302 -0.3844
  184MOL    H2533331   7.597   6.251   0.072 -0.6618  0.9615  3.9247
  184MOL    H2633332   7.743   6.324   0.102 -0.4374  0.9080  3.5903
  184MOL    H2733333   7.763   6.087   0.249 -0.1950 -0.3844  1.2948
  184MOL    H2833334   7.491   5.976   0.402  0.1983 -1.1899 -1.0725
  184MOL    C2933335   7.759   6.282   0.340  0.7747  0.1000 -0.0917
  184MOL    C3033336   7.832   6.227   0.467  0.2695  0.3152 -0.3255
  184MOL    C3133337   7.850   6.337   0.569  0.0933 -0.3204  0.1045
  184MOL    O3233338   7.834   6.456   0.546  0.1270  0.6506 -0.4070
  184MOL    O3333339   0.052   6.288   0.681  0.1153  0.0430  0.6211
  184MOL    H3433340   7.684   6.357   0.365  0.1948 -0.5960  0.2574
  184MOL    H3533341   7.841   6.334   0.290  2.0601 -3.2540 -1.6047
  184MOL    H3633342   7.775   6.147   0.515 -0.0951  0.2627 -0.8487
  184MOL    H3733343   0.062   6.357   0.745  1.1281 -1.1108  1.7504
  184MOL    C3833344   0.118   6.176   0.419 -0.3354  0.0913 -0.5186
  184MOL    C3933345   0.218   6.102   0.514  0.1045 -0.1170  0.0604
  184MOL    C4033346   0.353   6.070   0.447  0.2762 -0.1862 -0.3946
  184MOL    O4133347   0.449   6.027   0.519  0.3758 -0.4139 -0.3942
  184MOL    O4233348   0.356   6.103   0.312  0.0924  0.5270 -0.1565
  184MOL    H4333349   0.175   6.262   0.384 -1.2979  1.2645  0.7236
  184MOL    H4433350   0.103   6.104   0.338  0.7445 -1.3201  0.5119
  184MOL    H4533351   0.254   6.165   0.595  0.4548  2.4568 -2.0661
  184MOL    H4633352   0.442   6.068   0.291 -0.0128  1.1072 -1.5829
  184MOL    C4733353   0.178   5.980   0.590 -0.4709  0.5498  0.4428
  184MOL    C4833354   0.127   5.858   0.504  0.2510  0.6559 -0.3275
  184MOL    C4933355   7.823   5.859   0.496 -0.5036  0.1380  0.1044
  184MOL    O5033356   7.757   5.856   0.594  0.2256  0.2726  0.0554
  184MOL    O5133357   7.776   5.861   0.367 -0.5078 -0.0426  0.7611
  184MOL    H5233358   0.105   6.017   0.662 -0.6355  0.5284  0.2882
  184MOL    H5333359   0.255   5.944   0.658 -0.0425  1.9547  0.7270
  184MOL    H5433360   0.160   5.869   0.400 -2.6247 -0.2129 -1.3837
  184MOL    H5533361   7.687   5.891   0.367 -0.6500 -0.1848 -3.5238
  184MOL    C5633362   0.172   5.720   0.557  0.3851  0.1306  0.0970
  184MOL    C5733363   0.322   5.672   0.525 -1.4353  0.0293  0.4211
  184MOL    C5833364   0.337   5.633   0.376 -0.1423  0.3347 -0.7443
  184MOL    O5933365   0.329   5.517   0.342 -0.4671  0.2147 -0.2964
  184MOL    O6033366   0.371   5.730   0.297  0.5929 -0.2387 -0.1280
  184MOL    H6133367   0.115   5.636   0.517  0.3185  0.3514 -0.2787
  184MOL    H6233368   0.161   5.736   0.664  0.6825 -0.9548  0.2981
  184MOL    H6333369   0.386   5.760   0.529 -1.5523  0.0565  2.0443
  184MOL    H6433370   0.374   5.699   0.207 -4.0330 -0.4387 -0.3461
  184MOL    C6533371   0.369   5.568   0.625  0.7408 -0.3602  0.0991
  184MOL    C6633372   0.281   5.443   0.645 -0.3803 -0.1429  0.4133
  184MOL    C6733373   0.148   5.469   0.727 -0.3498  0.3371  0.3320
  184MOL    O6833374   0.145   5.543   0.823 -0.1341  0.3280  0.3096
  184MOL    O6933375   0.043   5.408   0.675 -0.3796 -0.1366 -0.1348
  184MOL    H7033376   0.400   5.612   0.719  1.4257 -0.9250  0.1390
  184MOL    H7133377   0.462   5.526   0.586  0.3612  0.3105 -1.5778
  184MOL    H7233378   0.256   5.399   0.548  0.3362  0.3067  0.0189
  184MOL    H7333379   0.064   5.332   0.623  0.1651  0.5448 -0.9111
  184MOL    C7433380   0.355   5.343   0.741  0.2073  0.1579  0.3934
  184MOL    C7533381   0.498   5.297   0.689  0.1630 -0.0277 -0.3387
  184MOL    C7633382   0.507   5.247   0.540 -0.4098  0.1821  0.0398
  184MOL    O7733383   0.409   5.252   0.467 -0.1350 -0.0423  0.1975
  184MOL    O7833384   0.627   5.213   0.497 -0.0724 -0.6536 -0.1131
  184MOL    H7933385   0.295   5.252   0.741 -0.2089  0.4357  1.6210
  184MOL    H8033386   0.361   5.383   0.842  2.7871  2.9001 -0.7714
  184MOL    H8133387   0.560   5.385   0.703 -1.0336  0.6059  1.0481
  184MOL    H8233388   0.621   5.181   0.409 -4.3281 -0.1952 -0.0546
  184MOL    C8333389   0.541   5.177   0.778  0.2118  0.2756 -0.1501
  184MOL    C8433390   0.564   5.213   0.926  0.1803  0.8115 -0.5093
  184MOL    C8533391   0.650   5.340   0.959 -0.4592  0.4446  0.2796
  184MOL    O8633392   0.776   5.333   0.977  0.1297 -0.5266  0.1974
  184MOL    O8733393   0.577   5.452   0.968 -0.3711  0.0386  0.4323
  184MOL    H8833394   0.637   5.137   0.745  0.7976  2.2681 -0.9373
  184MOL    H8933395   0.464   5.100   0.774 -0.8778  1.4056 -1.4265
  184MOL    H9033396   0.470   5.244   0.972  0.3654  0.0525  0.4005
  184MOL    H9133397   0.636   5.525   0.978 -1.4264  1.2317 -1.6890
  184MOL    C9233398   0.609   5.087   1.009 -0.8489 -0.5398  0.4555
  184MOL    C9333399   0.600   5.110   1.160 -0.2973 -0.1335  0.7233
  184MOL    C9433400   0.687   5.011   1.240 -0.3715  0.0977 -0.4395
  184MOL    O9533401   0.792   5.047   1.295  0.6148 -0.1520 -0.6633
  184MOL    O9633402   0.640   4.887   1.234 -0.6545  0.4463 -0.6540
  184MOL    H9733403   0.717   5.078   0.993 -1.0230 -2.8261  0.4417
  184MOL    H9833404   0.561   5.000   0.964  0.9828 -1.8688  1.0282
  184MOL    H9933405   0.639   5.209   1.185 -1.5457  0.3823  0.6640
  184MOL   H10033406   0.670   4.820   1.294  0.2361  2.1857  0.8774
  184MOL   C10133407   0.457   5.091   1.214  0.7066 -0.2492  0.2441
  184MOL   C10233408   0.424   5.144   1.350 -0.2014  0.0422 -0.1379
  184MOL   C10333409   0.290   5.093   1.405  0.6193 -0.0372  0.3814
  184MOL   O10433410   0.194   5.061   1.328  0.5569  0.5811  0.1415
  184MOL   O10533411   0.301   5.085   1.536 -0.0975  0.3122 -0.4410
  184MOL   H10633412   0.419   4.989   1.211  0.3041 -0.1252  0.8706
  184MOL   H10733413   0.385   5.134   1.146 -1.6566 -4.5681 -0.1515
  184MOL   H10833414   0.496   5.099   1.419 -0.0474  2.6509  1.4743
  184MOL   H10933415   0.230   5.039   1.579  0.5859 -0.4509 -0.1352
  184MOL   C11033416   0.442   5.303   1.362 -0.3562  0.3280 -0.6512
  184MOL   C11133417   0.430   5.354   1.506 -0.2075 -0.4772 -0.3805
  184MOL   C11233418   0.290   5.402   1.548 -0.7996 -0.0885  0.7464
  184MOL   O11333419   0.193   5.415   1.473  0.8881 -0.1970  0.2349
  184MOL   O11433420   0.279   5.418   1.685 -0.0756  0.3111  0.3524
  184MOL   H11533421   0.376   5.351   1.290  1.2060 -0.1682 -2.4602
  184MOL   H11633422   0.544   5.326   1.332 -0.7820  1.7765 -0.9717
  184MOL   H11733423   0.455   5.280   1.581  1.7138  0.7000  0.1873
  184MOL   H11833424   0.190   5.442   1.704  0.5137  2.7900  0.1981
  184MOL   C11933425   0.535   5.469   1.527 -0.0689  0.0792  0.0541
  184MOL   C12033426   0.524   5.606   1.453  0.0107  0.0887 -0.3075
  184MOL   C12133427   0.541   5.602   1.299  0.3445  0.1156 -0.1491
  184MOL   O12233428   0.634   5.549   1.246 -0.1214  0.1220  0.7739
  184MOL   O12333429   0.427   5.647   1.234 -0.1416  0.1284  0.2303
  184MOL   H12433430   0.634   5.424   1.516 -0.7658 -1.3230 -0.6272
  184MOL   H12533431   0.531   5.495   1.632 -1.3248  3.2140 -0.7090
  184MOL   H12633432   0.425   5.650   1.461  0.7131  1.4511  1.3090
  184MOL   H12733433   0.430   5.641   1.139 -0.1771  1.8518  0.0968
  184MOL   C12833434   0.625   5.703   1.519  0.3530  0.0739  0.7200
  184MOL   C12933435   0.570   5.802   1.629 -0.0621  0.0181  0.5042
  184MOL   C13033436   0.678   5.906   1.663  0.2190  0.4232  1.0068
  184MOL   O13133437   0.797   5.912   1.632 -0.4643 -0.8978 -0.0928
  184MOL   O13233438   0.624   5.992   1.742 -0.2391 -0.3798 -0.4203
  184MOL   H13333439   0.667   5.769   1.443  1.2110 -1.0989  0.1568
  184MOL   H13433440   0.713   5.648   1.554  0.4423 -0.4073 -0.2483
  184MOL   H13533441   0.498   5.862   1.572  0.3656 -0.6554 -0.7495
  184MOL   H13633442   0.691   6.042   1.784 -1.5127  0.7714  0.2980
  184MOL   C13733443   0.512   5.732   1.746  0.6170 -0.5609 -0.6307
  184MOL   C13833444   0.604   5.655   1.851  0.1761  0.3689  0.5301
  184MOL   C13933445   0.545   5.521   1.903  1.2176 -0.1349  0.2751
  184MOL   O14033446   0.424   5.509   1.925 -0.1168 -0.2036  0.0951
  184MOL   O14133447   0.635   5.423   1.920  0.2643 -0.4635  0.0903
  184MOL   H14233448   0.442   5.662   1.700 -0.4496  1.1035 -1.5982
  184MOL   H14333449   0.451   5.806   1.798 -1.8706 -2.3469 -0.9290
  184MOL   H14433450   0.699   5.642   1.799  0.2672 -0.5337  0.9046
  184MOL   H14533451   0.589   5.343   1.940 -2.7544  1.2653  0.2740
  184MOL   C14633452   0.634   5.744   1.974 -0.1809 -0.2157 -0.4112
  184MOL   C14733453   0.773   5.793   1.990  0.6306  0.1028  0.9044
  184MOL   C14833454   0.870   5.677   2.025  0.5292 -1.1551 -0.1987
  184MOL   O14933455   0.852   5.595   2.113  0.5088  0.3412 -0.5750
  184MOL   O15033456   0.979   5.680   1.951  0.2615 -0.3559  0.5337
  184MOL   H15133457   0.605   5.698   2.069 -1.3946  0.3617 -0.4975
  184MOL   H15233458   0.554   5.817   1.967  1.6625  2.2459  2.6345
  184MOL   H15333459   0.799   5.829   1.890 -2.3773 -0.6212 -0.2015
  184MOL   H15433460   1.028   5.603   1.975 -0.2001 -0.6149  0.6332
  184MOL   C15533461   0.781   5.907   2.096 -0.5014  0.3445 -0.7122
  184MOL   C15633462   0.695   6.039   2.075 -0.4307 -0.8726  0.0882
  184MOL   C15733463   0.783   6.154   2.009 -0.0560  0.3266  0.2406
  184MOL   O15833464   0.823   6.248   2.070  0.0543  0.1493  0.7225
  184MOL   O15933465   0.791   6.140   1.879 -0.0397  0.2391  0.3653
  184MOL   H16033466   0.888   5.932   2.098 -0.3504 -0.4098  0.7949
  184MOL   H16133467   0.758   5.863   2.193  0.8858 -1.1645 -1.0457
  184MOL   H16233468   0.613   6.011   2.010 -1.4166  0.1184  0.8911
  184MOL   H16333469   0.841   6.213   1.844 -0.0970 -0.2193 -0.6863
  184MOL   C16433470   0.640   6.093   2.206 -0.7299  0.2626 -1.1134
  184MOL   C16533471   0.518   6.013   2.269 -0.2286  0.1617 -0.2259
  184MOL   C16633472   0.391   6.004   2.177  0.0775 -1.0105  0.0182
  184MOL   O16733473   0.387   6.065   2.069 -0.0978 -0.1277  0.2523
  184MOL   O16833474   0.293   5.929   2.234 -0.7007 -0.1015 -0.6180
  184MOL   H16933475   0.596   6.190   2.184  0.0337  0.7632 -0.4842
  184MOL   H17033476   0.719   6.124   2.276  1.2533  1.6805 -3.8698
  184MOL   H17133477   0.548   5.909   2.284 -0.8821 -0.1693 -1.1434
  184MOL   H17233478   0.206   5.948   2.201 -1.1002  0.6688  0.8029
  184MOL   C17333479   0.484   6.061   2.408  1.2257 -0.2296 -0.3520
  184MOL   C17433480   0.415   6.202   2.412 -0.2017  0.5220  0.1542
  184MOL   C17533481   0.367   6.246   2.549 -0.4197  0.2480  0.5293
  184MOL   O17633482   0.435   6.236   2.653  0.0068  0.2737  0.4606
  184MOL   O17733483   0.248   6.304   2.533 -0.1206  0.4164 -0.2835
  184MOL   H17833484   0.577   6.059   2.466  0.9188  1.3387  0.2228
  184MOL   H17933485   0.414   5.992   2.455 -1.2486  0.0205 -3.4863
  184MOL   H18033486   0.483   6.279   2.375 -0.1608  0.6195  0.4291
  184MOL   H18133487   0.217   6.325   2.620  0.6696  1.3337 -0.2161
  184MOL   H18233488   0.330   6.197   2.345  1.2438 -1.0848 -1.6165
  185MOL     C133489   0.984   0.345   0.748  0.0065  0.2444  0.3436
  185MOL     C233490   1.111   0.402   0.801 -0.3676  0.0348 -0.0591
  185MOL     C333491   1.079   0.541   0.850 -0.7831  0.1126 -0.0396
  185MOL     O433492   1.092   0.646   0.786 -0.9034  0.1888 -0.5410
  185MOL     O533493   1.017   0.529   0.968 -0.4753 -0.6539 -0.0517
  185MOL     H633494   0.905   0.348   0.823  0.7587  0.6640  1.1230
  185MOL     H733495   0.946   0.410   0.669  2.1522  1.1946  0.0616
  185MOL     H833496   1.147   0.340   0.883 -1.6821  1.8286  1.9405
  185MOL     H933497   0.993   0.614   1.002 -0.6551 -0.9843  0.6391
  185MOL    H1033498   1.000   0.243   0.713 -0.2352  0.4635 -0.4038
  185MOL    C1133499   1.217   0.403   0.681  1.4814  1.3131  0.2647
  185MOL    C1233500   1.363   0.394   0.710 -0.4712  0.1371 -0.2527
  185MOL    C1333501   1.419   0.523   0.762 -0.2926  0.0581 -0.1657
  185MOL    O1433502   1.374   0.639   0.741  0.0459  0.3353 -0.4317
  185MOL    O1533503   1.545   0.488   0.816  0.3180 -0.2416 -0.6714
  185MOL    H1633504   1.193   0.491   0.620 -0.4040  0.4040 -0.3648
  185MOL    H1733505   1.187   0.320   0.617  0.5847  0.4419  1.7721
  185MOL    H1833506   1.388   0.314   0.780  1.0166  0.2822 -0.5846
  185MOL    H1933507   1.582   0.572   0.836 -0.2741  0.0154 -0.6459
  185MOL    C2033508   1.429   0.363   0.577 -0.0064 -0.0532  0.4774
  185MOL    C2133509   1.582   0.337   0.551  0.2251 -0.8088 -0.3751
  185MOL    C2233510   1.594   0.280   0.412  0.3632 -0.1534  1.0949
  185MOL    O2333511   1.585   0.162   0.386 -0.5215 -0.4936  0.0199
  185MOL    O2433512   1.575   0.369   0.315 -0.2923  0.3825  0.2036
  185MOL    H2533513   1.391   0.443   0.512 -1.5799  0.0722  1.5092
  185MOL    H2633514   1.389   0.265   0.552 -2.2735  0.9797 -0.0955
  185MOL    H2733515   1.632   0.434   0.552  0.2764 -0.8335  1.6384
  185MOL    H2833516   1.588   0.327   0.231  0.0206  0.9779 -0.0494
  185MOL    C2933517   1.665   0.251   0.654 -0.2511  0.8039 -0.4844
  185MOL    C3033518   1.798   0.180   0.602  0.1568 -0.3746 -1.0583
  185MOL    C3133519   1.861   0.098   0.719 -0.1421 -0.2426  0.8826
  185MOL    O3233520   1.892   7.829   0.706 -0.0596 -0.1844  0.3288
  185MOL    O3333521   1.896   0.180   0.825 -0.2058  0.6986 -0.2853
  185MOL    H3433522   1.605   0.178   0.708  2.7755 -0.4694  1.2752
  185MOL    H3533523   1.710   0.322   0.723  1.4749 -1.3527  0.6573
  185MOL    H3633524   1.759   0.106   0.531  0.0635 -1.6375  0.2839
  185MOL    H3733525   1.941   0.135   0.895  0.3495  3.9081  1.5269
  185MOL    C3833526   1.910   0.268   0.538  0.2298 -0.6106  0.6423
  185MOL    C3933527   2.019   0.191   0.455 -0.6404  0.3674  0.0766
  185MOL    C4033528   2.113   0.301   0.397  0.2778  0.7080  0.2410
  185MOL    O4133529   2.232   0.305   0.415  0.3311  0.4637  0.0096
  185MOL    O4233530   2.045   0.395   0.328 -0.5221 -0.4787 -0.2636
  185MOL    H4333531   1.954   0.317   0.625 -0.4020  0.3090  0.4572
  185MOL    H4433532   1.858   0.345   0.482 -2.1596 -2.4433  0.2677
  185MOL    H4533533   2.098   0.140   0.510 -0.6899  0.5013  0.2729
  185MOL    H4633534   2.115   0.456   0.311  0.3299 -1.1050  0.9362
  185MOL    C4733535   1.967   0.100   0.340 -0.3290  0.5352 -0.0547
  185MOL    C4833536   2.060   7.851   0.275  0.6746 -0.1118 -0.3533
  185MOL    C4933537   1.995   7.801   0.145  0.3364 -0.8055  0.1871
  185MOL    O5033538   1.969   7.681   0.127  0.3784 -0.4817 -0.3235
  185MOL    O5133539   1.961   0.048   0.057  0.1135  0.3688 -0.0746
  185MOL    H5233540   1.919   0.161   0.264  0.2276  2.5381  1.1854
  185MOL    H5333541   1.882   0.043   0.378  0.7232 -0.9921  0.0713
  185MOL    H5433542   2.147   0.058   0.246  0.8357 -0.5390 -0.7763
  185MOL    H5533543   1.937   0.007   7.828 -1.4838 -1.6490  1.3577
  185MOL    C5633544   2.105   7.733   0.366 -0.0143  0.1476 -0.0114
  185MOL    C5733545   2.213   7.633   0.316  0.1329 -0.2920 -0.3332
  185MOL    C5833546   2.189   7.481   0.319  0.3374 -0.1909 -0.1538
  185MOL    O5933547   2.262   7.402   0.381  0.6346 -0.5660  0.4297
  185MOL    O6033548   2.083   7.449   0.248  0.8394  0.1091  0.4808
  185MOL    H6133549   2.016   7.670   0.368 -0.0782  0.2504  0.3624
  185MOL    H6233550   2.128   7.767   0.467 -0.0614  0.1206  0.0082
  185MOL    H6333551   2.236   7.652   0.211 -2.1281 -0.2042 -0.8267
  185MOL    H6433552   2.050   7.531   0.214 -0.9589 -0.9241 -0.3103
  185MOL    C6533553   2.335   7.673   0.407  0.1520  0.4568 -0.3013
  185MOL    C6633554   2.482   7.675   0.347  0.2175  0.3619 -0.2859
  185MOL    C6733555   2.491   7.741   0.210  0.0126 -0.0854 -0.2640
  185MOL    O6833556   2.541   7.689   0.110  0.3856  0.1114  0.2860
  185MOL    O6933557   2.451   0.013   0.214  0.1053  0.3221  0.3629
  185MOL    H7033558   2.327   7.612   0.497  0.6656  0.2755 -0.3801
  185MOL    H7133559   2.326   7.775   0.443 -3.1944  0.2983 -0.4749
  185MOL    H7233560   2.544   7.739   0.410  1.0100  2.1878 -2.7922
  185MOL    H7333561   2.466   0.050   0.128 -1.6246  1.0419  0.3459
  185MOL    C7433562   2.552   7.545   0.335 -0.3291 -0.2990  0.0123
  185MOL    C7533563   2.710   7.546   0.345  0.2897  0.0870  0.2632
  185MOL    C7633564   2.766   7.423   0.276 -0.0584 -0.3213 -0.1249
  185MOL    O7733565   2.852   7.429   0.185 -0.1882  0.2484 -0.0070
  185MOL    O7833566   2.716   7.307   0.331  0.0420 -0.2298 -0.3611
  185MOL    H7933567   2.524   7.475   0.256 -2.8702  0.0287  0.5792
  185MOL    H8033568   2.518   7.490   0.423  3.0715 -1.4669  0.6545
  185MOL    H8133569   2.751   7.628   0.286  3.4619 -0.5806  1.4553
  185MOL    H8233570   2.746   7.228   0.287 -0.2961  0.0052 -1.0254
  185MOL    C8333571   2.751   7.553   0.495 -0.0300  0.3931  0.8654
  185MOL    C8433572   2.871   7.637   0.533 -0.4179 -0.2210 -0.2095
  185MOL    C8533573   2.832   7.784   0.543 -0.1740  0.0012 -0.0231
  185MOL    O8633574   2.813   7.839   0.655 -0.0783  0.3352 -0.0292
  185MOL    O8733575   2.823   7.844   0.421 -0.3784 -0.1089 -0.2764
  185MOL    H8833576   2.773   7.450   0.524 -2.5658 -0.6110 -0.5699
  185MOL    H8933577   2.663   7.592   0.546 -1.6047  0.3985 -1.7491
  185MOL    H9033578   2.893   7.619   0.638  2.3205 -1.7989 -1.0145
  185MOL    H9133579   2.791   0.080   0.426 -0.2095 -0.1453  1.4473
  185MOL    C9233580   2.993   7.598   0.438 -0.8671  0.0768 -0.6580
  185MOL    C9333581   3.131   7.633   0.493 -0.2482  0.3760  0.0095
  185MOL    C9433582   3.168   7.778   0.454  0.2235 -0.4418  0.2012
  185MOL    O9533583   3.232   7.809   0.357  0.1590 -0.6521 -0.0493
  185MOL    O9633584   3.130   0.018   0.548 -0.1842 -0.1964 -0.2378
  185MOL    H9733585   2.980   7.626   0.334  1.9316 -2.3793 -1.7271
  185MOL    H9833586   2.989   7.490   0.429 -0.4525 -0.0720  0.8125
  185MOL    H9933587   3.117   7.622   0.601 -1.8114  1.5634 -0.0473
  185MOL   H10033588   3.147   0.104   0.513 -2.1641  0.8852  1.3214
  185MOL   C10133589   3.246   7.550   0.435  0.4666  0.0653  1.2631
  185MOL   C10233590   3.255   7.397   0.475  0.1036 -0.2749 -0.1245
  185MOL   C10333591   3.333   7.377   0.610  0.2348  0.5852  0.5734
  185MOL   O10433592   3.409   7.463   0.658 -0.0910  0.4005  0.1243
  185MOL   O10533593   3.313   7.254   0.662 -0.3029 -0.2995  0.4080
  185MOL   H10633594   3.341   7.601   0.452  0.9002 -0.6090  0.8944
  185MOL   H10733595   3.230   7.546   0.327  0.8316 -0.9553  1.2395
  185MOL   H10833596   3.153   7.368   0.499  1.5901 -5.7254  0.3355
  185MOL   H10933597   3.367   7.257   0.740  0.9469  2.3760 -0.4912
  185MOL   C11033598   3.303   7.305   0.352  0.3310 -0.2621 -0.7725
  185MOL   C11133599   3.284   7.149   0.350 -0.8365  0.1595 -0.4875
  185MOL   C11233600   3.390   7.086   0.437  0.4917 -0.0405  0.0704
  185MOL   O11333601   3.507   7.113   0.435 -0.0790  0.2301 -0.1244
  185MOL   O11433602   3.344   6.978   0.500 -0.2095 -0.6765  0.1304
  185MOL   H11533603   3.402   7.341   0.321 -1.0022  1.1883 -3.5361
  185MOL   H11633604   3.243   7.344   0.270 -2.5642 -0.7562  1.0514
  185MOL   H11733605   3.180   7.132   0.379  0.0176  0.4189  2.9135
  185MOL   H11833606   3.250   6.978   0.516 -0.8662 -0.7936 -3.4679
  185MOL   C11933607   3.303   7.102   0.202 -0.9311  0.4089 -0.1301
  185MOL   C12033608   3.273   6.951   0.183  0.4812  0.0091  0.2316
  185MOL   C12133609   3.355   6.893   0.071  0.3343 -0.3288  0.0743
  185MOL   O12233610   3.301   6.864   7.818 -0.7091 -0.6785 -0.4881
  185MOL   O12333611   3.490   6.893   0.098 -0.1114  0.2397  0.1451
  185MOL   H12433612   3.410   7.110   0.182 -1.3281  1.1484 -2.0845
  185MOL   H12533613   3.246   7.163   0.133  0.4998  0.9280 -0.8774
  185MOL   H12633614   3.318   6.902   0.269  0.4097  1.1906  0.9596
  185MOL   H12733615   3.531   6.881   0.013 -0.4609 -0.1972  0.0341
  185MOL   C12833616   3.118   6.913   0.184  0.6733  0.4319 -0.1913
  185MOL   C12933617   3.023   6.995   0.085  0.9140  0.2209 -0.2534
  185MOL   C13033618   2.957   7.118   0.142 -0.0852 -0.3531 -0.4276
  185MOL   O13133619   2.851   7.106   0.203  0.2343  0.6072  0.5518
  185MOL   O13233620   3.017   7.230   0.104  0.1203  0.1324  0.1696
  185MOL   H13333621   3.084   6.914   0.287 -2.3690  2.4380 -1.1668
  185MOL   H13433622   3.108   6.807   0.162 -1.6641  0.9507 -1.7690
  185MOL   H13533623   3.089   7.025   0.004  2.2059 -0.6871  0.4569
  185MOL   H13633624   2.965   7.306   0.126  1.6197  1.2430 -0.0841
  185MOL   C13733625   2.917   6.896   0.031 -0.2736 -0.3153  0.5667
  185MOL   C13833626   2.813   6.958   7.783 -0.0833  0.6409  0.8143
  185MOL   C13933627   2.708   6.862   7.745  0.3288 -0.3747  0.0984
  185MOL   O14033628   2.589   6.891   7.747  0.2547  0.3939  0.0029
  185MOL   O14133629   2.763   6.746   7.710 -0.5765 -0.7332 -0.1944
  185MOL   H14233630   2.858   6.852   0.111 -1.5316 -1.4053 -0.9239
  185MOL   H14333631   2.971   6.815   7.835  0.2589 -0.7825  1.9140
  185MOL   H14433632   2.761   7.034   7.840 -0.4606  1.9882 -1.2627
  185MOL   H14533633   2.699   6.677   7.708 -0.0414 -1.2343 -0.5019
  185MOL   C14633634   2.893   7.027   7.657 -0.5180  0.1045 -0.0453
  185MOL   C14733635   2.817   7.095   7.545 -0.1598 -0.1175 -0.6872
  185MOL   C14833636   2.706   7.189   7.596  0.1109  0.0217  0.6305
  185MOL   O14933637   2.600   7.200   7.530 -0.1928 -0.6632  0.1384
  185MOL   O15033638   2.731   7.257   7.706  0.0801  0.4759  0.3814
  185MOL   H15133639   2.971   6.955   7.631 -0.6879 -0.2457  0.4041
  185MOL   H15233640   2.945   7.107   7.710  1.8797 -1.3894 -0.0582
  185MOL   H15333641   2.886   7.165   7.499  0.3654 -0.0971  0.1251
  185MOL   H15433642   2.666   7.316   7.740  1.2866  2.7975 -1.1787
  185MOL   C15533643   2.775   7.004   7.423  0.2256 -0.4240  0.9544
  185MOL   C15633644   2.880   6.899   7.391 -0.5108 -0.1152  0.2225
  185MOL   C15733645   3.011   6.950   7.338  0.0105 -0.4166 -0.1138
  185MOL   O15833646   3.026   7.055   7.281 -0.0419  0.2148  0.4088
  185MOL   O15933647   3.112   6.865   7.375 -0.1418 -0.0024 -0.1001
  185MOL   H16033648   2.756   7.062   7.333 -1.4256 -1.8113  0.3824
  185MOL   H16133649   2.681   6.953   7.442 -0.2706 -0.4308 -1.3335
  185MOL   H16233650   2.890   6.844   7.485  1.1141 -0.9177 -0.4035
  185MOL   H16333651   3.198   6.896   7.349  0.9653 -1.1070  2.0924
  185MOL   C16433652   2.826   6.792   7.288  0.5190  0.4263 -0.8653
  185MOL   C16533653   2.899   6.649   7.267 -0.2294 -0.1001  0.3911
  185MOL   C16633654   2.841   6.581   7.139 -0.7592  0.7765  0.3023
  185MOL   O16733655   2.808   6.464   7.135 -0.6745  0.6299 -0.3017
  185MOL   O16833656   2.839   6.654   7.027  0.2983  0.3733  0.0681
  185MOL   H16933657   2.844   6.842   7.193  3.8529  1.7572  0.4178
  185MOL   H17033658   2.719   6.773   7.301  0.4784  1.0860 -0.2262
  185MOL   H17133659   3.005   6.674   7.257 -0.7162  1.2898 -1.4617
  185MOL   H17233660   2.819   6.608   6.947  2.0916 -1.6231  0.7152
  185MOL   C17333661   2.892   6.566   7.398 -0.1416 -0.4267  0.4142
  185MOL   C17433662   3.021   6.506   7.444  0.3932  0.0676  0.1050
  185MOL   C17533663   3.053   6.362   7.393  0.0732 -0.7850  1.1693
  185MOL   O17633664   2.973   6.270   7.403  0.1095  0.4779 -0.1338
  185MOL   O17733665   3.177   6.353   7.347 -0.2594 -0.3097 -0.0413
  185MOL   H17833666   2.813   6.490   7.392 -0.3984  0.0637 -3.2682
  185MOL   H17933667   2.859   6.632   7.479 -3.9611  1.1749 -2.2591
  185MOL   H18033668   3.102   6.578   7.435  0.9727 -0.7200 -1.0361
  185MOL   H18133669   3.198   6.267   7.315  2.2380  0.9986 -2.0974
  185MOL   H18233670   3.000   6.495   7.551 -1.2097 -2.5398 -0.4482
  186MOL     C133671   5.727   1.761   2.734 -0.7328 -0.8982  0.1175
  186MOL     C233672   5.847   1.848   2.681 -0.2978 -0.0898  0.3724
  186MOL     C333673   5.811   1.989   2.715  0.5385  0.0155 -0.7175
  186MOL     O433674   5.776   2.079   2.638  0.4437 -0.1827 -0.1031
  186MOL     O533675   5.824   2.012   2.849 -0.1443  0.1472  0.1295
  186MOL     H633676   5.763   1.659   2.741  0.5166 -0.6091 -1.9397
  186MOL     H733677   5.692   1.791   2.833 -2.4455 -1.5513 -0.2707
  186MOL     H833678   5.942   1.825   2.729 -0.1216  0.0929  0.1123
  186MOL     H933679   5.855   1.931   2.889 -2.6100 -1.0151 -0.2707
  186MOL    H1033680   5.645   1.750   2.663 -1.3807  0.0905  0.7012
  186MOL    C1133681   5.882   1.838   2.530 -0.1192 -0.4570  0.4257
  186MOL    C1233682   5.911   1.695   2.487 -0.0285  0.2536 -0.2177
  186MOL    C1333683   6.064   1.686   2.477 -0.4750 -0.0690  0.4576
  186MOL    O1433684   6.137   1.702   2.572  0.1069  0.0670 -0.4256
  186MOL    O1533685   6.111   1.648   2.361 -0.3398  0.2886  0.0223
  186MOL    H1633686   5.967   1.903   2.511 -1.7204  1.6780  0.4391
  186MOL    H1733687   5.803   1.875   2.466 -0.0305  1.6022  1.4752
  186MOL    H1833688   5.883   1.638   2.575 -1.0680  2.0857  0.6618
  186MOL    H1933689   6.205   1.641   2.371 -0.3449  4.3275  4.6057
  186MOL    C2033690   5.827   1.657   2.358  0.0077  0.2995  0.5548
  186MOL    C2133691   5.680   1.625   2.382  0.1934 -0.1262  0.0097
  186MOL    C2233692   5.661   1.482   2.446 -0.9269 -0.3897  0.1359
  186MOL    O2333693   5.654   1.465   2.570  0.7248 -0.2488 -0.6590
  186MOL    O2433694   5.666   1.386   2.350  0.0809  0.1177  0.0211
  186MOL    H2533695   5.872   1.560   2.334 -2.6774 -0.9560  0.4393
  186MOL    H2633696   5.846   1.719   2.271  1.9597 -1.0404 -0.0037
  186MOL    H2733697   5.645   1.700   2.453  0.6844 -1.8450  2.1000
  186MOL    H2833698   5.657   1.310   2.405 -0.5045  1.4678  1.8778
  186MOL    C2933699   5.609   1.629   2.243  0.4096  0.7281 -0.0955
  186MOL    C3033700   5.452   1.619   2.240 -0.5332  0.3820  0.0611
  186MOL    C3133701   5.406   1.594   2.095 -0.0244 -0.2602  0.3402
  186MOL    O3233702   5.459   1.517   2.021  0.2245 -0.0512  0.1175
  186MOL    O3333703   5.299   1.661   2.059 -0.5726 -0.5565  0.3401
  186MOL    H3433704   5.646   1.557   2.170  1.1281 -1.4023  2.2984
  186MOL    H3533705   5.628   1.731   2.209 -1.5296  0.6734 -1.4463
  186MOL    H3633706   5.435   1.517   2.275 -0.7695  0.8716  1.4339
  186MOL    H3733707   5.275   1.645   1.970  1.1696 -0.4808 -0.1640
  186MOL    C3833708   5.377   1.721   2.331  0.5793 -0.5814 -0.2857
  186MOL    C3933709   5.266   1.661   2.416 -0.5898  0.0269  0.5319
  186MOL    C4033710   5.169   1.770   2.451  0.0280  0.0871 -0.0125
  186MOL    O4133711   5.208   1.873   2.507  0.0643  0.0088 -0.1568
  186MOL    O4233712   5.037   1.737   2.449  0.1493 -0.2859 -0.1488
  186MOL    H4333713   5.345   1.804   2.268 -3.0109 -0.4383  1.5706
  186MOL    H4433714   5.436   1.768   2.409 -0.7640 -0.6396  0.7881
  186MOL    H4533715   5.207   1.590   2.358 -0.0158  0.7872 -1.0122
  186MOL    H4633716   4.996   1.818   2.477  0.5539 -0.6639  1.6275
  186MOL    C4733717   5.321   1.594   2.545  0.4712  0.1515  0.5073
  186MOL    C4833718   5.233   1.510   2.647 -0.4095  0.2250  0.6110
  186MOL    C4933719   5.172   1.607   2.753  0.9279 -0.1970  0.7259
  186MOL    O5033720   5.052   1.633   2.759  0.1146 -0.2328 -0.1674
  186MOL    O5133721   5.268   1.664   2.832  0.6784 -0.3692  0.1749
  186MOL    H5233722   5.366   1.667   2.612 -0.8653 -0.7659  2.4417
  186MOL    H5333723   5.405   1.531   2.516 -0.0413 -1.0349  1.5820
  186MOL    H5433724   5.150   1.482   2.582 -1.0804  0.1026  1.5129
  186MOL    H5533725   5.248   1.738   2.888  1.7155 -0.3671  0.5488
  186MOL    C5633726   5.304   1.388   2.705 -0.2701  0.3905 -0.1291
  186MOL    C5733727   5.320   1.265   2.605  0.1096  0.0318  0.4898
  186MOL    C5833728   5.186   1.228   2.543 -0.3226  0.7412 -0.7729
  186MOL    O5933729   5.080   1.200   2.608 -0.4231 -0.0259 -0.4524
  186MOL    O6033730   5.180   1.238   2.410  0.1503  0.0588 -0.1276
  186MOL    H6133731   5.262   1.356   2.800  2.1153 -0.6010  0.6190
  186MOL    H6233732   5.403   1.420   2.736  0.3290 -1.4552 -0.1003
  186MOL    H6333733   5.375   1.302   2.518 -2.0869  1.5959 -0.2910
  186MOL    H6433734   5.097   1.229   2.366  1.9131  1.4115 -3.9477
  186MOL    C6533735   5.386   1.148   2.674 -0.1608 -0.3788 -0.1323
  186MOL    C6633736   5.442   1.029   2.584 -0.4331 -0.0741 -0.2302
  186MOL    C6733737   5.358   0.909   2.610  0.4425 -0.7586  0.2573
  186MOL    O6833738   5.373   0.830   2.704 -0.2206 -0.1462  0.1080
  186MOL    O6933739   5.252   0.900   2.526  0.3433  0.0924 -0.5618
  186MOL    H7033740   5.317   1.112   2.750  0.0027 -1.4122 -0.4690
  186MOL    H7133741   5.467   1.191   2.734  2.0689 -2.9384 -1.1897
  186MOL    H7233742   5.424   1.059   2.481  1.9053  0.7167 -0.4347
  186MOL    H7333743   5.220   0.812   2.517 -1.0315  0.4901  0.2064
  186MOL    C7433744   5.591   1.014   2.618  0.2160  0.4101 -0.6531
  186MOL    C7533745   5.689   0.948   2.520 -0.1076 -0.1954  0.4277
  186MOL    C7633746   5.682   0.998   2.371  0.5329 -0.3626  0.2634
  186MOL    O7733747   5.704   0.924   2.280  0.4416  0.1726 -1.0293
  186MOL    O7833748   5.639   1.126   2.364  0.4528 -0.5504  0.3625
  186MOL    H7933749   5.591   0.967   2.716 -0.9494  0.6176 -0.5390
  186MOL    H8033750   5.636   1.112   2.634 -2.0719  1.3348  0.4284
  186MOL    H8133751   5.789   0.974   2.555 -0.7570  1.0162  1.4178
  186MOL    H8233752   5.631   1.162   2.277  2.3812  0.5584  0.6203
  186MOL    C8333753   5.691   0.794   2.516 -0.6564  0.3903  0.0377
  186MOL    C8433754   5.716   0.718   2.654  0.7453 -0.3275  0.3858
  186MOL    C8533755   5.861   0.756   2.701  0.2978 -0.1611  0.3283
  186MOL    O8633756   5.962   0.686   2.681 -0.2403  0.4193 -0.0787
  186MOL    O8733757   5.860   0.869   2.771  0.1309  0.9042 -0.3656
  186MOL    H8833758   5.774   0.757   2.457  0.0031  2.4870 -0.3947
  186MOL    H8933759   5.603   0.753   2.468 -1.2087 -0.0237  1.3900
  186MOL    H9033760   5.644   0.754   2.729  0.6863  2.6742 -1.0273
  186MOL    H9133761   5.949   0.896   2.787  1.1295 -2.3612  0.1548
  186MOL    C9233762   5.710   0.568   2.624 -0.3536  0.1914 -0.0983
  186MOL    C9333763   5.635   0.492   2.742  0.5791  0.5936  0.5534
  186MOL    C9433764   5.485   0.533   2.760 -0.8064 -0.1789 -0.4744
  186MOL    O9533765   5.443   0.582   2.865 -0.4355 -0.6093  0.2184
  186MOL    O9633766   5.414   0.506   2.655  0.6073  0.1187 -0.7143
  186MOL    H9733767   5.806   0.520   2.603 -0.5296 -0.1037 -0.2343
  186MOL    H9833768   5.652   0.536   2.537 -0.4940 -0.7188  0.3213
  186MOL    H9933769   5.631   0.389   2.704 -0.2707  0.5577  0.7252
  186MOL   H10033770   5.321   0.521   2.659  0.4556 -0.9972 -0.1017
  186MOL   C10133771   5.717   0.505   2.877  0.1496 -0.0056 -0.9348
  186MOL   C10233772   5.729   0.381   2.971  0.7000  0.2046 -0.1574
  186MOL   C10333773   5.767   0.259   2.886 -0.7434 -0.2690 -0.6555
  186MOL   O10433774   5.722   0.145   2.905 -0.5088  0.8613  0.3798
  186MOL   O10533775   5.876   0.280   2.809 -0.3092 -0.4638 -0.1987
  186MOL   H10633776   5.697   0.598   2.931 -1.5076  0.6931 -2.6793
  186MOL   H10733777   5.820   0.531   2.852 -0.2367  0.2037 -2.3385
  186MOL   H10833778   5.818   0.399   3.031  1.7347 -1.9235 -0.9921
  186MOL   H10933779   5.894   0.196   2.769 -1.5545 -0.8399  0.0063
  186MOL   C11033780   5.604   0.366   3.062 -0.2152 -0.1337 -0.4510
  186MOL   C11133781   5.626   0.273   3.185 -0.2734  0.2036 -0.2506
  186MOL   C11233782   5.501   0.201   3.235 -0.2080  0.2288  0.6285
  186MOL   O11333783   5.504   0.078   3.261 -0.7311 -0.4797 -0.3307
  186MOL   O11433784   5.393   0.286   3.256 -0.1778 -0.0545 -0.4764
  186MOL   H11533785   5.515   0.354   3.001 -0.2873 -1.4256 -0.1085
  186MOL   H11633786   5.596   0.459   3.117 -1.1260 -0.3032 -0.2929
  186MOL   H11733787   5.686   0.188   3.151  1.2648  1.7890 -1.5245
  186MOL   H11833788   5.323   0.240   3.300 -0.7092  1.9785  0.8645
  186MOL   C11933789   5.720   0.327   3.302 -0.3351 -0.2965  0.4540
  186MOL   C12033790   5.814   0.221   3.350  0.1528 -0.9811  0.4208
  186MOL   C12133791   5.832   0.234   3.505  0.4299 -0.1208  0.0998
  186MOL   O12233792   5.830   0.341   3.566  0.4621  0.0297  0.0074
  186MOL   O12333793   5.836   0.110   3.566  0.2705 -0.0762  0.5918
  186MOL   H12433794   5.654   0.376   3.374  1.9664  1.4271  1.4863
  186MOL   H12533795   5.775   0.415   3.268 -0.6684  0.1109  0.9487
  186MOL   H12633796   5.768   0.123   3.341  3.2405 -2.5802  1.2755
  186MOL   H12733797   5.825   0.121   3.659 -0.3978  0.8105  0.4075
  186MOL   C12833798   5.949   0.235   3.268 -0.5953 -0.8231 -0.1922
  186MOL   C12933799   6.055   0.122   3.292  0.2268  0.4349 -0.0350
  186MOL   C13033800   6.197   0.160   3.241  0.4377 -0.7120 -0.2014
  186MOL   O13133801   6.222   0.240   3.153 -0.1214  0.1415  0.4921
  186MOL   O13233802   6.290   0.083   3.303 -0.0477  0.1926  0.0500
  186MOL   H13333803   5.998   0.331   3.285 -1.6251  0.0833 -2.1852
  186MOL   H13433804   5.921   0.243   3.163 -1.9796  2.0558  0.3576
  186MOL   H13533805   6.069   0.099   3.398 -2.9562  0.7358  0.5040
  186MOL   H13633806   6.257   0.010   3.352  1.0477  0.4096  1.1473
  186MOL   C13733807   5.987   7.850   3.219 -0.4227 -0.1564  0.0182
  186MOL   C13833808   5.980   7.716   3.311  0.1339 -0.2830  0.0712
  186MOL   C13933809   6.099   7.625   3.292 -1.0486 -0.8436  0.0099
  186MOL   O14033810   6.118   7.533   3.210 -0.0521 -0.4191  0.2321
  186MOL   O14133811   6.195   7.663   3.383  0.0685  0.1092 -0.0989
  186MOL   H14233812   6.016   7.837   3.115  1.5276  0.2433  0.4837
  186MOL   H14333813   5.883   0.022   3.202  0.4065  1.8765 -2.3056
  186MOL   H14433814   5.971   7.756   3.412 -0.2512 -0.0701 -0.0449
  186MOL   H14533815   6.256   7.591   3.372 -0.0077  0.1000 -0.4731
  186MOL   C14633816   5.851   7.629   3.304  0.2895 -0.0802  0.4055
  186MOL   C14733817   5.810   7.571   3.165  0.2632  0.0810  0.0823
  186MOL   C14833818   5.739   7.670   3.073 -0.3648 -0.1679 -0.7042
  186MOL   O14933819   5.782   7.704   2.964  0.5818 -0.4490  0.1677
  186MOL   O15033820   5.622   7.703   3.133  0.0391  0.5475 -0.0782
  186MOL   H15133821   5.764   7.681   3.345  0.6552 -0.0723  1.1840
  186MOL   H15233822   5.865   7.546   3.374  1.1703 -1.7619 -1.6940
  186MOL   H15333823   5.903   7.542   3.115  0.3316 -2.0505  1.4119
  186MOL   H15433824   5.570   7.752   3.071  2.3599  3.1245 -0.1274
  186MOL   C15533825   5.728   7.451   3.192  1.0706 -0.4725 -0.6742
  186MOL   C15633826   5.818   7.323   3.208 -0.3423 -0.4710 -0.3881
  186MOL   C15733827   5.826   7.256   3.067 -0.5817 -0.1110  1.0049
  186MOL   O15833828   5.728   7.196   3.026 -0.1419  0.6719  0.5288
  186MOL   O15933829   5.942   7.274   2.989  0.5586 -0.1301 -0.5060
  186MOL   H16033830   5.660   7.449   3.107 -0.0376 -1.0876  0.2007
  186MOL   H16133831   5.668   7.459   3.283 -1.0684  0.2822 -2.1273
  186MOL   H16233832   5.917   7.361   3.233 -2.4106  3.1484  2.7990
  186MOL   H16333833   5.936   7.241   2.901  0.2404 -0.2987 -0.4226
  186MOL   C16433834   5.782   7.214   3.314 -0.0384 -0.1813  0.2861
  186MOL   C16533835   5.777   7.265   3.461  0.7178  0.0996 -0.2439
  186MOL   C16633836   5.915   7.294   3.520  0.2765 -0.0931 -0.1812
  186MOL   O16733837   5.949   7.410   3.561  0.2721  0.3606  0.1871
  186MOL   O16833838   5.993   7.186   3.511 -0.7062  0.3821 -0.3106
  186MOL   H16933839   5.853   7.132   3.307 -1.1713 -1.1038 -0.7092
  186MOL   H17033840   5.681   7.184   3.284  0.2326 -0.8883  0.0736
  186MOL   H17133841   5.721   7.359   3.454 -1.1994 -1.0766 -0.8750
  186MOL   H17233842   6.084   7.196   3.535 -0.8617  0.0215  0.4534
  186MOL   C17333843   5.695   7.177   3.557 -0.0618 -0.3039  1.3221
  186MOL   C17433844   5.659   7.245   3.696  0.3856 -0.1138  0.9041
  186MOL   C17533845   5.503   7.249   3.714  0.2158  0.7855 -0.1947
  186MOL   O17633846   5.427   7.186   3.641 -0.0639  0.2214  0.2356
  186MOL   O17733847   5.458   7.334   3.804 -0.3458 -0.3595 -0.0100
  186MOL   H17833848   5.754   7.088   3.578  0.5299 -0.4897 -1.0046
  186MOL   H17933849   5.618   7.132   3.494  0.6755 -1.3950  1.1765
  186MOL   H18033850   5.708   7.203   3.784  0.4963  0.4712  1.1250
  186MOL   H18133851   5.365   7.349   3.805 -0.1977  0.6722 -0.8158
  186MOL   H18233852   5.706   7.343   3.691 -0.4605  0.1913 -4.8344
  187MOL     C133853   6.309   0.727   2.243 -0.4453 -0.0388  0.1525
  187MOL     C233854   6.171   0.787   2.273  0.0766  0.0943  0.6871
  187MOL     C333855   6.092   0.689   2.357 -0.1951 -0.3234 -0.0887
  187MOL     O433856   6.010   0.609   2.315 -0.2468 -0.0277 -0.1031
  187MOL     O533857   6.137   0.706   2.485  0.4093  0.1226  0.3078
  187MOL     H633858   6.377   0.738   2.328 -0.7138  0.3346  0.3238
  187MOL     H733859   6.308   0.619   2.227  1.9525 -0.0742  0.1177
  187MOL     H833860   6.193   0.880   2.325  2.7559  0.4437 -0.9484
  187MOL     H933861   6.087   0.653   2.545 -1.2600  1.1980 -0.1055
  187MOL    H1033862   6.351   0.777   2.156 -2.2879  1.2742 -0.0080
  187MOL    C1133863   6.093   0.826   2.147 -0.2948  0.2202  0.3278
  187MOL    C1233864   6.137   0.953   2.065 -0.8044 -0.1848 -0.3204
  187MOL    C1333865   6.047   1.073   2.090  0.5866 -0.2537  0.6856
  187MOL    O1433866   5.953   1.102   2.016 -0.7701 -0.0882  0.4974
  187MOL    O1533867   6.093   1.141   2.197  0.2287 -0.1233  0.0609
  187MOL    H1633868   5.992   0.845   2.184  0.4970  1.0042  2.1336
  187MOL    H1733869   6.081   0.743   2.077 -0.2773  0.9232 -0.5148
  187MOL    H1833870   6.233   0.992   2.099 -0.8797  2.1499 -2.7065
  187MOL    H1933871   6.039   1.216   2.220 -0.8466 -0.1688 -2.1458
  187MOL    C2033872   6.148   0.910   1.911  0.4181  0.0346 -0.5456
  187MOL    C2133873   6.185   1.019   1.806 -1.0522 -0.2883  0.8929
  187MOL    C2233874   6.090   0.999   1.690 -0.3895 -0.7514 -0.5111
  187MOL    O2333875   6.119   0.958   1.579  0.0167 -0.0034  0.5195
  187MOL    O2433876   5.963   1.034   1.728 -0.2948  0.4700 -0.0921
  187MOL    H2533877   6.057   0.859   1.880  1.0742 -1.6870  0.2705
  187MOL    H2633878   6.224   0.831   1.914  0.2477 -0.1036  0.6003
  187MOL    H2733879   6.174   1.114   1.858  1.9714  0.1062  0.8822
  187MOL    H2833880   5.901   1.008   1.661 -1.0886  0.3136  0.6926
  187MOL    C2933881   6.341   1.035   1.762  0.2126 -0.1281  0.3936
  187MOL    C3033882   6.430   1.070   1.880  0.3308 -0.1393  0.1717
  187MOL    C3133883   6.411   1.219   1.909 -0.9564  0.1345 -0.3830
  187MOL    O3233884   6.453   1.310   1.835 -0.6428  0.0094 -0.5549
  187MOL    O3333885   6.348   1.239   2.029  0.3412  0.2780 -0.1650
  187MOL    H3433886   6.347   1.114   1.687  0.9313 -1.2278 -0.7248
  187MOL    H3533887   6.360   0.945   1.704 -0.6525 -0.0984  0.0615
  187MOL    H3633888   6.404   1.010   1.967 -0.5679  0.2560  0.1746
  187MOL    H3733889   6.338   1.331   2.046 -1.3170  0.4558 -1.9936
  187MOL    C3833890   6.582   1.034   1.837  0.2824 -0.1296 -0.1005
  187MOL    C3933891   6.636   0.895   1.872 -0.2699 -0.2989  0.8210
  187MOL    C4033892   6.562   0.780   1.799 -0.0281 -0.3907  0.0470
  187MOL    O4133893   6.493   0.697   1.858  0.7838  0.6157  0.6451
  187MOL    O4233894   6.594   0.765   1.670 -0.0783 -0.3682 -0.3664
  187MOL    H4333895   6.655   1.107   1.874  0.2791 -0.6372  0.9313
  187MOL    H4433896   6.595   1.046   1.730 -1.5678  0.3283 -0.2900
  187MOL    H4533897   6.737   0.886   1.833 -1.2130  3.9427 -3.1296
  187MOL    H4633898   6.542   0.693   1.639 -0.3649  0.0403 -0.8492
  187MOL    C4733899   6.655   0.864   2.030  0.3668  0.0741  0.3045
  187MOL    C4833900   6.760   0.753   2.057  0.0966 -0.3916 -0.0587
  187MOL    C4933901   6.743   0.660   2.173  0.0513 -0.3563 -1.0523
  187MOL    O5033902   6.833   0.632   2.254 -0.1191 -0.1845  0.5413
  187MOL    O5133903   6.613   0.608   2.180 -0.1100 -0.2449  0.0558
  187MOL    H5233904   6.557   0.835   2.065 -0.8023  2.9608 -0.3911
  187MOL    H5333905   6.676   0.954   2.088  1.9977 -0.3102  0.3440
  187MOL    H5433906   6.742   0.684   1.975  0.3548  1.4086 -1.6850
  187MOL    H5533907   6.600   0.541   2.245 -0.6531 -0.4798 -0.2903
  187MOL    C5633908   6.901   0.822   2.037  0.1856  0.5641 -0.7304
  187MOL    C5733909   7.023   0.729   2.020  0.5350 -0.0111  0.5709
  187MOL    C5833910   7.156   0.807   2.046  0.7681 -0.2586 -0.0526
  187MOL    O5933911   7.268   0.753   2.061  0.0133 -0.2706  0.2183
  187MOL    O6033912   7.141   0.943   2.053  0.9087  0.4036 -0.3827
  187MOL    H6133913   6.915   0.877   2.130  0.7826 -1.1547  0.2152
  187MOL    H6233914   6.901   0.901   1.962  0.2355  0.8095 -0.4733
  187MOL    H6333915   7.020   0.659   2.104  0.3084 -0.5945  0.0862
  187MOL    H6433916   7.221   0.992   2.066  0.3110  0.6790  2.5719
  187MOL    C6533917   7.018   0.645   1.885  0.2946 -0.4998  0.2197
  187MOL    C6633918   7.069   0.498   1.885 -0.5741 -0.5201  0.4467
  187MOL    C6733919   7.021   0.413   2.005  0.2741  0.6511 -0.5802
  187MOL    O6833920   7.099   0.355   2.079 -0.8772 -0.0608  0.0656
  187MOL    O6933921   6.885   0.411   2.015 -0.5797  0.0042  0.4952
  187MOL    H7033922   7.077   0.700   1.812  2.6384  0.7096  2.9397
  187MOL    H7133923   6.913   0.645   1.855 -0.0095 -2.9349  1.1714
  187MOL    H7233924   7.020   0.458   1.796  0.1877 -2.3908  0.8535
  187MOL    H7333925   6.855   0.358   2.087  0.7636 -0.4978  0.6984
  187MOL    C7433926   7.218   0.504   1.865 -0.0674 -0.4847  0.2000
  187MOL    C7533927   7.283   0.369   1.819  0.1181  0.0828  0.0078
  187MOL    C7633928   7.438   0.386   1.825  0.2355 -0.4303 -0.5484
  187MOL    O7733929   7.510   0.395   1.728  0.9816 -0.3714  0.4155
  187MOL    O7833930   7.479   0.383   1.954  0.0158 -0.0283 -0.0399
  187MOL    H7933931   7.264   0.527   1.962  0.4988  2.3578 -0.7099
  187MOL    H8033932   7.243   0.583   1.794 -1.9538  0.5117  0.6172
  187MOL    H8133933   7.255   0.294   1.893  1.4662 -1.6940 -1.2495
  187MOL    H8233934   7.571   0.389   1.937 -0.0358 -0.1688 -0.3640
  187MOL    C8333935   7.232   0.329   1.676 -0.9286 -0.1733 -0.1285
  187MOL    C8433936   7.140   0.194   1.671 -0.3880 -0.2813 -0.8190
  187MOL    C8533937   7.200   0.066   1.734  0.1314  0.7790  0.1643
  187MOL    O8633938   7.148   7.846   1.817  0.6566  0.2387  0.5708
  187MOL    O8733939   7.331   0.048   1.694  0.3410 -0.6524 -0.3129
  187MOL    H8833940   7.308   0.320   1.598 -1.7075  0.4499 -0.9775
  187MOL    H8933941   7.172   0.408   1.631 -2.1687 -1.2360 -0.3567
  187MOL    H9033942   7.038   0.203   1.711  0.2920 -0.6374  1.0375
  187MOL    H9133943   7.367   7.844   1.760 -1.0613 -0.6983  0.4323
  187MOL    C9233944   7.115   0.157   1.527  0.0102  0.9386 -0.4174
  187MOL    C9333945   7.028   0.258   1.440  0.6607  0.6508  0.0800
  187MOL    C9433946   6.896   0.190   1.386 -0.2494 -0.1882  0.8487
  187MOL    O9533947   6.897   0.079   1.333  0.0750 -0.0468  0.4842
  187MOL    O9633948   6.788   0.265   1.404  0.4007  0.8497 -0.2049
  187MOL    H9733949   7.071   0.058   1.519  1.7380  0.1351 -0.1461
  187MOL    H9833950   7.212   0.155   1.476  0.1510  0.5612 -0.1393
  187MOL    H9933951   6.992   0.337   1.506 -1.5077  0.3345 -0.6889
  187MOL   H10033952   6.711   0.225   1.367  0.5137 -0.0119  0.4564
  187MOL   C10133953   7.109   0.331   1.333  0.0296 -0.5151  0.5209
  187MOL   C10233954   7.035   0.442   1.246 -0.0443 -0.4492 -0.0362
  187MOL   C10333955   7.038   0.402   1.093 -0.1809  0.2898  0.3553
  187MOL   O10433956   7.145   0.406   1.038  0.3385 -0.5955  0.0299
  187MOL   O10533957   6.918   0.376   1.043 -0.2764 -0.6117 -0.0892
  187MOL   H10633958   7.169   0.270   1.266 -1.0916 -0.1742 -0.8313
  187MOL   H10733959   7.192   0.385   1.377 -0.2995 -0.1044  0.6404
  187MOL   H10833960   6.930   0.432   1.272 -0.3486  2.4914 -0.0115
  187MOL   H10933961   6.910   0.357   0.950 -5.6948  1.3977 -0.2331
  187MOL   C11033962   7.074   0.590   1.284  0.3123  0.1532  0.3383
  187MOL   C11133963   7.029   0.637   1.429 -0.5290 -0.8141 -0.3163
  187MOL   C11233964   6.880   0.657   1.456 -1.0257 -0.2056  0.7749
  187MOL   O11333965   6.828   0.656   1.564  0.5615 -0.0730  0.0886
  187MOL   O11433966   6.812   0.668   1.341 -0.5243  0.0400 -0.4032
  187MOL   H11533967   7.019   0.647   1.209  2.6873  0.6889 -1.0397
  187MOL   H11633968   7.182   0.599   1.275  0.1255  0.3309 -2.0779
  187MOL   H11733969   7.054   0.554   1.495  3.7538  0.1047 -0.6462
  187MOL   H11833970   6.721   0.689   1.356 -0.2455  0.6541  0.4921
  187MOL   C11933971   7.105   0.757   1.478 -0.1840  0.3239 -0.4181
  187MOL   C12033972   7.068   0.895   1.409 -0.0270  0.2872 -0.3965
  187MOL   C12133973   7.124   0.897   1.264  0.1864 -0.2934  1.0322
  187MOL   O12233974   7.051   0.913   1.166  0.5155  0.3715  0.7302
  187MOL   O12333975   7.259   0.892   1.263 -0.3682  0.3860 -0.4332
  187MOL   H12433976   7.212   0.741   1.472 -0.2303 -0.2911  0.3671
  187MOL   H12533977   7.075   0.766   1.582  0.7468 -2.1799  0.1001
  187MOL   H12633978   6.961   0.905   1.392  0.3444  3.3299 -1.2048
  187MOL   H12733979   7.294   0.879   1.177 -1.9957 -2.1008 -0.7673
  187MOL   C12833980   7.121   1.017   1.490  0.4481 -0.3738  0.2410
  187MOL   C12933981   7.106   1.019   1.653 -0.4387  0.5457  0.3616
  187MOL   C13033982   6.960   1.036   1.704 -0.2366 -0.6546  0.3449
  187MOL   O13133983   6.926   1.102   1.802 -0.2192 -0.2738 -0.2074
  187MOL   O13233984   6.871   0.950   1.636 -0.0723 -0.4346 -0.4191
  187MOL   H13333985   7.064   1.105   1.462  0.9161 -0.0310  0.3614
  187MOL   H13433986   7.227   1.030   1.467  0.4152 -0.1463  0.2179
  187MOL   H13533987   7.137   0.924   1.698  0.4802  0.8021  0.2826
  187MOL   H13633988   6.787   0.964   1.677  0.1043 -1.5004  0.3176
  187MOL   C13733989   7.198   1.132   1.707 -0.4227  0.1737 -0.9692
  187MOL   C13833990   7.353   1.109   1.711 -0.6106  0.6492 -0.5531
  187MOL   C13933991   7.395   0.990   1.793  0.2024 -0.1397  0.0745
  187MOL   O14033992   7.437   0.995   1.906  0.2966  0.2722  0.0278
  187MOL   O14133993   7.360   0.878   1.737  0.4024  0.2172  0.2238
  187MOL   H14233994   7.157   1.170   1.801 -0.7439  0.2734 -1.1511
  187MOL   H14333995   7.185   1.219   1.644 -0.3158  0.6165 -0.3844
  187MOL   H14433996   7.384   1.092   1.608 -0.3530  2.1765 -0.7437
  187MOL   H14533997   7.381   0.811   1.799 -1.0901 -0.1518  0.3412
  187MOL   C14633998   7.431   1.233   1.767  0.4554 -0.4128  0.8054
  187MOL   C14733999   7.582   1.238   1.735 -0.1423  0.3180 -0.7464
  187MOL   C14834000   7.667   1.335   1.826 -0.3879 -0.3772 -0.0500
  187MOL   O14934001   7.774   1.295   1.877  0.0423 -0.1877  0.1363
  187MOL   O15034002   7.616   1.466   1.839  0.2727  0.4875  0.1170
  187MOL   H15134003   7.426   1.223   1.875 -1.3699 -0.0528  0.7641
  187MOL   H15234004   7.383   1.328   1.744  1.8428  0.2921  0.8002
  187MOL   H15334005   7.620   1.141   1.768  2.4366  1.4560 -0.2260
  187MOL   H15434006   7.674   1.518   1.892 -0.7787  1.5388  0.2649
  187MOL   C15534007   7.615   1.268   1.582  0.3263  0.1874  0.1573
  187MOL   C15634008   7.676   1.154   1.506  1.8199 -0.2389  0.0871
  187MOL   C15734009   7.819   1.135   1.540 -0.3639 -1.1995 -0.0635
  187MOL   O15834010   0.011   1.039   1.603  0.4579 -0.6395 -0.2018
  187MOL   O15934011   0.043   1.249   1.515  0.1332  0.3213  0.2287
  187MOL   H16034012   7.674   1.359   1.580  1.3776 -0.4729  0.9606
  187MOL   H16134013   7.523   1.292   1.529 -0.8933  2.7057  3.2417
  187MOL   H16234014   7.623   1.065   1.541  0.0300  0.4397 -0.8357
  187MOL   H16334015   0.118   1.236   1.570  0.2706  1.6890  0.3939
  187MOL   C16434016   7.649   1.160   1.354  0.5949  0.2183  0.0036
  187MOL   C16534017   7.543   1.063   1.289 -0.2767 -0.3100 -0.2533
  187MOL   C16634018   7.597   0.919   1.277  0.5748  0.1184  0.3820
  187MOL   O16734019   7.611   0.857   1.172 -0.1102  0.6669 -0.1118
  187MOL   O16834020   7.612   0.862   1.403  0.6819  0.7056  0.5468
  187MOL   H16934021   7.742   1.140   1.301 -0.4526  1.1044 -2.2802
  187MOL   H17034022   7.618   1.264   1.342  1.3380  0.5983  1.3649
  187MOL   H17134023   7.459   1.053   1.358 -1.8317  1.3436 -1.8388
  187MOL   H17234024   7.618   0.767   1.405  0.3447  0.7036  1.5652
  187MOL   C17334025   7.477   1.114   1.159 -0.0542  0.0114  0.1781
  187MOL   C17434026   7.581   1.172   1.063  0.2055 -0.1322 -0.4730
  187MOL   C17534027   7.524   1.209   0.924  0.1127  1.0030 -0.1815
  187MOL   O17634028   7.432   1.156   0.860  0.0606 -0.1270 -0.6303
  187MOL   O17734029   7.575   1.329   0.888  0.0024  0.0565 -0.0356
  187MOL   H17834030   7.408   1.193   1.186 -0.0543 -0.0419  0.3317
  187MOL   H17934031   7.412   1.037   1.117  2.5751 -1.8475 -0.6145
  187MOL   H18034032   7.635   1.253   1.114  3.3598 -1.9317 -0.8280
  187MOL   H18134033   7.529   1.347   0.807  1.3284  0.4898 -0.7063
  187MOL   H18234034   7.666   1.105   1.050  0.7557  0.0361  1.9969
  188MOL     C134035   3.276   6.494   7.715 -0.3686  0.0994  0.4291
  188MOL     C234036   3.431   6.478   7.686  0.0413  0.0560  0.0013
  188MOL     C334037   3.506   6.491   7.823 -0.2186  0.0583 -0.3021
  188MOL     O434038   3.588   6.576   7.849  0.5818 -0.2038 -0.5845
  188MOL     O534039   3.472   6.385   0.051  0.0628 -0.5543 -0.0017
  188MOL     H634040   3.223   6.458   7.627 -2.6327  0.0473  1.7524
  188MOL     H734041   3.244   6.436   7.802  0.0269 -0.0173  0.4975
  188MOL     H834042   3.449   6.374   7.660  1.5052  0.6642 -1.4845
  188MOL     H934043   3.405   6.333   0.010  0.5064 -1.1512  0.0320
  188MOL    H1034044   3.246   6.598   7.726 -3.1704 -0.7998  1.9729
  188MOL    C1134045   3.494   6.574   7.579 -0.1128 -0.2175 -0.5302
  188MOL    C1234046   3.479   6.536   7.430 -0.2598  0.1080 -0.6622
  188MOL    C1334047   3.548   6.398   7.393  0.3292 -0.1186  1.3067
  188MOL    O1434048   3.666   6.367   7.419 -0.1849  0.0327 -0.2449
  188MOL    O1534049   3.468   6.310   7.323  0.0240 -0.4034  0.1139
  188MOL    H1634050   3.597   6.606   7.597 -0.5862  0.1698  1.6129
  188MOL    H1734051   3.451   6.674   7.590  0.2311  0.1597 -2.4618
  188MOL    H1834052   3.373   6.513   7.416 -0.2627  0.0088 -0.4780
  188MOL    H1934053   3.519   6.236   7.296 -0.4175 -0.1933 -1.3494
  188MOL    C2034054   3.505   6.656   7.337  0.5953 -0.1217 -0.1353
  188MOL    C2134055   3.500   6.621   7.186 -0.2413  0.4353 -0.1249
  188MOL    C2234056   3.552   6.748   7.115 -0.1084  1.3719 -0.1395
  188MOL    O2334057   3.474   6.819   7.053 -0.4245 -0.0944  0.4725
  188MOL    O2434058   3.685   6.764   7.123 -0.4823 -0.0989  0.0362
  188MOL    H2534059   3.600   6.704   7.360  1.3090 -2.9369  3.2296
  188MOL    H2634060   3.426   6.728   7.360  1.2341  0.7078 -0.5240
  188MOL    H2734061   3.566   6.543   7.149 -0.3191 -0.6460  1.9148
  188MOL    H2834062   3.718   6.839   7.075 -0.2024  0.0740  0.5023
  188MOL    C2934063   3.360   6.588   7.139  0.3911  0.0061  0.3077
  188MOL    C3034064   3.333   6.499   7.013 -0.6211 -0.4355  0.3760
  188MOL    C3134065   3.431   6.509   6.898  0.0927 -0.2164  0.3605
  188MOL    O3234066   3.505   6.417   6.868 -0.0244  0.0507 -0.4152
  188MOL    O3334067   3.414   6.623   6.818  0.2808  0.6766  0.4402
  188MOL    H3434068   3.306   6.682   7.127  0.9065  0.4019  1.0447
  188MOL    H3534069   3.303   6.541   7.220 -0.7891  0.3884 -0.2917
  188MOL    H3634070   3.348   6.401   7.058 -2.1281 -0.7001  0.3252
  188MOL    H3734071   3.469   6.611   6.742 -0.5975 -1.7178  0.1623
  188MOL    C3834072   3.181   6.512   6.967  0.2361  0.3521 -0.2336
  188MOL    C3934073   3.126   6.386   6.892 -0.3913 -0.6115 -0.2033
  188MOL    C4034074   3.019   6.425   6.793 -0.4205  0.1996 -0.4253
  188MOL    O4134075   2.905   6.456   6.826  0.2271 -0.5877  0.7080
  188MOL    O4234076   3.064   6.430   6.663 -0.4994  0.0019  0.0722
  188MOL    H4334077   3.185   6.596   6.898  1.7581 -1.1094 -2.0148
  188MOL    H4434078   3.116   6.542   7.048 -0.2648 -0.6695 -0.2462
  188MOL    H4534079   3.211   6.359   6.829 -1.2819  1.2737 -2.3151
  188MOL    H4634080   2.993   6.446   6.603 -1.4916  1.2394  1.5503
  188MOL    C4734081   3.080   6.270   6.987 -0.4528 -0.1178 -0.2586
  188MOL    C4834082   3.071   6.121   6.931  0.0846  0.1694  0.0056
  188MOL    C4934083   3.187   6.079   6.836  0.0921 -0.3024  0.4468
  188MOL    O5034084   3.183   6.027   6.722  0.0096  0.7641 -0.4028
  188MOL    O5134085   3.299   6.106   6.905 -0.1574  0.4906  1.1110
  188MOL    H5234086   3.000   6.307   7.052  1.5417  0.2232  2.0550
  188MOL    H5334087   3.159   6.266   7.062  0.3426 -3.4705 -1.1970
  188MOL    H5434088   3.080   6.064   7.023 -1.2107  1.7187  1.1242
  188MOL    H5534089   3.375   6.060   6.871 -0.1738  2.9911 -2.5728
  188MOL    C5634090   2.932   6.095   6.875 -0.4412  0.1965 -1.0223
  188MOL    C5734091   2.802   6.131   6.952 -0.0955 -0.1264  0.1629
  188MOL    C5834092   2.801   6.073   7.097  0.1602 -0.1193  0.5149
  188MOL    O5934093   2.818   5.953   7.112  0.2404  0.1486 -0.0577
  188MOL    O6034094   2.798   6.168   7.195  0.1670 -0.3935  0.7387
  188MOL    H6134095   2.933   5.988   6.853 -0.0373 -0.2809  1.1820
  188MOL    H6234096   2.934   6.146   6.779  0.5209 -1.7437 -2.0729
  188MOL    H6334097   2.804   6.239   6.966 -1.4594 -0.3555  2.3241
  188MOL    H6434098   2.786   6.248   7.146 -0.8885 -2.3763 -2.3738
  188MOL    C6534099   2.671   6.093   6.872  0.5341  0.4786  0.3935
  188MOL    C6634100   2.615   6.201   6.774 -0.1972  0.4891  0.5177
  188MOL    C6734101   2.538   6.313   6.838 -0.5501  0.6494  0.0143
  188MOL    O6834102   2.454   6.379   6.784  0.0005  0.4222 -0.3156
  188MOL    O6934103   2.582   6.332   6.965 -0.5234 -0.0696  0.2070
  188MOL    H7034104   2.587   6.054   6.928  0.8894  0.4427  0.9055
  188MOL    H7134105   2.692   6.005   6.810 -0.3908 -0.3721  1.2763
  188MOL    H7234106   2.701   6.246   6.725 -0.3128 -1.0101 -1.1215
  188MOL    H7334107   2.540   6.403   7.011 -1.8726  0.4982 -1.7978
  188MOL    C7434108   2.541   6.152   6.649  0.2559  0.1459 -0.3427
  188MOL    C7534109   2.393   6.089   6.660  0.6901 -1.0463 -0.4841
  188MOL    C7634110   2.380   5.934   6.652 -0.7954 -0.8034  0.7624
  188MOL    O7734111   2.356   5.861   6.556 -0.1619  0.1520 -0.0158
  188MOL    O7834112   2.429   5.884   6.767 -0.0472 -0.4498  0.1590
  188MOL    H7934113   2.603   6.084   6.591  1.2127  0.0318  0.8002
  188MOL    H8034114   2.525   6.235   6.579  0.5243  0.6710  0.2153
  188MOL    H8134115   2.369   6.108   6.765  0.4579  0.7615 -0.8505
  188MOL    H8234116   2.453   5.795   6.745 -0.8109 -0.5022 -0.5030
  188MOL    C8334117   2.286   6.168   6.576 -0.3487  0.1930 -0.1822
  188MOL    C8434118   2.136   6.131   6.597 -0.1878  0.8606  0.2040
  188MOL    C8534119   2.052   6.208   6.497  0.7038  0.5599  0.1942
  188MOL    O8634120   2.092   6.301   6.432 -0.3557  0.7786 -0.2495
  188MOL    O8734121   1.931   6.148   6.487  0.2070  0.0357  0.2579
  188MOL    H8834122   2.312   6.154   6.471 -0.5257 -0.5347 -0.1378
  188MOL    H8934123   2.295   6.273   6.600  1.6942 -0.3657  1.6395
  188MOL    H9034124   2.125   6.027   6.565 -0.6726  0.7335  0.7835
  188MOL    H9134125   1.879   6.194   6.424  1.0206 -0.2384 -0.6325
  188MOL    C9234126   2.084   6.159   6.740  0.3200  1.5746  1.0911
  188MOL    C9334127   2.023   6.046   6.819  0.7515  0.4781  0.6968
  188MOL    C9434128   1.882   6.005   6.776 -0.5655 -0.3316 -0.9697
  188MOL    O9534129   1.793   6.088   6.758  0.3126  0.5562 -0.8127
  188MOL    O9634130   1.861   5.871   6.783  0.1655 -0.2494 -0.0204
  188MOL    H9734131   2.016   6.244   6.743 -1.2967  0.5191 -2.4543
  188MOL    H9834132   2.167   6.197   6.800 -0.0575  2.7102  0.8908
  188MOL    H9934133   2.085   5.963   6.785 -0.3191 -0.4346  0.9330
  188MOL   H10034134   1.769   5.853   6.794  0.4048 -1.6987 -0.3413
  188MOL   C10134135   2.033   6.058   6.975  0.2140 -0.0382  0.4991
  188MOL   C10234136   1.963   6.178   7.042  0.4069 -0.1062  0.0728
  188MOL   C10334137   2.064   6.298   7.062  0.2028 -0.9170  0.4750
  188MOL   O10434138   2.183   6.290   7.049 -0.4863  0.0018  0.3922
  188MOL   O10534139   1.994   6.407   7.105 -0.6100 -0.0224 -0.3463
  188MOL   H10634140   2.138   6.056   7.004 -0.1763  1.8611  2.1540
  188MOL   H10734141   1.991   5.964   7.013 -0.6673  0.7369  1.4688
  188MOL   H10834142   1.875   6.210   6.986 -1.6143 -0.8613  2.7285
  188MOL   H10934143   2.042   6.488   7.101 -0.0376 -0.3533 -0.2027
  188MOL   C11034144   1.906   6.137   7.186  0.6105 -0.1790  0.2436
  188MOL   C11134145   1.788   6.035   7.188  0.1837  1.1622 -0.1268
  188MOL   C11234146   1.667   6.086   7.109  0.1182 -0.0410  0.2016
  188MOL   O11334147   1.607   6.023   7.025  0.2513  0.0232 -0.1948
  188MOL   O11434148   1.627   6.206   7.151  0.1810  0.7057  0.1304
  188MOL   H11534149   1.880   6.228   7.240 -0.1792 -0.2144 -0.0768
  188MOL   H11634150   1.990   6.096   7.242  1.9018  0.7709 -0.9566
  188MOL   H11734151   1.821   5.936   7.154 -3.0262  0.3022 -0.8934
  188MOL   H11834152   1.553   6.228   7.096 -1.1166 -0.4505  1.3900
  188MOL   C11934153   1.742   6.026   7.336  0.6648  0.5200 -0.4676
  188MOL   C12034154   1.828   5.955   7.445  0.5294  0.1948 -0.4011
  188MOL   C12134155   1.809   5.803   7.427 -0.0570  0.0845 -0.3088
  188MOL   O12234156   1.885   5.736   7.353 -0.2232 -0.1900 -0.1466
  188MOL   O12334157   1.698   5.756   7.491 -0.7032  0.0525 -0.3131
  188MOL   H12434158   1.647   5.974   7.350  1.5392 -0.6893  1.0711
  188MOL   H12534159   1.719   6.126   7.374  1.3586  0.8839 -0.9909
  188MOL   H12634160   1.932   5.981   7.422  0.4182  0.7682 -0.2643
  188MOL   H12734161   1.698   5.661   7.497 -0.1679  0.0891  0.3451
  188MOL   C12834162   1.800   5.992   7.592  0.9104 -0.3151  0.3217
  188MOL   C12934163   1.925   5.997   7.685 -0.2854 -0.1654 -0.6822
  188MOL   C13034164   2.023   5.873   7.691 -0.6473 -0.3771  0.1107
  188MOL   O13134165   2.143   5.890   7.701 -0.6295  0.1133  0.3517
  188MOL   O13234166   1.959   5.757   7.699  0.0512  0.2244  0.2809
  188MOL   H13334167   1.719   5.932   7.635  0.0075  0.3436 -0.4406
  188MOL   H13434168   1.762   6.094   7.589 -1.3390 -1.1311  0.1290
  188MOL   H13534169   1.992   6.077   7.652 -1.2552 -0.4880 -3.5487
  188MOL   H13634170   2.014   5.680   7.700  0.1148  0.2701  0.3701
  188MOL   C13734171   1.896   6.039   7.830 -0.0824 -0.0106  0.1490
  188MOL   C13834172   1.796   5.954   0.059  0.7147  0.2922  0.6119
  188MOL   C13934173   1.655   6.010   0.053  0.2844 -0.5995 -0.4418
  188MOL   O14034174   1.562   5.949   7.849 -0.6567 -0.2998  0.3030
  188MOL   O14134175   1.643   6.132   0.109  0.3302  0.0246  0.2225
  188MOL   H14234176   1.846   6.135   7.820 -1.5896 -0.5747  1.9699
  188MOL   H14334177   1.986   6.058   0.035 -1.1714 -1.8561  2.5735
  188MOL   H14434178   1.793   5.855   0.014 -2.5226  0.6926 -0.2040
  188MOL   H14534179   1.552   6.157   0.104 -0.1976 -2.2246 -3.9812
  188MOL   C14634180   1.842   5.928   0.202 -0.0264  0.4929 -0.0683
  188MOL   C14734181   1.779   5.812   0.290  0.2313 -0.3648  0.4231
  188MOL   C14834182   1.833   5.809   0.432 -0.1955  0.4722 -0.2277
  188MOL   O14934183   1.941   5.856   0.476  0.2743 -0.0244 -0.2542
  188MOL   O15034184   1.743   5.737   0.512 -0.1513  0.7372  0.0033
  188MOL   H15134185   1.848   6.023   0.254 -2.6240  0.7132 -0.0930
  188MOL   H15234186   1.948   5.910   0.186 -0.3638 -1.6237 -0.0294
  188MOL   H15334187   1.677   5.843   0.315  1.2789  3.2355  0.5949
  188MOL   H15434188   1.763   5.736   0.604  0.2629 -2.2655 -0.0635
  188MOL   C15534189   1.801   5.670   0.229 -0.0855 -0.2199 -0.3549
  188MOL   C15634190   1.679   5.611   0.157 -0.6251  0.3697  0.4838
  188MOL   C15734191   1.547   5.613   0.237 -0.1334  0.5994 -0.3311
  188MOL   O15834192   1.513   5.518   0.308 -0.0165  0.1063 -0.3324
  188MOL   O15934193   1.482   5.726   0.222 -0.4251 -0.3668 -0.0422
  188MOL   H16034194   1.816   5.591   0.303 -0.3120  0.5892  0.5593
  188MOL   H16134195   1.892   5.663   0.170 -0.5965  0.3704 -1.2276
  188MOL   H16234196   1.656   5.675   0.072 -2.7463 -0.0817  0.6826
  188MOL   H16334197   1.403   5.736   0.273 -1.6492  2.5584 -2.3575
  188MOL   C16434198   1.714   5.465   0.111  0.4756  0.2451  0.5676
  188MOL   C16534199   1.648   5.412   7.839  0.5887  0.1138 -0.2114
  188MOL   C16634200   1.504   5.363   0.002  0.1185 -0.5069 -0.1026
  188MOL   O16734201   1.472   5.290   0.090 -0.0793 -0.9504  0.2672
  188MOL   O16834202   1.420   5.409   7.759  0.2716 -0.2934 -0.1678
  188MOL   H16934203   1.706   5.395   0.195  2.7676 -0.3372  0.3467
  188MOL   H17034204   1.821   5.473   0.089  0.4001 -0.2949 -0.0084
  188MOL   H17134205   1.658   5.490   7.763 -0.8979 -0.7406 -1.3102
  188MOL   H17234206   1.330   5.382   7.768  0.1392  0.1737 -0.0860
  188MOL   C17334207   1.729   5.290   7.780  0.1634  0.1332 -0.0744
  188MOL   C17434208   1.690   5.231   7.643 -0.0349  0.1534  0.2701
  188MOL   C17534209   1.701   5.327   7.526 -0.1799  0.2247  0.0582
  188MOL   O17634210   1.737   5.441   7.536  0.1898  0.4287 -0.4084
  188MOL   O17734211   1.663   5.271   7.407  0.8649  0.2064  0.2602
  188MOL   H17834212   1.740   5.205   7.848  0.9596 -0.7722 -1.2937
  188MOL   H17934213   1.836   5.312   7.777  0.3942 -0.9243 -0.1619
  188MOL   H18034214   1.759   5.151   7.616 -0.9904 -1.1738  1.6697
  188MOL   H18134215   1.674   5.340   7.344  2.1373  0.6703  0.9509
  188MOL   H18234216   1.584   5.205   7.640 -0.0610  0.2448  0.4085
  189MOL     C134217   0.980   5.497   1.626 -0.1921  0.4412  0.1169
  189MOL     C234218   0.999   5.635   1.564 -0.4060 -0.5691 -0.2708
  189MOL     C334219   0.981   5.639   1.413 -0.0800 -0.4210  0.1883
  189MOL     O434220   1.053   5.703   1.332 -0.0975 -0.0246 -0.4705
  189MOL     O534221   0.879   5.561   1.371 -0.0511 -0.3881  0.6097
  189MOL     H634222   1.050   5.417   1.600 -3.5914 -1.9950 -2.0140
  189MOL     H734223   0.976   5.499   1.735 -0.0344 -1.5990  0.1901
  189MOL     H834224   0.908   5.690   1.589  0.0336 -1.1678  2.9224
  189MOL     H934225   0.852   5.570   1.281  3.1452  3.2112 -0.1339
  189MOL    H1034226   0.888   5.449   1.592  0.8507  0.8848 -3.5393
  189MOL    C1134227   1.127   5.703   1.620  0.3603  0.0735  0.1046
  189MOL    C1234228   1.271   5.649   1.575  0.0998  0.8839 -0.2199
  189MOL    C1334229   1.312   5.527   1.660  0.2662  0.9547 -0.0054
  189MOL    O1434230   1.310   5.411   1.618 -0.4129  0.1061  0.1014
  189MOL    O1534231   1.345   5.575   1.785 -0.4257  0.1206  0.0415
  189MOL    H1634232   1.137   5.725   1.726  0.9805  1.5619 -0.2391
  189MOL    H1734233   1.125   5.806   1.585 -0.7908  0.0390  0.0473
  189MOL    H1834234   1.253   5.626   1.470 -0.5430 -0.8016  0.2333
  189MOL    H1934235   1.378   5.504   1.837  1.7310  1.4260  0.5110
  189MOL    C2034236   1.380   5.756   1.577 -0.1414  0.1133  0.6805
  189MOL    C2134237   1.512   5.724   1.511 -0.5571 -0.7322  0.6362
  189MOL    C2234238   1.607   5.841   1.539 -0.2357  0.6452  0.5155
  189MOL    O2334239   1.667   5.905   1.454  0.8427  0.4934 -0.0192
  189MOL    O2434240   1.620   5.875   1.668 -0.4540  0.2019  0.1493
  189MOL    H2534241   1.387   5.808   1.672 -0.2060 -0.0844  0.7928
  189MOL    H2634242   1.339   5.838   1.517  0.1409 -0.2562 -0.0269
  189MOL    H2734243   1.552   5.636   1.560  2.0762 -0.3106 -0.6793
  189MOL    H2834244   1.695   5.932   1.664 -0.4440  0.2162  0.5379
  189MOL    C2934245   1.498   5.687   1.358 -0.6502  0.1073 -0.3230
  189MOL    C3034246   1.568   5.560   1.309 -0.5321 -0.3873 -0.1406
  189MOL    C3134247   1.481   5.438   1.351 -0.3374  0.3491  0.0418
  189MOL    O3234248   1.528   5.350   1.423 -0.1061 -0.0050  0.0198
  189MOL    O3334249   1.356   5.439   1.304 -0.7912 -0.5428  0.2605
  189MOL    H3434250   1.540   5.766   1.295  0.2062 -1.4800 -1.7912
  189MOL    H3534251   1.395   5.699   1.323 -0.6950 -0.7761 -0.5098
  189MOL    H3634252   1.549   5.566   1.202 -1.5257 -1.1062 -0.0091
  189MOL    H3734253   1.299   5.376   1.344  0.4510  0.3986  3.6476
  189MOL    C3834254   1.720   5.560   1.336  0.1493 -0.8009  0.1544
  189MOL    C3934255   1.801   5.482   1.234 -0.0172  0.2801 -0.6575
  189MOL    C4034256   1.802   5.329   1.264 -0.6673  0.1363 -0.5212
  189MOL    O4134257   1.879   5.281   1.346 -0.4285  0.1711  0.0139
  189MOL    O4234258   1.705   5.259   1.202 -0.5612 -0.4437 -0.3816
  189MOL    H4334259   1.735   5.515   1.434  0.3196  1.3142  1.1127
  189MOL    H4434260   1.749   5.664   1.346 -2.0357 -0.3474  2.3754
  189MOL    H4534261   1.762   5.496   1.133 -0.9398  1.9193 -0.0950
  189MOL    H4634262   1.703   5.179   1.253  0.0849 -2.1255 -2.9057
  189MOL    C4734263   1.946   5.538   1.222 -0.8427  0.4089  0.1031
  189MOL    C4834264   2.036   5.497   1.101  0.6134 -0.1585 -0.5677
  189MOL    C4934265   2.185   5.512   1.134  0.1550 -0.4802 -0.6140
  189MOL    O5034266   2.259   5.609   1.107 -0.0266 -0.5226 -0.4299
  189MOL    O5134267   2.235   5.401   1.199 -0.2819  0.3508  0.0891
  189MOL    H5234268   1.997   5.505   1.312 -0.0084  0.8043 -0.2103
  189MOL    H5334269   1.940   5.647   1.225 -1.2546  0.3932 -0.0681
  189MOL    H5434270   2.023   5.390   1.089 -3.1147 -0.0327  1.4901
  189MOL    H5534271   2.326   5.397   1.224  0.0452  0.2860 -1.0665
  189MOL    C5634272   1.998   5.573   0.977 -0.6631  0.6558 -0.1130
  189MOL    C5734273   2.026   5.508   0.834  0.0755 -0.5910 -0.1176
  189MOL    C5834274   2.003   5.625   0.732  0.4922  0.9748 -0.0147
  189MOL    O5934275   1.909   5.703   0.739  0.2983 -0.2442 -0.1451
  189MOL    O6034276   2.092   5.616   0.632 -0.3803  0.2447 -0.2474
  189MOL    H6134277   2.052   5.668   0.977  0.0195  0.2730 -1.2793
  189MOL    H6234278   1.894   5.603   0.991 -0.9751 -0.5066  0.0914
  189MOL    H6334279   2.128   5.473   0.845  0.0972 -0.5314 -0.1250
  189MOL    H6434280   2.097   5.683   0.565 -0.8813  0.1752 -0.3568
  189MOL    C6534281   1.950   5.378   0.805 -0.3732  0.5418  0.2265
  189MOL    C6634282   2.031   5.247   0.784  0.2885 -0.5302  0.2766
  189MOL    C6734283   2.138   5.272   0.671 -0.3357 -0.5075  0.0984
  189MOL    O6834284   2.111   5.323   0.563  0.3728 -0.1623  0.2653
  189MOL    O6934285   2.268   5.240   0.706  0.2159 -0.6490 -0.9627
  189MOL    H7034286   1.879   5.395   0.724 -0.5277 -1.1440 -0.0047
  189MOL    H7134287   1.890   5.362   0.895  1.7295 -0.9717  1.4045
  189MOL    H7234288   2.087   5.229   0.876 -0.4576  1.0535  1.0628
  189MOL    H7334289   2.282   5.232   0.799  2.9276  1.9323 -1.0862
  189MOL    C7434290   1.939   5.123   0.750  0.6319 -0.2644 -0.2561
  189MOL    C7534291   1.990   4.977   0.748 -0.5915 -0.8750  0.0809
  189MOL    C7634292   1.876   4.874   0.705  0.1861 -0.3328 -0.4007
  189MOL    O7734293   1.787   4.836   0.780 -0.5964  0.2758  0.0654
  189MOL    O7834294   1.888   4.850   0.576  1.0423 -0.6489 -0.3423
  189MOL    H7934295   1.894   5.139   0.652 -0.9237 -0.1502  0.4551
  189MOL    H8034296   1.851   5.123   0.815  1.5526 -0.4397  1.0128
  189MOL    H8134297   2.066   4.975   0.669  1.9354  1.1459  2.3940
  189MOL    H8234298   1.811   4.801   0.549  0.3185  1.1586 -1.7123
  189MOL    C8334299   2.060   4.929   0.880 -1.0186  0.4913 -0.7710
  189MOL    C8434300   2.200   4.869   0.884  0.0664 -0.1269  0.2569
  189MOL    C8534301   2.221   4.734   0.813  0.0197 -0.7317 -0.1484
  189MOL    O8634302   2.132   4.668   0.757 -0.1186 -0.1826 -0.3252
  189MOL    O8734303   2.350   4.691   0.821 -0.0969  0.4221  0.1075
  189MOL    H8834304   1.999   4.871   0.949 -2.3184  2.1940 -0.4501
  189MOL    H8934305   2.074   5.022   0.937  0.0365 -0.0677 -0.1002
  189MOL    H9034306   2.275   4.929   0.832 -0.2484  0.3039  0.2975
  189MOL    H9134307   2.366   4.608   0.780 -0.9730  0.5669 -0.5423
  189MOL    C9234308   2.243   4.854   1.031 -0.2739  0.3098 -0.9354
  189MOL    C9334309   2.345   4.956   1.083 -0.3173  0.4140 -0.2161
  189MOL    C9434310   2.287   5.094   1.070  0.3823 -0.0279  0.1100
  189MOL    O9534311   2.316   5.172   0.976 -0.4561  0.5849  0.2450
  189MOL    O9634312   2.212   5.127   1.174  0.1877 -0.2092  0.3964
  189MOL    H9734313   2.284   4.756   1.055 -1.9146 -0.2885 -0.5294
  189MOL    H9834314   2.157   4.872   1.095  0.0028 -0.6753 -0.2740
  189MOL    H9934315   2.356   4.943   1.190 -3.6447 -0.5691  0.0698
  189MOL   H10034316   2.183   5.217   1.176 -1.2204 -0.6485 -0.2961
  189MOL   C10134317   2.485   4.934   1.013 -0.0508  0.5565  0.0610
  189MOL   C10234318   2.568   4.827   1.092  0.1308 -0.3374 -0.4616
  189MOL   C10334319   2.628   4.877   1.224  0.6954 -0.2043 -0.4866
  189MOL   O10434320   2.733   4.935   1.233  0.1558  0.1986 -0.2231
  189MOL   O10534321   2.546   4.845   1.325  0.4418  0.5584  0.4883
  189MOL   H10634322   2.535   5.031   1.017 -0.7316  0.9602 -0.9582
  189MOL   H10734323   2.489   4.903   0.909 -0.2898  1.1653 -0.1307
  189MOL   H10834324   2.497   4.749   1.117  3.1075 -1.8173  3.8963
  189MOL   H10934325   2.588   4.885   1.400 -1.0004  0.7245  1.2184
  189MOL   C11034326   2.670   4.747   1.005  0.8052 -0.3612 -0.2048
  189MOL   C11134327   2.734   4.617   1.072 -0.3862 -0.5306  0.2761
  189MOL   C11234328   2.851   4.567   0.986 -0.2783 -0.9502 -0.2872
  189MOL   O11334329   2.878   4.611   0.878  0.0578  0.4450  0.0646
  189MOL   O11434330   2.914   4.463   1.042  0.1142  0.1954 -0.3640
  189MOL   H11534331   2.757   4.807   0.978  0.2749 -0.5402 -2.3643
  189MOL   H11634332   2.621   4.713   0.914  0.8784  1.7386 -1.0545
  189MOL   H11734333   2.786   4.641   1.165  0.8009  0.1772 -0.5566
  189MOL   H11834334   2.977   4.423   0.983  0.3809 -2.7701  1.8387
  189MOL   C11934335   2.620   4.509   1.084  0.3074  0.0884  0.2113
  189MOL   C12034336   2.547   4.484   1.219 -0.4663  0.6146  0.3732
  189MOL   C12134337   2.647   4.471   1.330 -0.1287 -0.4885 -0.1666
  189MOL   O12234338   2.739   4.390   1.340  0.9573 -0.0134 -0.6948
  189MOL   O12334339   2.611   4.549   1.429  0.2526  0.4786 -0.2511
  189MOL   H12434340   2.661   4.416   1.045  0.6763  0.4803 -0.3416
  189MOL   H12534341   2.540   4.540   1.017 -0.4349 -1.0720  0.5491
  189MOL   H12634342   2.485   4.572   1.239 -0.8353  0.5163 -0.3374
  189MOL   H12734343   2.655   4.541   1.512 -0.6143  1.8410  0.3631
  189MOL   C12834344   2.451   4.363   1.218 -0.5384  0.9464 -0.3059
  189MOL   C12934345   2.297   4.388   1.190  0.1109  0.1078  0.5891
  189MOL   C13034346   2.262   4.400   1.044 -0.7563 -0.1845 -0.4397
  189MOL   O13134347   2.347   4.428   0.958 -0.3696  0.0011 -0.0942
  189MOL   O13234348   2.130   4.377   1.018  0.3901 -0.0045  0.2529
  189MOL   H13334349   2.457   4.312   1.314 -1.2751 -0.7047 -1.1159
  189MOL   H13434350   2.495   4.288   1.153 -0.1277  0.6855  0.2720
  189MOL   H13534351   2.246   4.302   1.232 -2.2819  1.8912  1.4659
  189MOL   H13634352   2.112   4.393   0.927  1.3075  1.6754  0.3397
  189MOL   C13734353   2.240   4.510   1.269  0.1962  0.4541  0.0921
  189MOL   C13834354   2.228   4.491   1.422 -0.0953 -0.5807  0.3909
  189MOL   C13934355   2.138   4.378   1.460  0.7844 -0.5165  0.3459
  189MOL   O14034356   2.044   4.347   1.392  0.4759  0.4751 -0.3005
  189MOL   O14134357   2.177   4.315   1.570 -0.4205 -0.4322 -0.2373
  189MOL   H14234358   2.141   4.541   1.235  0.7644 -0.2053 -2.3233
  189MOL   H14334359   2.296   4.601   1.252  2.4325 -1.0697 -0.9373
  189MOL   H14434360   2.328   4.476   1.463  0.1485  1.0645  0.4517
  189MOL   H14534361   2.120   4.248   1.605 -0.9147  0.1477  0.0812
  189MOL   C14634362   2.168   4.619   1.491 -0.0168 -0.3494 -0.4387
  189MOL   C14734363   2.277   4.706   1.564 -0.1489  0.2991 -0.3357
  189MOL   C14834364   2.365   4.634   1.671  0.1697  0.8725  0.1739
  189MOL   O14934365   2.484   4.659   1.675  0.0782 -0.0493 -0.0802
  189MOL   O15034366   2.295   4.549   1.749 -0.0220 -0.2283 -0.2069
  189MOL   H15134367   2.087   4.597   1.561  1.4079  1.1450  1.6930
  189MOL   H15234368   2.124   4.674   1.408  1.1677  1.5606  0.1860
  189MOL   H15334369   2.350   4.734   1.487  0.5457  1.3081  0.6676
  189MOL   H15434370   2.331   4.510   1.826 -1.0768 -0.5408  0.1415
  189MOL   C15534371   2.224   4.837   1.615 -0.3961  0.3579 -0.4872
  189MOL   C15634372   2.317   4.962   1.612 -0.3662 -0.4335 -0.4658
  189MOL   C15734373   2.366   4.986   1.757 -0.4506 -0.5473 -0.4421
  189MOL   O15834374   2.297   4.979   1.855 -0.0208 -0.1816  0.3142
  189MOL   O15934375   2.500   5.020   1.776  0.0637 -0.4528 -0.4639
  189MOL   H16034376   2.197   4.809   1.716  0.9542  1.6303  0.2394
  189MOL   H16134377   2.131   4.855   1.561 -0.0934 -0.3273 -1.2388
  189MOL   H16234378   2.401   4.931   1.550 -0.3407  1.5218 -1.4468
  189MOL   H16334379   2.541   5.031   1.692  0.0158  1.8177 -0.2317
  189MOL   C16434380   2.235   5.083   1.560  0.2164 -0.3189  0.7333
  189MOL   C16534381   2.318   5.202   1.509 -0.2117  0.1216  0.7107
  189MOL   C16634382   2.454   5.164   1.442 -0.2204 -0.8688 -0.1356
  189MOL   O16734383   2.474   5.141   1.323  0.2307  0.0719 -0.0412
  189MOL   O16834384   2.551   5.158   1.535 -0.0897 -0.3469  0.1858
  189MOL   H16934385   2.173   5.113   1.645  0.2218 -0.2855  0.7259
  189MOL   H17034386   2.164   5.052   1.484  0.1848  0.6356  0.3690
  189MOL   H17134387   2.259   5.247   1.430  0.4957 -2.7337 -1.5215
  189MOL   H17234388   2.632   5.162   1.486  0.0244  1.0079  0.4678
  189MOL   C17334389   2.329   5.307   1.623 -0.1235  0.3478  0.4641
  189MOL   C17434390   2.400   5.443   1.582 -0.2368  0.0293 -0.4800
  189MOL   C17534391   2.398   5.556   1.688  0.3688 -0.4089 -0.7914
  189MOL   O17634392   2.362   5.549   1.803  0.2646  0.1218  0.4017
  189MOL   O17734393   2.459   5.663   1.634 -0.9374 -0.0378 -0.0620
  189MOL   H17834394   2.381   5.258   1.705  0.7665 -0.6483 -0.6662
  189MOL   H17934395   2.226   5.337   1.640  0.7169  2.1583  2.5618
  189MOL   H18034396   2.502   5.423   1.550  0.0810  0.6498  0.1406
  189MOL   H18134397   2.489   5.721   1.702  0.0946  1.1685 -1.5221
  189MOL   H18234398   2.356   5.494   1.496 -0.5677  2.0768  0.8784
  190MOL     C134399   4.592   1.277   0.354 -0.3659  0.7841  0.0504
  190MOL     C234400   4.725   1.229   0.408  0.7983  0.6893 -0.2614
  190MOL     C334401   4.785   1.334   0.504  0.5188 -0.3980 -0.0145
  190MOL     O434402   4.785   1.454   0.475 -0.2128  0.4902  0.6215
  190MOL     O534403   4.838   1.275   0.614 -0.3367 -0.0494  0.0800
  190MOL     H634404   4.617   1.345   0.273  2.0681 -0.2082 -0.0757
  190MOL     H734405   4.529   1.198   0.313 -0.2785  1.5200 -1.5478
  190MOL     H834406   4.717   1.142   0.473  2.3953 -0.2974 -1.3582
  190MOL     H934407   4.881   1.336   0.672 -1.8039  2.0649 -1.0180
  190MOL    H1034408   4.531   1.325   0.430  0.5982  0.3192  1.1259
  190MOL    C1134409   4.818   1.190   0.289  0.2708 -0.2974 -0.0845
  190MOL    C1234410   4.966   1.163   0.326  0.0018 -0.0653  0.0469
  190MOL    C1334411   5.052   1.255   0.247 -0.2808 -0.3300 -0.7196
  190MOL    O1434412   5.123   1.348   0.296 -0.2294 -0.3731 -0.0518
  190MOL    O1534413   5.032   1.235   0.112  0.2361  0.2431  0.2646
  190MOL    H1634414   4.804   1.253   0.201 -1.1374  0.4781  0.6673
  190MOL    H1734415   4.773   1.097   0.255 -0.1744 -0.1503  0.0920
  190MOL    H1834416   4.985   1.196   0.428  0.8252 -0.1772 -0.0613
  190MOL    H1934417   5.064   1.311   0.065  1.2065 -1.2595 -1.5734
  190MOL    C2034418   5.008   1.016   0.313  0.1928  0.1341 -0.7155
  190MOL    C2134419   4.946   0.919   0.419  0.5027 -0.4745 -0.1295
  190MOL    C2234420   4.991   0.957   0.565 -0.2549 -0.9321 -0.3856
  190MOL    O2334421   5.094   1.010   0.593 -0.4291 -0.0765  0.4358
  190MOL    O2434422   4.896   0.923   0.652 -0.3205 -0.6848  0.6106
  190MOL    H2534423   5.115   0.999   0.325  0.9880  0.9313 -5.5510
  190MOL    H2634424   4.997   0.975   0.213  0.2275 -0.2059 -0.5808
  190MOL    H2734425   4.838   0.927   0.422  0.6658  1.1289  2.7571
  190MOL    H2834426   4.919   0.934   0.743 -0.0368 -0.2557  0.4893
  190MOL    C2934427   4.974   0.770   0.395 -0.0685 -0.7237  0.8873
  190MOL    C3034428   4.859   0.683   0.442 -0.0423  0.6772  0.3478
  190MOL    C3134429   4.909   0.552   0.503 -0.3262 -0.2368  0.4677
  190MOL    O3234430   4.888   0.443   0.454 -0.3368  0.8524 -0.4757
  190MOL    O3334431   4.977   0.569   0.619 -0.1278 -0.2073  0.3504
  190MOL    H3434432   5.075   0.753   0.433  0.9643  0.5001 -1.2700
  190MOL    H3534433   4.982   0.767   0.287  1.2877  1.4231  0.8869
  190MOL    H3634434   4.808   0.727   0.527  0.7000  2.1322  0.0441
  190MOL    H3734435   4.999   0.482   0.646 -0.4887 -0.4041  0.0194
  190MOL    C3834436   4.752   0.650   0.326 -0.4324 -0.0676 -0.1647
  190MOL    C3934437   4.666   0.771   0.275 -0.4416  0.0674 -0.7655
  190MOL    C4034438   4.580   0.828   0.393 -0.1053  0.1847 -0.6835
  190MOL    O4134439   4.551   0.768   0.493 -0.8111  1.0094 -0.1239
  190MOL    O4234440   4.541   0.948   0.366  0.0285  0.5788 -0.1225
  190MOL    H4334441   4.685   0.570   0.358 -1.3152  0.5508 -0.4409
  190MOL    H4434442   4.813   0.606   0.247 -0.9652  0.7804 -1.0795
  190MOL    H4534443   4.733   0.849   0.241  2.2950 -0.9591  1.9701
  190MOL    H4634444   4.485   0.992   0.429 -0.5378  0.2164 -0.3584
  190MOL    C4734445   4.563   0.720   0.169  0.3724  0.0966  0.0516
  190MOL    C4834446   4.547   0.804   0.034  0.1030 -0.0655  0.5261
  190MOL    C4934447   4.436   0.747   7.799  0.2542  0.6889  0.5121
  190MOL    O5034448   4.317   0.757   7.834  0.5904  0.4847 -0.1718
  190MOL    O5134449   4.480   0.690   7.683 -0.1175 -0.7637  0.2114
  190MOL    H5234450   4.463   0.701   0.207  0.5169 -0.3090  0.2222
  190MOL    H5334451   4.597   0.625   0.128 -1.9967 -0.5116 -0.5562
  190MOL    H5434452   4.497   0.895   0.065 -0.5513  0.4700 -1.9920
  190MOL    H5534453   4.406   0.645   7.645  1.2529 -0.6370 -2.7036
  190MOL    C5634454   4.677   0.833   7.815  0.2021  0.0490  0.0963
  190MOL    C5734455   4.680   0.915   7.682  0.4241 -0.4982  0.1225
  190MOL    C5834456   4.760   0.851   7.566  0.0459 -0.0899  0.2237
  190MOL    O5934457   4.712   0.834   7.451 -0.2968  0.2021  0.0487
  190MOL    O6034458   4.891   0.819   7.595  0.2413 -0.2314 -0.5996
  190MOL    H6134459   4.720   0.734   7.799  3.3292  1.1014  1.6119
  190MOL    H6234460   4.748   0.873   0.034 -0.7585  0.7443  0.6685
  190MOL    H6334461   4.578   0.928   7.646  0.6063  0.8231  0.0339
  190MOL    H6434462   4.943   0.762   7.541  2.5964  1.9702 -0.7235
  190MOL    C6534463   4.722   1.058   7.710 -0.8763  0.3383 -0.3697
  190MOL    C6634464   4.720   1.151   7.583  0.6711  1.0360  0.2476
  190MOL    C6734465   4.805   1.271   7.614 -0.4288 -1.0159 -0.1454
  190MOL    O6834466   4.758   1.381   7.648 -0.4669 -0.7280  0.6973
  190MOL    O6934467   4.937   1.239   7.615 -0.2075 -0.0235  0.2911
  190MOL    H7034468   4.825   1.049   7.745 -0.5554  0.2072 -1.3321
  190MOL    H7134469   4.678   1.104   7.799  1.7509  0.9624  0.6588
  190MOL    H7234470   4.768   1.105   7.496 -0.9473 -1.5028  0.6458
  190MOL    H7334471   5.000   1.300   7.650 -1.2181  0.5211  1.2244
  190MOL    C7434472   4.579   1.187   7.544  0.2523  0.0181 -0.1944
  190MOL    C7534473   4.561   1.259   7.408 -0.6908  0.5251  0.3507
  190MOL    C7634474   4.417   1.318   7.390  0.4423  0.0644  1.0123
  190MOL    O7734475   4.326   1.282   7.469 -0.1427  0.5674 -0.3905
  190MOL    O7834476   4.393   1.390   7.271 -0.5542  0.1330  0.0034
  190MOL    H7934477   4.520   1.239   7.620 -0.8966 -0.3313 -0.8298
  190MOL    H8034478   4.508   1.104   7.539  0.5917 -0.2812 -0.0349
  190MOL    H8134479   4.623   1.348   7.420 -1.1950  1.1428 -1.4109
  190MOL    H8234480   4.463   1.402   7.208 -0.6554  0.9676  0.0466
  190MOL    C8334481   4.611   1.164   7.290  0.3812  0.6825  0.4826
  190MOL    C8434482   4.740   1.214   7.227  0.6746  0.2481 -0.2891
  190MOL    C8534483   4.728   1.354   7.155 -0.5330 -0.1951  0.3485
  190MOL    O8634484   4.621   1.402   7.117  0.0781  0.1826 -0.3108
  190MOL    O8734485   4.847   1.409   7.122  0.4734 -0.0669 -0.1884
  190MOL    H8834486   4.534   1.159   7.213  0.2145  2.3447  0.5211
  190MOL    H8934487   4.625   1.065   7.331  1.2168  1.3136  1.7513
  190MOL    H9034488   4.805   1.243   7.309  0.1580 -1.4370  0.7244
  190MOL    H9134489   4.919   1.352   7.145 -1.8769 -2.6911  0.9858
  190MOL    C9234490   4.818   1.102   7.147 -0.3045 -0.0001  0.1301
  190MOL    C9334491   4.930   1.035   7.231 -0.0952  0.5556  0.1239
  190MOL    C9434492   5.043   1.133   7.254 -0.8858  0.0545  0.0352
  190MOL    O9534493   5.057   1.237   7.202 -0.0705 -0.3491 -0.5363
  190MOL    O9634494   5.117   1.100   7.364  0.1372 -0.5012  0.0713
  190MOL    H9734495   4.856   1.139   7.051 -1.0378 -2.4502 -1.1602
  190MOL    H9834496   4.752   1.021   7.116  1.1303 -1.6758  1.3564
  190MOL    H9934497   4.883   1.019   7.328  1.0527  1.2059  0.8079
  190MOL   H10034498   5.170   1.174   7.389 -1.4916  1.0484 -0.8947
  190MOL   C10134499   4.974   0.896   7.162 -0.3433 -0.2924  0.8567
  190MOL   C10234500   5.052   0.796   7.243  0.0807  0.3357 -0.0591
  190MOL   C10334501   5.206   0.807   7.236  0.2007 -0.3982  0.2943
  190MOL   O10434502   5.263   0.826   7.126  0.1341  0.1115 -0.6962
  190MOL   O10534503   5.262   0.774   7.360 -0.0349  0.0901  0.7991
  190MOL   H10634504   5.031   0.914   7.070  0.2614  0.2293  1.3269
  190MOL   H10734505   4.880   0.850   7.131  1.0224 -3.2048  0.8512
  190MOL   H10834506   5.010   0.816   7.341 -1.4446 -0.1951 -0.5814
  190MOL   H10934507   5.354   0.787   7.343 -0.0041 -1.7930 -0.6970
  190MOL   C11034508   5.005   0.656   7.219 -0.1174 -0.1410 -0.2172
  190MOL   C11134509   5.053   0.572   7.095  0.8436  0.0379 -0.9171
  190MOL   C11234510   5.007   0.632   6.967 -0.1919 -0.9478  0.1591
  190MOL   O11334511   4.909   0.604   6.897 -0.2812 -0.1185  0.0456
  190MOL   O11434512   5.100   0.718   6.918  0.2038 -0.1374  0.0736
  190MOL   H11534513   4.896   0.663   7.220 -0.0167  1.9640 -0.0536
  190MOL   H11634514   5.025   0.605   7.313  0.4512 -1.2822 -0.9538
  190MOL   H11734515   5.162   0.572   7.095  0.8613 -0.4417 -3.3993
  190MOL   H11834516   5.164   0.743   6.982 -0.6919  0.0477  0.9078
  190MOL   C11934517   5.014   0.419   7.100  0.4254  0.7535  0.4715
  190MOL   C12034518   5.094   0.326   7.195 -0.2410 -0.5176 -0.3827
  190MOL   C12134519   5.235   0.303   7.144  0.4570  0.0584 -0.4067
  190MOL   O12234520   5.264   0.253   7.030 -0.0004  0.1079  0.3335
  190MOL   O12334521   5.331   0.333   7.240  0.2098  0.1357  0.3678
  190MOL   H12434522   5.017   0.372   7.002 -1.0637 -1.4897  1.4460
  190MOL   H12534523   4.908   0.426   7.125  0.4110  2.1310  0.0691
  190MOL   H12634524   5.111   0.384   7.286 -0.5421 -0.9175 -0.0669
  190MOL   H12734525   5.418   0.308   7.214 -0.2893 -2.0034  0.7073
  190MOL   C12834526   5.011   0.194   7.206 -1.1504 -0.2506 -0.0308
  190MOL   C12934527   5.041   0.087   7.313 -0.2689  0.6767 -0.1500
  190MOL   C13034528   5.038   0.142   7.460  0.0305  1.0245  0.1927
  190MOL   O13134529   4.974   0.241   7.488  0.4563  0.1197  0.0983
  190MOL   O13234530   5.094   0.072   7.555  0.4026  0.1085  0.0773
  190MOL   H13334531   5.001   0.144   7.109  1.3945 -1.6504  0.4081
  190MOL   H13434532   4.910   0.231   7.225 -0.5398  1.5330 -0.1814
  190MOL   H13534533   4.968   0.007   7.309 -0.6676  0.8737  2.5616
  190MOL   H13634534   5.100   0.126   7.632  1.3801 -1.0670  0.8436
  190MOL   C13734535   5.164   0.003   7.281 -0.6396  0.1982 -0.5381
  190MOL   C13834536   5.182   7.790   7.140 -0.1162 -0.0654  0.6371
  190MOL   C13934537   5.066   7.702   7.109 -0.6928  0.2353  0.6383
  190MOL   O14034538   4.992   7.725   7.014  0.2621 -0.4032 -0.3112
  190MOL   O14134539   5.055   7.597   7.195 -0.3045 -0.0561  0.1628
  190MOL   H14234540   5.166   7.768   7.345  1.2546 -0.4079 -1.3851
  190MOL   H14334541   5.255   0.058   7.307 -0.5778  0.5483 -1.4701
  190MOL   H14434542   5.197   0.019   7.070 -0.2076 -0.1156  0.5583
  190MOL   H14534543   4.980   7.541   7.178  0.4777 -1.3551  0.8862
  190MOL   C14634544   5.312   7.705   7.125 -0.0630  0.1579 -0.4862
  190MOL   C14734545   5.444   7.783   7.112 -0.0865 -0.4385 -0.1663
  190MOL   C14834546   5.472   7.838   6.972  0.4369  0.6758  0.0807
  190MOL   O14934547   5.583   7.851   6.916 -0.3447 -0.0926 -0.6712
  190MOL   O15034548   5.351   0.004   6.906 -0.0076 -0.1347 -0.1580
  190MOL   H15134549   5.306   7.633   7.043 -0.4502 -1.3582  0.8463
  190MOL   H15234550   5.326   7.636   7.208  2.2987 -0.6546 -1.5161
  190MOL   H15334551   5.431   0.014   7.181  0.8925 -0.0340 -0.4688
  190MOL   H15434552   5.374   0.034   6.820  0.4371 -1.4339 -0.5100
  190MOL   C15534553   5.564   7.710   7.178 -0.3138  0.5576  0.5088
  190MOL   C15634554   5.705   7.773   7.185 -1.0893  1.0085  0.1621
  190MOL   C15734555   5.818   7.663   7.186 -0.5293 -0.1119 -0.1150
  190MOL   O15834556   5.795   7.543   7.187  0.2860  0.4162  0.5069
  190MOL   O15934557   5.941   7.720   7.186 -0.4395 -0.2242 -0.6229
  190MOL   H16034558   5.582   7.624   7.114  1.5703  1.2644  0.0708
  190MOL   H16134559   5.527   7.667   7.271 -3.1237 -0.5554 -1.0489
  190MOL   H16234560   5.725   7.824   7.090 -1.6746  2.6271  0.8800
  190MOL   H16334561   5.996   7.644   7.174 -1.0393 -0.8627  0.5484
  190MOL   C16434562   5.736   0.003   7.311 -0.0981  0.2112  0.4387
  190MOL   C16534563   5.650   0.134   7.326 -0.1199  0.2856 -0.6062
  190MOL   C16634564   5.684   0.222   7.205  0.3828  0.0800  0.3764
  190MOL   O16734565   5.594   0.268   7.138 -0.1754  0.0901  0.3062
  190MOL   O16834566   5.812   0.221   7.168  0.2217  0.8527  0.0283
  190MOL   H16934567   5.841   0.028   7.327  0.1881  0.9464 -2.4132
  190MOL   H17034568   5.717   7.784   7.391  0.3331  1.4092  1.6409
  190MOL   H17134569   5.542   0.120   7.327 -0.0512 -0.2479 -0.2951
  190MOL   H17234570   5.829   0.255   7.081 -1.6595 -0.0722 -0.7194
  190MOL   C17334571   5.687   0.208   7.458 -0.2411  0.1196  0.0344
  190MOL   C17434572   5.603   0.331   7.489 -0.2806  0.0371 -0.2644
  190MOL   C17534573   5.468   0.296   7.558 -0.1819  0.5467 -0.1295
  190MOL   O17634574   5.406   0.191   7.528 -0.0796  0.2630 -0.2049
  190MOL   O17734575   5.440   0.395   7.645  0.2680 -0.3224  0.1902
  190MOL   H17834576   5.790   0.241   7.444 -0.4414  1.5252  1.8030
  190MOL   H17934577   5.701   0.143   7.544  0.3040  0.1015 -0.0678
  190MOL   H18034578   5.656   0.393   7.561 -0.2174  0.7031 -0.8729
  190MOL   H18134579   5.362   0.372   7.692  0.8218 -1.9386  0.3748
  190MOL   H18234580   5.588   0.398   7.404 -2.1255  0.1966  0.1528
  191MOL     C134581   0.644   4.285   4.987 -0.6163  0.6632  0.2796
  191MOL     C234582   0.748   4.339   5.087 -1.1579  0.1068  0.1894
  191MOL     C334583   0.702   4.475   5.132  0.5630 -0.4469  0.4835
  191MOL     O434584   0.758   4.580   5.094 -0.4419  0.2310  0.2981
  191MOL     O534585   0.586   4.472   5.200 -0.0584 -0.0988 -0.3001
  191MOL     H634586   0.629   4.343   4.896 -2.1510 -0.8745 -0.4868
  191MOL     H734587   0.671   4.185   4.954  0.5578  1.3129 -0.7631
  191MOL     H834588   0.741   4.283   5.180  0.5031 -1.7131 -0.7262
  191MOL     H934589   0.555   4.560   5.218  1.1213  0.5378 -1.3137
  191MOL    H1034590   0.541   4.268   5.018 -0.7788  0.8525 -0.1545
  191MOL    C1134591   0.886   4.347   5.023 -0.4236  0.0933  0.1229
  191MOL    C1234592   0.958   4.204   5.020 -0.3428  0.4858 -0.1728
  191MOL    C1334593   1.036   4.190   5.152 -0.0106  0.7439  0.2815
  191MOL    O1434594   1.155   4.222   5.164 -0.0854  0.9088  0.1524
  191MOL    O1534595   0.966   4.130   5.250  0.0471 -0.2459  0.2428
  191MOL    H1634596   0.959   4.416   5.064 -2.2167  1.2666  1.3887
  191MOL    H1734597   0.875   4.394   4.925  0.6944  3.1137  1.4035
  191MOL    H1834598   0.877   4.131   5.022 -0.8331  0.8650 -3.5699
  191MOL    H1934599   1.024   4.119   5.323  0.4344 -2.8857 -0.4134
  191MOL    C2034600   1.050   4.166   4.899 -0.7793 -0.4554  0.2992
  191MOL    C2134601   0.973   4.154   4.762  0.0416  0.9221  0.0928
  191MOL    C2234602   0.923   4.013   4.739  1.1049 -0.1574 -0.1491
  191MOL    O2334603   0.998   3.922   4.704 -0.3325  0.1532 -0.1134
  191MOL    O2434604   0.799   4.002   4.782  0.3072  0.4437  0.1460
  191MOL    H2534605   1.091   4.070   4.930 -0.4239 -0.5667 -0.5055
  191MOL    H2634606   1.129   4.241   4.892 -2.5538  1.4434  0.3475
  191MOL    H2734607   0.888   4.223   4.769 -0.3654  0.4115  0.2248
  191MOL    H2834608   0.783   3.910   4.772 -3.8720  0.8158  2.2795
  191MOL    C2934609   1.065   4.180   4.645 -0.8122  0.1410 -1.0032
  191MOL    C3034610   1.114   4.327   4.635 -0.4845 -0.8184  0.8768
  191MOL    C3134611   0.992   4.423   4.605 -0.0130 -0.2826  0.2368
  191MOL    O3234612   0.891   4.401   4.539 -0.6135 -0.0894  0.6545
  191MOL    O3334613   1.023   4.551   4.643 -0.1762 -0.3442 -0.7030
  191MOL    H3434614   1.014   4.156   4.552 -0.3461 -2.0040 -0.7338
  191MOL    H3534615   1.151   4.115   4.654 -1.5672 -0.9189 -1.3748
  191MOL    H3634616   1.155   4.362   4.730 -0.3237 -2.2549  1.3612
  191MOL    H3734617   0.966   4.610   4.597 -3.1767 -1.0609  1.8805
  191MOL    C3834618   1.226   4.345   4.525 -0.2330 -0.0755 -0.7889
  191MOL    C3934619   1.300   4.482   4.524 -0.0911  0.1944  0.1302
  191MOL    C4034620   1.379   4.501   4.391 -0.8819 -0.0191  0.0551
  191MOL    O4134621   1.320   4.533   4.285  0.0535  0.0296  0.0199
  191MOL    O4234622   1.518   4.476   4.398 -0.0178  0.1545  0.0855
  191MOL    H4334623   1.179   4.340   4.427  0.3846  0.7618 -1.1369
  191MOL    H4434624   1.296   4.262   4.540 -1.6697 -0.9892  1.0864
  191MOL    H4534625   1.221   4.555   4.503 -0.7699 -0.8368 -1.0116
  191MOL    H4634626   1.554   4.496   4.312 -0.7182  2.0639  0.2158
  191MOL    C4734627   1.381   4.504   4.650 -0.4589  0.0116  0.3000
  191MOL    C4834628   1.453   4.645   4.661 -0.4020 -0.0795 -0.0428
  191MOL    C4934629   1.570   4.645   4.758 -0.4547  0.1840 -0.3648
  191MOL    O5034630   1.576   4.567   4.856  0.2062  0.0548 -0.9450
  191MOL    O5134631   1.664   4.738   4.735  0.1578 -0.2148  0.4827
  191MOL    H5234632   1.447   4.419   4.669 -0.7586 -0.4965 -0.9273
  191MOL    H5334633   1.306   4.508   4.729 -0.0422  1.1358  0.6541
  191MOL    H5434634   1.508   4.667   4.570  0.6181 -0.8170  0.3891
  191MOL    H5534635   1.709   4.751   4.817 -0.9937 -0.9916  1.2550
  191MOL    C5634636   1.352   4.761   4.696 -0.3788  0.6407  0.3289
  191MOL    C5734637   1.393   4.900   4.652 -0.3648  0.1968 -0.5829
  191MOL    C5834638   1.307   5.006   4.727 -0.4553 -0.4874  0.1501
  191MOL    O5934639   1.191   4.988   4.764  0.0563 -0.2480 -0.5501
  191MOL    O6034640   1.375   5.124   4.744 -0.3076  0.4616  0.3830
  191MOL    H6134641   1.328   4.745   4.801  1.4805 -0.2413  0.6437
  191MOL    H6234642   1.261   4.745   4.637  0.0385 -0.1488 -0.1063
  191MOL    H6334643   1.495   4.912   4.687 -0.8781  0.2672  0.9051
  191MOL    H6434644   1.323   5.170   4.808  0.0707  1.0269  0.2915
  191MOL    C6534645   1.374   4.917   4.499 -0.2552 -0.2246 -0.6612
  191MOL    C6634646   1.458   5.038   4.443  0.7181 -0.0599  0.9383
  191MOL    C6734647   1.410   5.083   4.303 -0.1121  0.2314  0.3471
  191MOL    O6834648   1.443   5.024   4.195 -0.2649 -0.3765 -0.4240
  191MOL    O6934649   1.310   5.174   4.309 -0.1776  0.3169 -0.0647
  191MOL    H7034650   1.269   4.923   4.472 -0.3874  0.5946  0.0100
  191MOL    H7134651   1.405   4.827   4.446 -0.0222 -0.8426  0.5146
  191MOL    H7234652   1.446   5.128   4.503  1.3681  0.8163 -0.2089
  191MOL    H7334653   1.269   5.183   4.225  0.3416 -0.1551 -0.3709
  191MOL    C7434654   1.611   4.999   4.443  0.2689 -0.2182  0.0687
  191MOL    C7534655   1.715   5.114   4.429  0.8993 -0.0444 -0.2696
  191MOL    C7634656   1.856   5.069   4.477 -0.2718  0.0164  0.1848
  191MOL    O7734657   1.926   4.999   4.409  0.0106 -0.3763  0.2097
  191MOL    O7834658   1.886   5.109   4.603 -0.0315  0.6823 -0.0834
  191MOL    H7934659   1.636   4.927   4.366 -3.3917 -1.2407 -0.2187
  191MOL    H8034660   1.643   4.946   4.533  1.6112 -0.1722 -0.3737
  191MOL    H8134661   1.725   5.122   4.321  1.1445 -0.4113 -0.2770
  191MOL    H8234662   1.957   5.062   4.646 -1.0623 -0.0291  0.8869
  191MOL    C8334663   1.679   5.253   4.502  0.2684  0.7444  0.7827
  191MOL    C8434664   1.593   5.357   4.425 -0.5245 -0.0867  0.4119
  191MOL    C8534665   1.620   5.387   4.275  0.9954 -0.3203  0.2528
  191MOL    O8634666   1.540   5.448   4.205  1.1205 -0.1786  0.0995
  191MOL    O8734667   1.741   5.345   4.236  0.6583 -0.1129  0.4712
  191MOL    H8834668   1.767   5.308   4.536  1.2374 -0.0584 -0.4018
  191MOL    H8934669   1.628   5.224   4.594 -2.5694 -2.6801 -1.7686
  191MOL    H9034670   1.497   5.308   4.413  1.3593 -3.7916 -0.0975
  191MOL    H9134671   1.757   5.348   4.143  1.8970  2.4080  0.7328
  191MOL    C9234672   1.570   5.480   4.520 -0.2949 -0.1128 -0.0333
  191MOL    C9334673   1.467   5.467   4.640 -0.1770 -0.1258  0.1968
  191MOL    C9434674   1.326   5.457   4.579  0.4864 -0.2002  0.1710
  191MOL    O9534675   1.299   5.480   4.465  0.8128 -0.1733 -0.1137
  191MOL    O9634676   1.242   5.413   4.669 -0.0992 -0.1437 -0.2663
  191MOL    H9734677   1.545   5.559   4.448 -0.8959 -1.4897 -1.3671
  191MOL    H9834678   1.662   5.522   4.560 -0.6427 -0.8761  1.5633
  191MOL    H9934679   1.477   5.373   4.693 -0.6200 -1.3782 -1.8747
  191MOL   H10034680   1.155   5.410   4.635  0.4494  0.4951 -1.7734
  191MOL   C10134681   1.471   5.590   4.722  0.4756  0.4660 -0.1743
  191MOL   C10234682   1.470   5.557   4.873 -0.0581 -0.5278 -0.5118
  191MOL   C10334683   1.466   5.688   4.958  0.1857 -0.7663 -0.7379
  191MOL   O10434684   1.505   5.799   4.919  0.2463 -0.2981 -0.2514
  191MOL   O10534685   1.412   5.661   5.079  0.2728  0.2229 -0.2917
  191MOL   H10634686   1.399   5.666   4.692  0.3031  1.3643  2.3938
  191MOL   H10734687   1.562   5.644   4.695  0.3625  0.7391 -0.0134
  191MOL   H10834688   1.386   5.489   4.888 -0.3694 -0.2409 -0.9246
  191MOL   H10934689   1.402   5.732   5.141  3.8830  1.6268 -1.1537
  191MOL   C11034690   1.600   5.489   4.915  0.2841  0.1675  0.0294
  191MOL   C11134691   1.593   5.346   4.989  0.0685 -0.3930  0.6266
  191MOL   C11234692   1.561   5.358   5.141  0.1395 -0.1786  0.1313
  191MOL   O11334693   1.601   5.448   5.204 -0.1354 -0.8805  0.6516
  191MOL   O11434694   1.481   5.250   5.182  1.0305 -0.1379 -0.1267
  191MOL   H11534695   1.667   5.553   4.972  1.0092  1.1427 -1.8667
  191MOL   H11634696   1.666   5.475   4.829 -1.7701 -0.4774 -1.4594
  191MOL   H11734697   1.511   5.288   4.947  0.9575 -0.8748 -0.4868
  191MOL   H11834698   1.439   5.273   5.264  0.6543 -1.4667  0.0634
  191MOL   C11934699   1.719   5.260   4.953 -0.0539  0.2284  0.0490
  191MOL   C12034700   1.724   5.128   5.026 -0.2979 -0.3887  0.2229
  191MOL   C12134701   1.866   5.070   5.010  0.2379  0.5535 -0.4197
  191MOL   O12234702   1.924   5.055   4.901 -0.3602 -0.3186 -0.0204
  191MOL   O12334703   1.910   5.026   5.131  0.3737 -0.0885  0.4125
  191MOL   H12434704   1.812   5.310   4.978 -0.8690  1.6034  0.4341
  191MOL   H12534705   1.714   5.232   4.848 -0.1550 -1.2708  0.4528
  191MOL   H12634706   1.724   5.147   5.134  2.9340 -0.0994  0.2195
  191MOL   H12734707   2.004   5.013   5.124  0.5344  1.7434 -1.3227
  191MOL   C12834708   1.620   5.022   4.995  0.3998  0.3387  0.3906
  191MOL   C12934709   1.589   4.918   5.101  0.4654  0.7954 -0.6698
  191MOL   C13034710   1.695   4.805   5.112  0.6124 -0.1861  0.2172
  191MOL   O13134711   1.744   4.746   5.016 -0.1951  0.0678  0.2869
  191MOL   O13234712   1.722   4.757   5.237  0.5476 -0.4695 -0.3394
  191MOL   H13334713   1.638   4.972   4.900 -1.3743 -1.7833  1.1133
  191MOL   H13434714   1.527   5.075   4.972 -0.7466 -1.7146  0.2065
  191MOL   H13534715   1.583   4.974   5.195  0.7648  0.1966 -0.2927
  191MOL   H13634716   1.786   4.688   5.223  0.9705  0.0347 -0.9654
  191MOL   C13734717   1.446   4.850   5.101  0.9974 -0.6655  0.0592
  191MOL   C13834718   1.366   4.878   5.233 -0.3425 -0.6088  0.0844
  191MOL   C13934719   1.435   4.825   5.357 -0.2316  0.1374 -0.3108
  191MOL   O14034720   1.468   4.888   5.457  0.2011 -0.5981  0.2644
  191MOL   O14134721   1.450   4.690   5.352 -0.5721 -0.4297 -0.2335
  191MOL   H14234722   1.439   4.742   5.090  1.1305 -0.4639 -2.1234
  191MOL   H14334723   1.389   4.901   5.024  0.9546  0.1527  0.6238
  191MOL   H14434724   1.370   4.986   5.239  0.9613 -0.5713 -1.2415
  191MOL   H14534725   1.472   4.649   5.435 -1.6353 -0.4587  0.0381
  191MOL   C14634726   1.219   4.852   5.220 -0.7861 -0.9875  0.6251
  191MOL   C14734727   1.178   4.704   5.195  0.1974  1.4219 -0.0383
  191MOL   C14834728   1.176   4.679   5.043  0.7054  0.0078  0.1132
  191MOL   O14934729   1.119   4.742   4.955  0.1096 -0.1169  0.4031
  191MOL   O15034730   1.261   4.575   5.014  0.5435  0.1583  0.2173
  191MOL   H15134731   1.177   4.917   5.143 -1.0121 -1.6106  0.2197
  191MOL   H15234732   1.160   4.889   5.304 -0.0470 -1.3533  1.3107
  191MOL   H15334733   1.257   4.643   5.236 -0.2645  1.7286  1.3413
  191MOL   H15434734   1.249   4.548   4.925 -0.5676  0.3555  0.3005
  191MOL   C15534735   1.031   4.670   5.250  0.0689 -0.4424  0.3069
  191MOL   C15634736   1.040   4.572   5.378  0.3128  1.0378  0.3446
  191MOL   C15734737   0.902   4.511   5.406  0.0869  0.5137  0.3401
  191MOL   O15834738   0.890   4.386   5.407  0.0890 -0.0884 -0.0306
  191MOL   O15934739   0.810   4.601   5.439 -0.0808  0.0814  0.3780
  191MOL   H16034740   0.977   4.624   5.168 -2.0615  0.5669  1.1077
  191MOL   H16134741   0.976   4.758   5.283 -2.2756 -2.3198  1.5856
  191MOL   H16234742   1.100   4.485   5.353  0.5897  0.4753  2.9160
  191MOL   H16334743   0.739   4.547   5.471 -2.0007  1.8168 -0.7985
  191MOL   C16434744   1.095   4.642   5.500  0.2691 -0.7401 -0.0086
  191MOL   C16534745   1.131   4.545   5.616 -0.3140  0.0802 -0.7338
  191MOL   C16634746   1.017   4.504   5.710  0.5473  0.1155 -1.0516
  191MOL   O16734747   0.920   4.570   5.738 -0.0724  0.3783 -0.0044
  191MOL   O16834748   1.023   4.376   5.755 -0.0137 -0.6989 -0.1919
  191MOL   H16934749   1.036   4.728   5.533  0.5902 -1.0680  1.4407
  191MOL   H17034750   1.190   4.691   5.480 -0.9473  2.1032  0.9330
  191MOL   H17134751   1.159   4.450   5.572  3.5256  0.6596  0.2731
  191MOL   H17234752   0.956   4.364   5.821  1.4941  0.1079  1.5191
  191MOL   C17334753   1.250   4.596   5.698  0.1338  1.0131  0.5960
  191MOL   C17434754   1.251   4.749   5.750 -0.1434 -0.2915 -0.3098
  191MOL   C17534755   1.188   4.769   5.885  0.3476  0.4906  0.1381
  191MOL   O17634756   1.160   4.681   5.965  0.8622  0.1734  0.0356
  191MOL   O17734757   1.149   4.899   5.897  0.3730  0.0065  0.0065
  191MOL   H17834758   1.345   4.581   5.646 -0.1936 -0.2911  0.3408
  191MOL   H17934759   1.250   4.521   5.777  0.8869  0.8810  0.4784
  191MOL   H18034760   1.353   4.788   5.757 -0.1770 -0.3185  0.2865
  191MOL   H18134761   1.117   4.905   5.986  0.4233 -1.4763  0.1224
  191MOL   H18234762   1.211   4.824   5.680 -0.1748 -0.0888 -0.0754
  192MOL     C134763   7.237   0.034   5.683 -0.6149 -0.3789 -0.5129
  192MOL     C234764   7.192   0.172   5.647  0.0703 -0.4850  0.4138
  192MOL     C334765   7.326   0.246   5.598  0.5074  0.9353  0.2792
  192MOL     O434766   7.409   0.300   5.676 -0.3530  0.0682 -0.3798
  192MOL     O534767   7.331   0.257   5.466  0.0488  0.1071 -0.1596
  192MOL     H634768   7.316   0.030   5.758  1.1640  1.2210 -2.2440
  192MOL     H734769   7.149   7.835   5.720  2.0996 -2.1729  3.8337
  192MOL     H834770   7.115   0.166   5.569  0.2544  0.8873  0.1131
  192MOL     H934771   7.408   0.309   5.450 -0.7640  1.1355 -0.7623
  192MOL    H1034772   7.273   7.831   5.596  0.4186 -0.5303  0.0057
  192MOL    C1134773   7.122   0.241   5.768 -0.3334  0.0692  0.3268
  192MOL    C1234774   6.964   0.221   5.775  0.2163  0.1353  0.8690
  192MOL    C1334775   6.883   0.320   5.690 -0.0464  0.1967  0.4604
  192MOL    O1434776   6.905   0.342   5.576 -0.0066 -0.5398  0.0861
  192MOL    O1534777   6.797   0.395   5.771 -0.4521  0.3461 -0.1567
  192MOL    H1634778   7.143   0.347   5.754 -0.6377  0.0678 -0.1668
  192MOL    H1734779   7.158   0.214   5.867  0.2847 -1.2069 -0.2454
  192MOL    H1834780   6.944   0.127   5.724 -0.3025  1.2972 -1.1213
  192MOL    H1934781   6.756   0.461   5.718  2.4727  1.7828 -0.7536
  192MOL    C2034782   6.910   0.215   5.922  0.5943 -0.3754 -0.0865
  192MOL    C2134783   6.931   0.093   6.020  0.3044 -0.2142 -0.7117
  192MOL    C2234784   6.871   7.810   5.979  0.5903  0.4029  0.4879
  192MOL    O2334785   6.808   7.737   6.056  0.0863 -0.3749 -0.2457
  192MOL    O2434786   6.928   7.764   5.866 -0.1314 -0.6990  0.3133
  192MOL    H2534787   6.802   0.229   5.925  0.3519 -2.3622  3.4758
  192MOL    H2634788   6.953   0.308   5.960  0.6699 -1.0531  1.5618
  192MOL    H2734789   7.038   0.070   6.024  0.3173 -0.0103  0.2579
  192MOL    H2834790   6.902   7.679   5.835  0.1136 -0.9428  0.7635
  192MOL    C2934791   6.883   0.134   6.164  0.1924  0.4226 -0.6073
  192MOL    C3034792   6.948   0.057   6.283  0.1106  0.4043  0.2678
  192MOL    C3134793   6.940   0.128   6.421  0.8426 -0.2861 -0.0842
  192MOL    O3234794   6.921   0.247   6.433  0.6034 -0.5073 -0.1492
  192MOL    O3334795   6.945   0.037   6.525  1.2598  0.1253  0.3120
  192MOL    H3434796   6.774   0.131   6.163  0.1684  1.2644 -0.7244
  192MOL    H3534797   6.915   0.237   6.173  0.0014  0.2495  2.7587
  192MOL    H3634798   6.876   7.829   6.293  2.3772 -1.5702  1.1020
  192MOL    H3734799   6.933   0.087   6.604  1.3640  0.9943 -0.2145
  192MOL    C3834800   7.094   0.012   6.263  0.4956 -0.0281  0.3036
  192MOL    C3934801   7.200   0.124   6.230 -0.4451 -0.1915 -0.8040
  192MOL    C4034802   7.311   0.072   6.134  0.1271  0.0772 -0.5107
  192MOL    O4134803   7.325   0.106   6.017 -0.5105 -0.2903 -0.1794
  192MOL    O4234804   7.376   7.813   6.184  0.6056  0.1044 -0.2100
  192MOL    H4334805   7.097   7.790   6.184 -1.7194  0.5416 -0.3432
  192MOL    H4434806   7.135   7.803   6.343  1.8549  1.4442  0.7733
  192MOL    H4534807   7.150   0.201   6.171 -1.9640 -0.0868  0.5913
  192MOL    H4634808   7.445   7.774   6.132  0.7496  1.1017 -0.7797
  192MOL    C4734809   7.266   0.190   6.355  0.0828  0.5641 -0.5794
  192MOL    C4834810   7.258   0.351   6.349  0.1953 -0.1694 -0.3424
  192MOL    C4934811   7.327   0.419   6.232 -0.5393 -0.0390  0.6678
  192MOL    O5034812   7.282   0.519   6.173 -0.0337  0.0089  0.2714
  192MOL    O5134813   7.426   0.339   6.185 -0.3611  0.2204  0.3546
  192MOL    H5234814   7.373   0.170   6.360 -0.1461 -1.6371 -3.3283
  192MOL    H5334815   7.214   0.149   6.442  1.5189 -0.1816 -0.0473
  192MOL    H5434816   7.153   0.375   6.332 -0.5685 -2.3635  1.1478
  192MOL    H5534817   7.475   0.386   6.119  1.5700  0.0206  1.6372
  192MOL    C5634818   7.304   0.410   6.484 -0.4015 -0.0948 -0.4158
  192MOL    C5734819   7.260   0.550   6.536  0.1095  0.1698 -0.1897
  192MOL    C5834820   7.102   0.567   6.527  0.6840  0.2649  0.0568
  192MOL    O5934821   7.051   0.665   6.467  0.6951 -0.0113 -0.0241
  192MOL    O6034822   7.038   0.466   6.584 -0.4774 -0.2030 -0.4450
  192MOL    H6134823   7.412   0.408   6.498 -0.7188 -1.0985  2.2762
  192MOL    H6234824   7.255   0.334   6.546 -3.6922  1.7947 -0.5891
  192MOL    H6334825   7.294   0.550   6.639  0.0804 -1.8167 -0.1665
  192MOL    H6434826   6.944   0.462   6.583 -0.5227 -0.2765  1.2987
  192MOL    C6534827   7.350   0.659   6.462 -0.6453  0.9586  0.8896
  192MOL    C6634828   7.353   0.807   6.514 -0.1824 -0.1806  0.1543
  192MOL    C6734829   7.427   0.899   6.418 -0.3533 -0.0577  0.7926
  192MOL    O6834830   7.544   0.912   6.415 -0.0840  0.3083  0.8971
  192MOL    O6934831   7.342   0.960   6.331  0.0431  0.1687  0.1334
  192MOL    H7034832   7.311   0.658   6.360 -2.2522 -1.5762  1.4893
  192MOL    H7134833   7.456   0.631   6.461 -0.1467  2.7819 -1.0852
  192MOL    H7234834   7.250   0.838   6.501 -0.3476 -0.4711  0.7573
  192MOL    H7334835   7.389   1.021   6.277 -0.0066  0.2958  0.2319
  192MOL    C7434836   7.401   0.813   6.662 -0.1078 -0.3969  0.2983
  192MOL    C7534837   7.362   0.943   6.733 -0.0821  0.4496 -0.0280
  192MOL    C7634838   7.453   0.960   6.857  1.0940  0.5199  0.3631
  192MOL    O7734839   7.541   0.880   6.887 -0.1401  0.2872 -0.7757
  192MOL    O7834840   7.411   1.072   6.929  0.1223  0.2979  0.4127
  192MOL    H7934841   7.510   0.812   6.661 -0.1063 -1.4656  0.8938
  192MOL    H8034842   7.366   0.735   6.729 -1.5479  0.9973  1.2125
  192MOL    H8134843   7.384   1.032   6.675  0.0334  0.4436  0.0060
  192MOL    H8234844   7.477   1.092   6.993  1.5755 -1.1020 -0.6037
  192MOL    C8334845   7.207   0.948   6.766 -0.5008  0.4417 -0.5518
  192MOL    C8434846   7.124   1.036   6.667  0.5787 -0.4977 -0.1119
  192MOL    C8534847   7.099   1.176   6.715 -0.1305  0.0403 -0.1110
  192MOL    O8634848   6.997   1.214   6.773 -0.4066  0.4104 -0.4033
  192MOL    O8734849   7.201   1.258   6.696 -0.1531  0.3789 -0.1531
  192MOL    H8834850   7.187   0.991   6.864  0.5972  0.3751 -0.2887
  192MOL    H8934851   7.168   0.847   6.777  0.3195  0.1896  0.0629
  192MOL    H9034852   7.180   1.050   6.574  1.0092 -3.4615 -0.3534
  192MOL    H9134853   7.181   1.351   6.701  1.1753  0.5857  1.6537
  192MOL    C9234854   6.997   0.964   6.620  1.1678  0.1682  0.1599
  192MOL    C9334855   6.921   1.004   6.492 -0.0496  0.5829 -0.0047
  192MOL    C9434856   7.004   1.015   6.371 -0.0152 -0.3108  0.4849
  192MOL    O9534857   7.025   1.128   6.323 -0.5879  0.1906  0.0876
  192MOL    O9634858   7.048   0.897   6.309 -0.0809 -0.3318 -0.4725
  192MOL    H9734859   6.924   0.954   6.700  0.0404 -1.9818 -1.0972
  192MOL    H9834860   7.019   0.858   6.607 -1.5651 -0.3640 -0.3357
  192MOL    H9934861   6.845   0.927   6.478 -0.4702  0.8751  0.6172
  192MOL   H10034862   7.021   0.825   6.363 -2.9676  0.2823 -1.0370
  192MOL   C10134863   6.836   1.126   6.527  0.0548 -0.2735 -0.4865
  192MOL   C10234864   6.731   1.174   6.423 -0.0982 -0.1470 -0.3301
  192MOL   C10334865   6.664   1.303   6.471  0.1382  0.4176  0.4534
  192MOL   O10434866   6.650   1.405   6.404 -0.6591 -0.0778 -0.4180
  192MOL   O10534867   6.613   1.283   6.594  0.0501  0.6085 -0.3030
  192MOL   H10634868   6.893   1.218   6.540  0.3083 -0.4516 -0.3391
  192MOL   H10734869   6.787   1.117   6.625  0.0179 -1.4380 -0.6013
  192MOL   H10834870   6.795   1.194   6.336  1.2143 -0.8720  0.4406
  192MOL   H10934871   6.572   1.359   6.632  1.5818  0.0104  2.6490
  192MOL   C11034872   6.619   1.079   6.378 -0.3220  0.4411  0.7782
  192MOL   C11134873   6.525   1.117   6.260  0.2904  0.6638  0.2409
  192MOL   C11234874   6.391   1.184   6.285 -0.5291 -0.2446 -0.7524
  192MOL   O11334875   6.320   1.230   6.196 -0.0166  0.4620 -0.0283
  192MOL   O11434876   6.350   1.180   6.418 -0.0013 -0.1876 -0.1543
  192MOL   H11534877   6.555   1.058   6.464 -1.7197  0.5665 -0.2094
  192MOL   H11634878   6.662   0.979   6.376 -2.6693 -0.6021  1.0342
  192MOL   H11734879   6.575   1.193   6.200  0.2759  0.8261  0.4320
  192MOL   H11834880   6.264   1.220   6.421  0.1765  0.1568  0.3789
  192MOL   C11934881   6.505   0.996   6.159  0.6200 -0.0315  0.1119
  192MOL   C12034882   6.627   0.941   6.090  0.0396  0.1647  0.4451
  192MOL   C12134883   6.686   1.032   5.993 -0.3347  0.1921 -0.4174
  192MOL   O12234884   6.611   1.106   5.930 -0.0699  0.0193 -0.8726
  192MOL   O12334885   6.820   1.020   5.971  0.5369  0.0811  0.2838
  192MOL   H12434886   6.434   1.026   6.082  0.6647 -0.7391 -0.2056
  192MOL   H12534887   6.446   0.925   6.218  0.2579  0.0722 -0.1250
  192MOL   H12634888   6.702   0.936   6.169 -0.5696 -1.8166  0.9167
  192MOL   H12734889   6.852   1.099   5.931 -1.0028  0.3729 -0.3787
  192MOL   C12834890   6.601   0.800   6.036  0.5643  0.5117  0.7093
  192MOL   C12934891   6.657   0.678   6.124 -0.1769 -0.0647  0.0047
  192MOL   C13034892   6.807   0.653   6.099  0.3650  1.2290 -0.0334
  192MOL   O13134893   6.893   0.671   6.186  0.0947  0.1170  0.2863
  192MOL   O13234894   6.834   0.618   5.970 -0.4274 -0.2270 -0.5423
  192MOL   H13334895   6.633   0.789   5.932 -0.1492 -3.5842  0.8491
  192MOL   H13434896   6.494   0.793   6.014  1.0460  0.3755 -1.7694
  192MOL   H13534897   6.653   0.708   6.229  1.6678 -0.8707  0.3242
  192MOL   H13634898   6.928   0.609   5.968 -0.1600  2.1697 -1.0287
  192MOL   C13734899   6.570   0.555   6.122 -0.4797  0.2145  0.0591
  192MOL   C13834900   6.620   0.418   6.175  0.1261  0.0031 -0.0236
  192MOL   C13934901   6.511   0.309   6.156 -0.7481 -0.4918  0.2737
  192MOL   O14034902   6.403   0.335   6.096 -0.0967 -0.2633  0.4718
  192MOL   O14134903   6.539   0.196   6.222 -0.1432 -0.3187 -0.2611
  192MOL   H14234904   6.544   0.534   6.018 -0.3905  0.7822 -0.0784
  192MOL   H14334905   6.476   0.587   6.167  0.2185  0.4491  1.3593
  192MOL   H14434906   6.705   0.394   6.112 -1.9350  0.1342 -2.9747
  192MOL   H14534907   6.474   0.129   6.209 -0.8460  0.3683 -0.3309
  192MOL   C14634908   6.679   0.424   6.325  0.1836  0.0437 -0.1646
  192MOL   C14734909   6.597   0.488   6.441  0.1571 -0.3505 -0.4806
  192MOL   C14834910   6.699   0.522   6.556 -0.5837  0.0934 -0.4292
  192MOL   O14934911   6.713   0.636   6.600  0.0399 -0.0110  0.0317
  192MOL   O15034912   6.768   0.417   6.606  0.3544  0.6123  0.1324
  192MOL   H15134913   6.780   0.465   6.320 -0.0264  0.8074  1.4062
  192MOL   H15234914   6.695   0.322   6.359  0.4998  0.2446  0.2973
  192MOL   H15334915   6.570   0.586   6.402 -0.3350 -0.9905 -1.7730
  192MOL   H15434916   6.760   0.339   6.555 -0.3037 -0.1432  1.3700
  192MOL   C15534917   6.462   0.427   6.475  1.1237  0.0280  0.1889
  192MOL   C15634918   6.453   0.334   6.597  0.3756 -0.1334 -0.2056
  192MOL   C15734919   6.497   0.187   6.546 -0.0786 -0.3677 -0.4783
  192MOL   O15834920   6.420   0.110   6.485 -0.0697 -0.0940 -0.2771
  192MOL   O15934921   6.625   0.162   6.581  0.1126 -0.2351 -0.4619
  192MOL   H16034922   6.419   0.383   6.386 -1.1391  0.9403  0.8041
  192MOL   H16134923   6.402   0.517   6.490  0.5039 -0.0800 -1.5795
  192MOL   H16234924   6.525   0.370   6.671 -0.9115  0.5594  0.7397
  192MOL   H16334925   6.663   0.075   6.572 -0.0744 -0.1060 -2.7390
  192MOL   C16434926   6.315   0.334   6.664  0.2662 -0.4311 -0.0371
  192MOL   C16534927   6.303   0.270   6.807 -0.4410 -0.5775 -0.0833
  192MOL   C16634928   6.392   0.346   6.906 -0.6870  0.0662  0.2049
  192MOL   O16734929   6.505   0.304   6.935  0.5625  0.7281 -0.4689
  192MOL   O16834930   6.338   0.463   6.958  0.2306  0.3714 -0.6129
  192MOL   H16934931   6.247   0.297   6.587  0.0763  2.6657 -1.4681
  192MOL   H17034932   6.286   0.439   6.671  0.8847 -0.2892  0.4538
  192MOL   H17134933   6.203   0.294   6.844 -1.8588 -1.5804 -3.1417
  192MOL   H17234934   6.401   0.489   7.023  1.0410  1.3140 -1.7333
  192MOL   C17334935   6.317   0.116   6.819  0.6990 -0.8652  0.1457
  192MOL   C17434936   6.223   0.064   6.935  0.1546 -0.1003 -0.5758
  192MOL   C17534937   6.293   0.071   7.071  0.3274  0.2606 -0.1479
  192MOL   O17634938   6.396   0.006   7.089  0.1149  0.0076  0.0378
  192MOL   O17734939   6.236   0.151   7.157  0.6056 -0.2676 -0.1132
  192MOL   H17834940   6.422   0.102   6.842  0.8818  2.2501  1.5066
  192MOL   H17934941   6.280   0.066   6.730  3.1955  0.6020 -1.7748
  192MOL   H18034942   6.124   0.109   6.929  0.2172  0.1762  0.3106
  192MOL   H18134943   6.298   0.169   7.226  0.8428 -1.5438  0.0161
  192MOL   H18234944   6.203   7.811   6.919  1.2186 -0.5227  0.7670
  193MOL     C134945   1.251   5.693   6.766  0.9418  0.8070  0.2286
  193MOL     C234946   1.395   5.643   6.781  0.3204  0.0612  0.0169
  193MOL     C334947   1.478   5.755   6.851 -0.0611 -0.3637  0.0980
  193MOL     O434948   1.592   5.790   6.811  0.5415 -0.0108 -0.1689
  193MOL     O534949   1.413   5.816   6.952  0.2254 -0.0111 -0.4598
  193MOL     H634950   1.225   5.750   6.677  0.1025  0.8191  0.4770
  193MOL     H734951   1.193   5.601   6.763 -1.0655  2.0713 -1.2572
  193MOL     H834952   1.386   5.548   6.834  0.6605  0.3364  0.5742
  193MOL     H934953   1.482   5.877   6.976 -1.5589  1.8278  0.1677
  193MOL    H1034954   1.215   5.746   6.853 -2.1429 -0.8942  0.0667
  193MOL    C1134955   1.459   5.604   6.644 -0.3778  0.5683 -0.6700
  193MOL    C1234956   1.402   5.492   6.556 -1.0353 -0.1561  0.8922
  193MOL    C1334957   1.388   5.355   6.619 -0.3427  0.4435 -0.1042
  193MOL    O1434958   1.476   5.319   6.699 -0.2752  0.4729 -0.5467
  193MOL    O1534959   1.291   5.272   6.574  0.1631  0.4266  0.5250
  193MOL    H1634960   1.567   5.593   6.649 -0.3231 -1.0504 -3.9810
  193MOL    H1734961   1.446   5.698   6.590 -2.5454  0.9533  0.4709
  193MOL    H1834962   1.299   5.516   6.528 -0.2782  1.6989 -0.3947
  193MOL    H1934963   1.291   5.182   6.604  0.0546 -0.1528 -1.1509
  193MOL    C2034964   1.483   5.485   6.420 -0.1409 -0.7900  0.4259
  193MOL    C2134965   1.397   5.505   6.290  0.2910 -0.6844 -0.2577
  193MOL    C2234966   1.299   5.623   6.305  0.4423  0.1185  0.3104
  193MOL    O2334967   1.179   5.625   6.264  1.0804 -0.1017 -0.2337
  193MOL    O2434968   1.361   5.728   6.354 -0.1358  0.6200  0.1831
  193MOL    H2534969   1.541   5.393   6.407 -0.9229 -1.1074 -0.8269
  193MOL    H2634970   1.552   5.569   6.413  0.4507 -1.2716  0.3431
  193MOL    H2734971   1.471   5.533   6.215 -0.5828 -0.5592 -1.0798
  193MOL    H2834972   1.301   5.800   6.365 -1.5319 -0.5510  0.4652
  193MOL    C2934973   1.341   5.371   6.235  0.0561 -0.1799  0.0309
  193MOL    C3034974   1.319   5.373   6.082 -0.0368  0.4601 -0.1809
  193MOL    C3134975   1.206   5.278   6.045 -0.0053 -0.3959 -1.1224
  193MOL    O3234976   1.090   5.290   6.084 -0.2306 -0.0178 -0.5428
  193MOL    O3334977   1.244   5.181   5.962 -0.1364 -0.0869  0.3296
  193MOL    H3434978   1.244   5.357   6.282 -0.3193 -0.3742 -0.7965
  193MOL    H3534979   1.402   5.285   6.261 -1.1983 -1.6651 -1.8601
  193MOL    H3634980   1.275   5.463   6.039  0.1360  0.2796 -0.7312
  193MOL    H3734981   1.165   5.148   5.922 -0.2229  0.8911 -0.3171
  193MOL    C3834982   1.454   5.341   6.020 -0.3060 -0.0378 -0.0102
  193MOL    C3934983   1.468   5.368   5.865 -0.1788  0.0685  0.0150
  193MOL    C4034984   1.571   5.269   5.824  0.2433 -0.1787 -0.1339
  193MOL    O4134985   1.542   5.173   5.757 -0.0805 -0.1860  0.7461
  193MOL    O4234986   1.694   5.293   5.876 -0.2354  0.4167  0.1696
  193MOL    H4334987   1.477   5.239   6.049 -1.9797 -0.1311  1.0368
  193MOL    H4434988   1.537   5.385   6.077  1.6415 -2.7766 -0.6228
  193MOL    H4534989   1.377   5.339   5.812  0.2135 -0.1077 -0.5606
  193MOL    H4634990   1.755   5.230   5.840 -0.2476  1.2988 -1.4290
  193MOL    C4734991   1.495   5.506   5.807  0.2636  0.0746  0.1559
  193MOL    C4834992   1.388   5.611   5.789  0.4862  0.1454 -0.2265
  193MOL    C4934993   1.340   5.675   5.925 -0.1010 -0.2359  0.1683
  193MOL    O5034994   1.412   5.723   6.007 -0.1227  0.7408  0.0473
  193MOL    O5134995   1.207   5.697   5.926 -0.2865 -0.4842  0.4810
  193MOL    H5234996   1.543   5.495   5.710  0.8740  0.7670  0.3736
  193MOL    H5334997   1.566   5.557   5.873  0.1780 -0.1334  0.4088
  193MOL    H5434998   1.439   5.687   5.730  1.6566 -0.6249 -0.2285
  193MOL    H5534999   1.187   5.749   6.003  0.4486 -0.0162  0.3664
  193MOL    C5635000   1.266   5.560   5.700  0.4929 -0.0552  0.0150
  193MOL    C5735001   1.294   5.504   5.554 -0.3438  0.5454  0.9110
  193MOL    C5835002   1.319   5.625   5.462  0.2697  0.4908 -0.3560
  193MOL    O5935003   1.228   5.665   5.389 -0.2729 -0.4470  0.7476
  193MOL    O6035004   1.445   5.664   5.470  0.4044 -1.0591  0.5515
  193MOL    H6135005   1.191   5.640   5.697  1.6101  0.9685 -2.1152
  193MOL    H6235006   1.223   5.485   5.767 -1.5269  1.7389  0.7956
  193MOL    H6335007   1.386   5.446   5.562  0.4658  1.6717  0.0072
  193MOL    H6435008   1.470   5.743   5.424  0.8547 -1.3678  0.2642
  193MOL    C6535009   1.183   5.414   5.503 -0.3881 -0.3529  0.1235
  193MOL    C6635010   1.174   5.268   5.552 -0.2655 -0.0869 -0.3356
  193MOL    C6735011   1.302   5.185   5.513 -0.0214  0.0215  0.3206
  193MOL    O6835012   1.370   5.197   5.409 -0.0767 -0.0498  0.1729
  193MOL    O6935013   1.323   5.080   5.596  0.8798 -0.3625  0.1422
  193MOL    H7035014   1.186   5.421   5.394  0.9234 -0.8271  0.1223
  193MOL    H7135015   1.086   5.450   5.537 -0.5189  1.8109 -2.3839
  193MOL    H7235016   1.164   5.273   5.660 -0.5893  0.7006 -0.4018
  193MOL    H7335017   1.393   5.026   5.562 -0.4153 -0.5793 -2.2580
  193MOL    C7435018   1.051   5.195   5.496 -0.2485 -0.4684 -0.6120
  193MOL    C7535019   0.934   5.185   5.601  0.1187 -0.6259 -1.1967
  193MOL    C7635020   0.972   5.104   5.724  0.1666 -0.8696  0.1810
  193MOL    O7735021   0.968   5.155   5.833 -0.5261 -0.1584 -0.3558
  193MOL    O7835022   1.006   4.976   5.691 -0.0471  0.4009 -0.0344
  193MOL    H7935023   1.069   5.091   5.467 -0.3163 -0.4804 -0.6088
  193MOL    H8035024   1.022   5.256   5.411 -0.8033 -1.4869 -1.1738
  193MOL    H8135025   0.898   5.280   5.639 -0.4120 -1.1094 -0.4702
  193MOL    H8235026   1.057   4.947   5.765  0.6887  1.7524  0.0112
  193MOL    C8335027   0.806   5.121   5.527 -0.2109  0.4126 -0.4874
  193MOL    C8435028   0.659   5.142   5.577  0.0177  0.2767  0.8922
  193MOL    C8535029   0.627   5.289   5.571  0.1071  0.4684  0.1499
  193MOL    O8635030   0.571   5.351   5.652  0.0315  0.0548  0.4868
  193MOL    O8735031   0.660   5.340   5.451  0.2261 -0.3704 -0.3293
  193MOL    H8835032   0.820   5.014   5.510 -0.3495  0.5357 -1.4334
  193MOL    H8935033   0.809   5.165   5.427 -0.7431  1.6473  0.0320
  193MOL    H9035034   0.587   5.102   5.506  0.0044  0.2332  0.9298
  193MOL    H9135035   0.651   5.434   5.455  0.4731 -0.2844 -1.6195
  193MOL    C9235036   0.647   5.073   5.720 -0.6588 -0.2547 -0.1056
  193MOL    C9335037   0.510   5.031   5.763  0.3896 -0.0639  0.2674
  193MOL    C9435038   0.390   5.131   5.737 -0.1684 -0.1897 -0.8560
  193MOL    O9535039   0.319   5.192   5.823 -0.1322  0.2172 -0.6872
  193MOL    O9635040   0.371   5.136   5.604 -0.1429  0.6085  0.2971
  193MOL    H9735041   0.693   5.131   5.800  0.0531 -1.3481  0.2838
  193MOL    H9835042   0.709   4.984   5.722  1.3013  1.0928  1.0693
  193MOL    H9935043   0.470   4.953   5.698  1.6011  1.1625 -1.9886
  193MOL   H10035044   0.318   5.213   5.590  2.3634  2.0391 -1.9469
  193MOL   C10135045   0.508   4.969   5.911  0.7047 -0.3950 -0.6459
  193MOL   C10235046   0.628   4.887   5.958  0.1140  1.0912 -0.2159
  193MOL   C10335047   0.660   4.763   5.869 -0.5135 -0.7063  0.5551
  193MOL   O10435048   0.578   4.699   5.806  0.4592 -0.2514  0.8391
  193MOL   O10535049   0.798   4.749   5.864  0.2436 -0.2554  0.3812
  193MOL   H10635050   0.421   4.905   5.930  1.0122 -1.0708 -1.4340
  193MOL   H10735051   0.497   5.053   5.979 -0.9888 -1.3626  0.3128
  193MOL   H10835052   0.712   4.956   5.954  0.3417  0.7074 -3.1848
  193MOL   H10935053   0.832   4.672   5.821  0.3916 -0.8750  1.6158
  193MOL   C11035054   0.610   4.841   6.110  0.1034 -0.3552  0.3772
  193MOL   C11135055   0.676   4.936   6.216  0.0146 -0.0625  0.3521
  193MOL   C11235056   0.625   5.079   6.199 -0.5819  0.3905 -0.1014
  193MOL   O11335057   0.508   5.107   6.220 -0.0741 -0.7220  0.1119
  193MOL   O11435058   0.714   5.166   6.142  1.3179 -0.0462 -0.1957
  193MOL   H11535059   0.655   4.742   6.122  2.4452  0.7324  0.9422
  193MOL   H11635060   0.504   4.834   6.131  0.3640 -0.2782  1.7579
  193MOL   H11735061   0.632   4.904   6.310  1.1773  0.0754  0.9519
  193MOL   H11835062   0.671   5.249   6.132 -0.9160 -0.8230  2.4060
  193MOL   C11935063   0.830   4.920   6.215  1.3111 -0.2941  0.3539
  193MOL   C12035064   0.931   5.010   6.304 -0.1606 -0.2123 -0.0555
  193MOL   C12135065   1.078   4.991   6.262 -0.0107  0.0106  0.1770
  193MOL   O12235066   1.116   4.928   6.167  0.1175  0.1621  0.1306
  193MOL   O12335067   1.164   5.073   6.337  0.2143 -0.0473 -0.0599
  193MOL   H12435068   0.853   4.927   6.109 -0.4344  0.0795 -0.0116
  193MOL   H12535069   0.850   4.819   6.249  1.8316 -0.8897 -1.6921
  193MOL   H12635070   0.911   5.115   6.284  0.2593 -0.6310 -2.8036
  193MOL   H12735071   1.257   5.064   6.321  0.1899 -0.3271 -0.0459
  193MOL   C12835072   0.912   4.986   6.454 -0.3164  0.5224 -0.1245
  193MOL   C12935073   0.925   5.116   6.537  0.2472 -0.4483 -0.3511
  193MOL   C13035074   0.945   5.067   6.681  0.2853 -0.1233 -0.6991
  193MOL   O13135075   0.857   5.028   6.757 -0.3725 -0.3802  0.5911
  193MOL   O13235076   1.072   5.065   6.715 -0.3797 -0.6502  0.3724
  193MOL   H13335077   0.992   4.918   6.482 -0.1194  1.2215  1.0501
  193MOL   H13435078   0.818   4.934   6.476  0.4025 -1.5987 -1.9280
  193MOL   H13535079   1.015   5.168   6.505 -0.8194  1.0833 -0.9420
  193MOL   H13635080   1.087   5.027   6.800 -0.6870  1.0932  1.2115
  193MOL   C13735081   0.816   5.224   6.529  0.2803 -0.0627 -0.1091
  193MOL   C13835082   0.851   5.373   6.542 -0.0943 -0.3359 -0.3564
  193MOL   C13935083   0.950   5.419   6.434 -0.0464  0.0087 -0.1471
  193MOL   O14035084   1.070   5.452   6.457  0.5820 -0.1524  0.0957
  193MOL   O14135085   0.895   5.438   6.314  0.2452  1.1915  0.1346
  193MOL   H14235086   0.732   5.211   6.597 -2.2916  0.7156 -3.0335
  193MOL   H14335087   0.765   5.212   6.433  0.8183  0.3497 -0.4509
  193MOL   H14435088   0.756   5.422   6.520  1.7084  2.4490 -2.3335
  193MOL   H14535089   0.967   5.467   6.260  0.6468 -0.7600 -0.4447
  193MOL   C14635090   0.902   5.411   6.687  0.0754 -0.2324  0.9172
  193MOL   C14735091   0.794   5.426   6.794 -0.3207  0.1964 -0.0121
  193MOL   C14835092   0.820   5.545   6.887  0.0649 -0.0421  0.3300
  193MOL   O14935093   0.910   5.540   6.974 -0.4739 -0.3351 -0.3253
  193MOL   O15035094   0.745   5.649   6.853  0.1172  0.5222 -0.6730
  193MOL   H15135095   0.974   5.492   6.688  1.5306 -1.5227  2.1982
  193MOL   H15235096   0.984   5.342   6.703  0.6466  0.1499 -0.2673
  193MOL   H15335097   0.708   5.457   6.734 -1.1843 -3.4568 -0.7693
  193MOL   H15435098   0.781   5.722   6.900  0.9371 -0.3389  0.0464
  193MOL   C15535099   0.756   5.302   6.879 -0.3267  0.1030  0.3969
  193MOL   C15635100   0.659   5.312   7.001 -0.5698 -0.0613 -0.1741
  193MOL   C15735101   0.682   5.188   7.087 -0.2029 -0.2220 -0.1144
  193MOL   O15835102   0.662   5.077   7.038  0.6203  0.0302 -0.4083
  193MOL   O15935103   0.746   5.214   7.205  0.4560 -0.2299 -0.3540
  193MOL   H16035104   0.852   5.269   6.919  0.1348  1.1181  0.1260
  193MOL   H16135105   0.718   5.222   6.815  0.5072  0.0476 -0.0392
  193MOL   H16235106   0.691   5.400   7.057  0.2347  0.2777 -1.1644
  193MOL   H16335107   0.793   5.138   7.236  0.1756 -0.0997  0.4031
  193MOL   C16435108   0.504   5.343   6.968 -0.2074 -0.1485 -0.5411
  193MOL   C16535109   0.413   5.414   7.066  0.9394 -0.7535  0.1768
  193MOL   C16635110   0.442   5.568   7.081 -0.9655  0.1524  0.0373
  193MOL   O16735111   0.474   5.620   7.190 -0.1560  0.7575  0.0427
  193MOL   O16835112   0.439   5.630   6.959 -0.2746  0.2597  0.1211
  193MOL   H16935113   0.447   5.258   6.930  1.3591 -1.6565  0.3876
  193MOL   H17035114   0.520   5.400   6.877 -1.5659 -0.2443 -0.8514
  193MOL   H17135115   0.315   5.418   7.018 -0.0760  0.9074  2.3175
  193MOL   H17235116   0.449   5.724   6.960  0.8215  0.1517  0.7596
  193MOL   C17335117   0.405   5.341   7.199  0.0602  0.4599 -0.2628
  193MOL   C17435118   0.276   5.357   7.282  0.5274 -0.6497 -0.1981
  193MOL   C17535119   0.155   5.286   7.233 -0.4046  0.2415  0.3975
  193MOL   O17635120   0.114   5.307   7.116  0.1440  0.1954 -0.1775
  193MOL   O17735121   0.084   5.211   7.321 -0.2524  0.4071  0.0056
  193MOL   H17835122   0.487   5.365   7.266  1.6614  1.1868 -2.4302
  193MOL   H17935123   0.423   5.233   7.192  1.4049  0.7721 -2.0959
  193MOL   H18035124   0.288   5.326   7.386 -0.0966  1.2960  0.4793
  193MOL   H18135125   0.014   5.168   7.275 -0.5343  2.2778 -1.3682
  193MOL   H18235126   0.245   5.461   7.292  1.0396 -0.6007  0.9710
  194MOL     C135127   6.023   0.070   1.980 -0.2510 -0.2331 -0.6622
  194MOL     C235128   6.077   0.060   2.120  0.7022 -0.3783 -0.0511
  194MOL     C335129   6.058   7.775   2.181 -0.0351 -0.2703  0.2109
  194MOL     O435130   6.141   7.723   2.249 -0.4042 -0.0056 -0.7203
  194MOL     O535131   5.938   7.716   2.155 -0.3388  0.1501  0.1019
  194MOL     H635132   5.915   0.064   1.970 -0.3894  0.7762  0.2154
  194MOL     H735133   6.053   0.164   1.935  0.5168 -0.2309 -0.1600
  194MOL     H835134   6.185   0.071   2.109  0.4206 -0.5847 -3.4107
  194MOL     H935135   5.930   7.630   2.195  1.5312  0.2527  0.7746
  194MOL    H1035136   6.062   7.842   1.918 -0.2732  0.4104 -1.5206
  194MOL    C1135137   6.006   0.176   2.211 -0.1375 -0.0122 -1.1433
  194MOL    C1235138   6.053   0.193   2.358 -0.0882 -0.4171  1.2097
  194MOL    C1335139   5.954   0.277   2.446  0.2537 -0.0397  0.4924
  194MOL    O1435140   5.992   0.367   2.525 -0.1247 -0.3315  0.3764
  194MOL    O1535141   5.825   0.255   2.412 -0.2964 -0.1379 -0.3331
  194MOL    H1635142   5.899   0.156   2.216 -0.0501 -0.0333  1.1151
  194MOL    H1735143   6.009   0.273   2.161 -0.7748  0.1773 -0.8168
  194MOL    H1835144   6.051   0.100   2.414 -1.3225  0.0360  1.9496
  194MOL    H1935145   5.768   0.278   2.483 -2.4299 -1.5191 -1.5412
  194MOL    C2035146   6.190   0.266   2.353  0.4147  0.0140  0.1785
  194MOL    C2135147   6.295   0.266   2.474 -0.1775  0.2755  0.3761
  194MOL    C2235148   6.415   0.362   2.444 -0.0938 -0.3439  0.6941
  194MOL    O2335149   6.462   0.394   2.333 -0.1249 -0.0502  0.4881
  194MOL    O2435150   6.471   0.397   2.563  0.0524  0.5877  0.2998
  194MOL    H2535151   6.177   0.371   2.326  2.0057 -0.0376 -0.8093
  194MOL    H2635152   6.247   0.223   2.271 -0.4141 -0.7741  0.0115
  194MOL    H2735153   6.242   0.294   2.564  1.9809 -0.7835  2.0324
  194MOL    H2835154   6.554   0.439   2.551 -0.8396  1.7296 -2.1408
  194MOL    C2935155   6.339   0.117   2.471 -0.1738 -1.3358 -0.7105
  194MOL    C3035156   6.387   0.043   2.600  0.1834  0.4585 -0.3489
  194MOL    C3135157   6.526   7.833   2.568 -0.2464  0.2082 -0.5224
  194MOL    O3235158   6.638   0.027   2.589 -0.5598  0.3048 -0.1127
  194MOL    O3335159   6.517   7.718   2.502  0.2356  0.5138 -0.4466
  194MOL    H3435160   6.420   0.106   2.398 -0.7351  0.2663 -1.5913
  194MOL    H3535161   6.270   0.050   2.419  1.3388 -1.6558 -2.3769
  194MOL    H3635162   6.416   0.122   2.670 -0.9243  1.1186 -0.6184
  194MOL    H3735163   6.602   7.687   2.476 -0.9866 -2.4339 -1.1599
  194MOL    C3835164   6.284   7.797   2.655 -0.2133  0.3632 -0.2172
  194MOL    C3935165   6.159   0.007   2.730 -0.0852 -0.2291 -0.2223
  194MOL    C4035166   6.211   0.064   2.865 -0.1901  0.3524  0.4507
  194MOL    O4135167   6.302   0.017   2.930  0.1248 -0.1059 -0.3913
  194MOL    O4235168   6.140   0.171   2.902  0.0959 -0.1354 -0.0541
  194MOL    H4335169   6.341   7.733   2.723 -1.1496  0.1881  0.4138
  194MOL    H4435170   6.250   7.738   2.570  0.4115 -2.2013  1.2362
  194MOL    H4535171   6.123   0.088   2.665 -0.6092 -0.9974 -0.9106
  194MOL    H4635172   6.181   0.213   2.975  0.3669 -0.4923  0.0015
  194MOL    C4735173   6.052   7.753   2.768 -1.0296  0.0240  0.1613
  194MOL    C4835174   5.962   7.709   2.648 -0.2203 -0.9527  0.2362
  194MOL    C4935175   5.868   7.819   2.597  0.4457 -0.0818 -0.3245
  194MOL    O5035176   5.850   0.069   2.661  0.0839 -0.1655  0.0402
  194MOL    O5135177   5.821   7.806   2.470  0.2010  0.1789  0.4478
  194MOL    H5235178   5.994   7.805   2.845 -2.0004 -1.9938  0.8185
  194MOL    H5335179   6.099   7.674   2.826 -1.3423 -0.1723  0.1472
  194MOL    H5435180   6.021   7.683   2.560  0.1652  1.0911 -0.1174
  194MOL    H5535181   5.773   0.034   2.458 -2.2676 -1.5054 -1.8205
  194MOL    C5635182   5.884   7.573   2.664 -0.2003  0.0280  0.3532
  194MOL    C5735183   5.964   7.446   2.622  1.0494 -0.4431 -0.1024
  194MOL    C5835184   5.869   7.318   2.632 -0.1401 -0.5061 -0.3024
  194MOL    O5935185   5.875   7.244   2.731  0.0422 -0.3292 -0.2575
  194MOL    O6035186   5.798   7.288   2.527  0.1655 -0.0212  0.2687
  194MOL    H6135187   5.790   7.585   2.610  0.5742 -1.0281 -1.2574
  194MOL    H6235188   5.851   7.564   2.767  0.2251  2.7163  0.7415
  194MOL    H6335189   5.980   7.466   2.516 -2.2787  0.1275 -0.5506
  194MOL    H6435190   5.760   7.202   2.529  1.0716 -0.3958  2.0604
  194MOL    C6535191   6.093   7.423   2.703 -0.4604 -0.1966 -0.4272
  194MOL    C6635192   6.208   7.323   2.668  0.3861 -0.7104  0.0558
  194MOL    C6735193   6.252   7.355   2.524 -0.1440 -0.4867  0.8923
  194MOL    O6835194   6.182   7.333   2.426 -0.6146  0.6947  0.1608
  194MOL    O6935195   6.367   7.422   2.516  0.5679 -0.1076  0.1462
  194MOL    H7035196   6.060   7.412   2.807  0.5675  0.0029 -0.0740
  194MOL    H7135197   6.149   7.516   2.701  0.5382 -0.7408  1.0635
  194MOL    H7235198   6.294   7.346   2.730  1.2084  0.4088 -1.4638
  194MOL    H7335199   6.369   7.463   2.431  1.5065 -0.6844 -0.1156
  194MOL    C7435200   6.164   7.170   2.695 -0.2438  0.0020  0.3094
  194MOL    C7535201   6.279   7.065   2.705 -1.2549 -0.8178  0.3371
  194MOL    C7635202   6.347   7.026   2.570 -0.2184 -0.2484  0.4435
  194MOL    O7735203   6.298   7.047   2.459 -0.3008 -0.1012 -0.1408
  194MOL    O7835204   6.461   6.956   2.588  0.4582  0.1220  0.1756
  194MOL    H7935205   6.091   7.130   2.625 -2.5988  1.7704  1.6714
  194MOL    H8035206   6.103   7.182   2.785 -1.4821 -0.3965 -0.4721
  194MOL    H8135207   6.354   7.111   2.769  1.9046 -0.4781 -3.4252
  194MOL    H8235208   6.495   6.934   2.502  0.8486 -0.3193  0.4390
  194MOL    C8335209   6.255   6.942   2.781 -0.5836 -0.3217 -0.1471
  194MOL    C8435210   6.147   6.846   2.724 -0.1544  0.3759  0.7201
  194MOL    C8535211   6.003   6.886   2.764 -0.1598 -1.0883  0.1912
  194MOL    O8635212   5.924   6.950   2.692  0.1129  0.6052  0.6390
  194MOL    O8735213   5.973   6.846   2.892 -0.1513 -0.0654 -0.1698
  194MOL    H8835214   6.238   6.970   2.885 -0.2730  0.2888 -0.2595
  194MOL    H8935215   6.352   6.896   2.796  1.1151  2.5890 -1.8379
  194MOL    H9035216   6.147   6.838   2.615 -1.8806  0.5824  0.6847
  194MOL    H9135217   5.883   6.873   2.901 -0.5686 -1.3603 -0.2890
  194MOL    C9235218   6.169   6.693   2.760 -0.1335 -0.0994  0.4038
  194MOL    C9335219   6.286   6.617   2.686 -0.0280 -0.3585  0.2441
  194MOL    C9435220   6.256   6.600   2.537  0.0833  0.1547  0.4005
  194MOL    O9535221   6.204   6.495   2.495  0.7765 -0.6353 -0.3189
  194MOL    O9635222   6.311   6.698   2.460 -0.4386 -0.1376  0.2497
  194MOL    H9735223   6.076   6.637   2.755  0.4281 -1.0461  0.2753
  194MOL    H9835224   6.198   6.689   2.865  0.9189 -2.1023  0.0547
  194MOL    H9935225   6.379   6.670   2.706 -0.1285 -0.1175  0.0749
  194MOL   H10035226   6.307   6.667   2.371 -0.7642 -0.2194  0.2936
  194MOL   C10135227   6.303   6.480   2.761 -1.5810 -0.0685  0.0981
  194MOL   C10235228   6.439   6.398   2.754  0.4157 -0.1262  0.1038
  194MOL   C10335229   6.455   6.312   2.629 -0.0139 -0.3194  1.0431
  194MOL   O10435230   6.535   6.335   2.541  1.0485  0.2394  0.2812
  194MOL   O10535231   6.360   6.207   2.628  0.2794  0.5399 -0.7941
  194MOL   H10635232   6.225   6.416   2.720 -0.1150 -2.4403  0.8886
  194MOL   H10735233   6.281   6.484   2.868  1.3954  1.2366  0.7105
  194MOL   H10835234   6.516   6.474   2.748  1.5547 -1.4613 -2.7521
  194MOL   H10935235   6.354   6.156   2.549 -0.6884 -1.4165  0.4938
  194MOL   C11035236   6.463   6.301   2.875 -0.4041  0.0026 -0.2658
  194MOL   C11135237   6.497   6.358   3.013  0.0922 -0.4118  0.8587
  194MOL   C11235238   6.570   6.497   3.010 -0.2816  0.2571  0.2355
  194MOL   O11335239   6.509   6.606   3.020 -0.3908 -0.1351  0.1837
  194MOL   O11435240   6.702   6.488   2.977  0.9946 -0.6483 -0.7266
  194MOL   H11535241   6.545   6.235   2.846 -0.3997  0.0222 -0.2976
  194MOL   H11635242   6.378   6.233   2.882 -0.3026  0.0065  1.0623
  194MOL   H11735243   6.398   6.376   3.054 -1.2975 -1.5762 -1.7946
  194MOL   H11835244   6.748   6.570   2.973  0.8917 -0.6481 -2.0869
  194MOL   C11935245   6.552   6.243   3.097 -0.4931 -0.2905  0.0278
  194MOL   C12035246   6.558   6.268   3.256 -0.3765 -0.0715 -0.2504
  194MOL   C12135247   6.677   6.362   3.293 -0.3250 -1.4049 -0.1401
  194MOL   O12235248   6.658   6.484   3.328 -0.0874  0.0642  0.5856
  194MOL   O12335249   6.804   6.308   3.266  0.1891  0.0202 -0.2177
  194MOL   H12435250   6.648   6.208   3.059 -1.3841 -1.3498 -1.2928
  194MOL   H12535251   6.481   6.162   3.079 -0.3816 -0.4654  0.3762
  194MOL   H12635252   6.465   6.307   3.298  0.1205 -0.8913  1.6813
  194MOL   H12735253   6.873   6.370   3.287 -0.8727  0.2004  3.1084
  194MOL   C12835254   6.576   6.142   3.342 -0.6694  0.4722 -0.6306
  194MOL   C12935255   6.492   6.020   3.304  0.8998  0.0836 -0.6942
  194MOL   C13035256   6.340   6.055   3.286  0.3226 -0.3796  1.3085
  194MOL   O13135257   6.264   6.020   3.193 -0.1024 -0.0540 -0.2066
  194MOL   O13235258   6.295   6.126   3.395  0.5117  0.9176 -0.6183
  194MOL   H13335259   6.557   6.169   3.445  0.0446  3.0280 -1.1185
  194MOL   H13435260   6.682   6.116   3.351 -0.5957  1.5280  1.8025
  194MOL   H13535261   6.540   5.976   3.217  1.1748  0.1952 -0.5998
  194MOL   H13635262   6.202   6.143   3.402  0.6354  1.1825  0.4994
  194MOL   C13735263   6.503   5.913   3.414 -0.0220 -0.2674 -0.2780
  194MOL   C13835264   6.473   5.765   3.371 -0.4220  0.3124  0.4663
  194MOL   C13935265   6.450   5.678   3.490 -0.1987  0.1048 -0.2057
  194MOL   O14035266   6.507   5.688   3.595 -0.0175 -0.2536 -0.5763
  194MOL   O14135267   6.358   5.583   3.465  0.3462 -0.6840 -0.6225
  194MOL   H14235268   6.438   5.938   3.499 -0.5523  0.4020 -0.8798
  194MOL   H14335269   6.602   5.917   3.459 -0.2608  2.0918  0.0661
  194MOL   H14435270   6.381   5.777   3.314  0.1418 -0.1874 -0.5640
  194MOL   H14535271   6.337   5.538   3.545  1.6753 -0.9770 -0.4184
  194MOL   C14635272   6.600   5.704   3.293  0.0659 -0.0077 -0.1916
  194MOL   C14735273   6.556   5.639   3.156 -0.4290 -0.1436 -0.0279
  194MOL   C14835274   6.495   5.500   3.180  0.3278 -0.5398  0.3872
  194MOL   O14935275   6.558   5.397   3.202 -0.1073  0.8189 -0.1480
  194MOL   O15035276   6.361   5.511   3.178 -0.2040 -0.0988  0.7449
  194MOL   H15135277   6.655   5.628   3.348 -1.0804 -0.6366  0.0935
  194MOL   H15235278   6.671   5.783   3.270 -0.5216  0.3745 -0.7321
  194MOL   H15335279   6.485   5.711   3.117 -1.7883 -1.9666 -1.0063
  194MOL   H15435280   6.307   5.437   3.199 -1.6939  0.1322 -2.0813
  194MOL   C15535281   6.679   5.639   3.068 -0.3186  0.4041 -0.3609
  194MOL   C15635282   6.653   5.598   2.921 -0.4538  0.4436  0.4947
  194MOL   C15735283   6.689   5.453   2.888 -0.2110  0.1078 -0.6748
  194MOL   O15835284   6.801   5.415   2.853 -0.5058 -0.4765 -0.0736
  194MOL   O15935285   6.590   5.363   2.893  0.1614 -0.6707 -0.4130
  194MOL   H16035286   6.736   5.561   3.118 -1.0583  0.1455  0.0822
  194MOL   H16135287   6.739   5.731   3.067 -3.1656  2.4616  3.5129
  194MOL   H16235288   6.545   5.605   2.903 -0.9055 -3.9910  0.9197
  194MOL   H16335289   6.627   5.282   2.863  0.0964 -0.6676 -0.5019
  194MOL   C16435290   6.720   5.694   2.820 -0.3805  0.1214 -0.2768
  194MOL   C16535291   6.664   5.832   2.809  0.8072  0.0859 -0.3264
  194MOL   C16635292   6.519   5.828   2.751  0.0812 -0.0899  0.5239
  194MOL   O16735293   6.464   5.725   2.708 -0.6716 -0.0181  0.0730
  194MOL   O16835294   6.456   5.952   2.770 -0.1023  0.1094  0.0810
  194MOL   H16935295   6.716   5.650   2.721 -2.5558  0.7926 -0.5166
  194MOL   H17035296   6.827   5.702   2.838 -0.1599 -1.7236 -0.6324
  194MOL   H17135297   6.659   5.861   2.914 -2.6342 -1.3065 -0.0122
  194MOL   H17235298   6.366   5.940   2.743 -0.1110  1.1594 -0.3654
  194MOL   C17335299   6.758   5.944   2.743  0.0391 -0.4692 -0.2117
  194MOL   C17435300   6.811   5.903   2.603 -0.3664  0.2278 -0.6042
  194MOL   C17535301   6.797   6.002   2.495  0.2335  0.2770  0.3100
  194MOL   O17635302   6.721   6.097   2.505 -0.5097  0.7280 -0.1246
  194MOL   O17735303   6.868   5.980   2.383 -0.4073  0.3373  0.4340
  194MOL   H17835304   6.844   5.969   2.804 -1.3472 -0.2951  1.7129
  194MOL   H17935305   6.701   6.036   2.732  2.8444  1.2141 -1.2082
  194MOL   H18035306   6.912   5.863   2.612  0.1124  1.4399 -0.5354
  194MOL   H18135307   6.859   6.060   2.333 -3.6306  0.7986  1.6288
  194MOL   H18235308   6.751   5.823   2.560 -1.4608  1.4725 -1.4504
  195MOL     C135309   2.017   7.691   3.572 -0.2326  0.0297  1.1679
  195MOL     C235310   1.946   7.821   3.577 -0.6317 -0.4864 -0.1641
  195MOL     C335311   2.050   0.077   3.620 -0.0770  0.1906  0.2821
  195MOL     O435312   2.172   0.059   3.608 -0.1296  0.5773  0.4122
  195MOL     O535313   1.990   0.184   3.687  0.0473 -0.0698  0.2090
  195MOL     H635314   2.087   7.695   3.489  0.7211  0.3197  1.9795
  195MOL     H735315   2.067   7.669   3.666  0.3312 -2.4648  0.3268
  195MOL     H835316   1.922   7.844   3.473 -0.0543  0.2940 -0.1299
  195MOL     H935317   2.046   0.244   3.734 -1.9778  1.3831  0.8334
  195MOL    H1035318   1.948   7.613   3.540 -1.1615  1.9009 -1.5385
  195MOL    C1135319   1.817   7.815   3.661 -0.6116 -0.6345  0.2484
  195MOL    C1235320   1.726   7.697   3.629  0.1675  0.0828 -0.5875
  195MOL    C1335321   1.687   7.693   3.482  0.3565  0.0244  0.2882
  195MOL    O1435322   1.631   7.785   3.419 -0.0188 -0.6221 -0.3421
  195MOL    O1535323   1.714   7.567   3.430 -0.7396  0.0943 -0.0122
  195MOL    H1635324   1.759   0.053   3.651  0.1867  0.0539  1.7065
  195MOL    H1735325   1.846   7.812   3.766 -0.7084  0.0567  0.2977
  195MOL    H1835326   1.780   7.607   3.659 -0.3632  0.7378  2.5031
  195MOL    H1935327   1.691   7.561   3.339 -1.2789  1.2695  0.0444
  195MOL    C2035328   1.607   7.674   3.735 -0.1268 -0.6277 -0.4076
  195MOL    C2135329   1.531   7.811   3.765 -0.0046  0.8527 -0.2094
  195MOL    C2235330   1.578   0.034   3.890  0.3311 -0.0690  0.0082
  195MOL    O2335331   1.635   0.139   3.883  0.0691  0.3971 -0.0928
  195MOL    O2435332   1.540   7.823   4.004 -0.4658 -0.0779 -0.5171
  195MOL    H2535333   1.641   7.619   3.822 -1.8746  0.4992  1.0192
  195MOL    H2635334   1.538   7.603   3.689  0.3719  0.2850 -2.6625
  195MOL    H2735335   1.547   0.021   3.678  1.3998 -1.5300 -1.7407
  195MOL    H2835336   1.548   0.034   4.073 -1.4513  0.1366 -0.5886
  195MOL    C2935337   1.382   7.778   3.762  1.2483 -0.3947  0.1397
  195MOL    C3035338   1.281   0.047   3.779  0.8985 -0.1944 -0.0672
  195MOL    C3135339   1.154   7.844   3.844 -0.1480 -0.2215  0.2459
  195MOL    O3235340   1.063   7.790   3.774  0.2463  0.7181 -0.4976
  195MOL    O3335341   1.148   0.004   3.980 -0.0286  0.1843 -0.5371
  195MOL    H3435342   1.367   7.697   3.834  3.5383 -0.2128  0.8600
  195MOL    H3535343   1.352   7.733   3.667 -0.6757  0.5587  0.2700
  195MOL    H3635344   1.324   0.117   3.850 -1.6441 -0.3341  1.6853
  195MOL    H3735345   1.063   7.837   4.016  0.4639  0.6216  0.8604
  195MOL    C3835346   1.242   0.117   3.640  0.4736  0.5028 -0.2814
  195MOL    C3935347   1.171   0.254   3.653  0.2008  0.1353  0.0407
  195MOL    C4035348   1.054   0.276   3.556  0.3114 -0.6307 -0.0178
  195MOL    O4135349   1.022   0.196   3.467  0.3385  0.0984 -0.2821
  195MOL    O4235350   0.989   0.392   3.569 -0.1160  0.1319 -0.3322
  195MOL    H4335351   1.193   0.046   3.573 -2.1590  1.3699  0.6831
  195MOL    H4435352   1.342   0.140   3.601  0.5369 -0.1453 -0.5218
  195MOL    H4535353   1.121   0.257   3.749  1.5522 -0.2455  0.7648
  195MOL    H4635354   0.911   0.387   3.516 -1.7708  2.5609  1.7543
  195MOL    C4735355   1.267   0.371   3.647 -0.4028 -0.4241  0.8499
  195MOL    C4835356   1.359   0.375   3.515 -0.5632  0.2149 -0.5824
  195MOL    C4935357   1.507   0.367   3.547  0.2132 -0.3182  0.5777
  195MOL    O5035358   1.575   0.267   3.551  0.2632  0.8938 -0.2250
  195MOL    O5135359   1.560   0.491   3.564 -0.4348 -0.3594  0.8429
  195MOL    H5235360   1.329   0.371   3.736 -0.9101 -0.4208  1.2045
  195MOL    H5335361   1.213   0.463   3.667 -1.1168 -0.4049 -1.0597
  195MOL    H5435362   1.335   0.293   3.449 -1.6625 -1.3734  1.7204
  195MOL    H5535363   1.653   0.479   3.578 -0.1292 -1.1165 -1.6469
  195MOL    C5635364   1.309   0.501   3.438  0.0950 -0.2021  0.4396
  195MOL    C5735365   1.355   0.509   3.288  0.2250 -0.5243  0.0805
  195MOL    C5835366   1.473   0.613   3.278  0.4775 -0.7539 -0.3644
  195MOL    O5935367   1.451   0.733   3.308 -0.3537  0.3001  0.1266
  195MOL    O6035368   1.587   0.575   3.216  0.4423  0.2812  0.1879
  195MOL    H6135369   1.329   0.587   3.501 -0.6478 -0.9989  1.8012
  195MOL    H6235370   1.201   0.504   3.448  0.0594 -1.7975  0.7967
  195MOL    H6335371   1.406   0.418   3.259  1.6224  0.7713 -1.6432
  195MOL    H6435372   1.582   0.481   3.217 -0.1440  0.2758 -1.5856
  195MOL    C6535373   1.229   0.549   3.199 -0.3302  0.3011  0.4109
  195MOL    C6635374   1.145   0.426   3.156 -0.1501 -0.2847 -0.1215
  195MOL    C6735375   1.218   0.337   3.055 -0.5870 -0.3577  0.1081
  195MOL    O6835376   1.325   0.357   2.991 -0.6290  0.2525  0.7102
  195MOL    O6935377   1.162   0.215   3.053 -0.2294 -0.5260  0.2869
  195MOL    H7035378   1.259   0.593   3.103  2.6466 -1.4147  0.4817
  195MOL    H7135379   1.156   0.610   3.252 -0.8284  0.0374  0.0338
  195MOL    H7235380   1.129   0.368   3.247 -1.0409 -0.9905 -0.7216
  195MOL    H7335381   1.216   0.160   2.999 -1.8584 -2.5285  0.6467
  195MOL    C7435382   1.010   0.481   3.098  0.6274  0.0317 -0.1660
  195MOL    C7535383   0.891   0.381   3.041 -0.2242 -0.4829 -0.0306
  195MOL    C7635384   0.790   0.466   2.971  0.1814 -0.4892  0.0449
  195MOL    O7735385   0.794   0.480   2.847  0.0360 -0.4150  0.2302
  195MOL    O7835386   0.720   0.539   3.057 -0.2199 -0.3600 -0.1433
  195MOL    H7935387   1.018   0.552   3.016  2.1644  0.0700  0.0018
  195MOL    H8035388   0.965   0.543   3.175  2.6196  0.2223  0.8534
  195MOL    H8135389   0.927   0.302   2.977 -0.7946  0.7821 -1.9491
  195MOL    H8235390   0.672   0.606   3.010 -0.6095 -0.3609  0.2521
  195MOL    C8335391   0.847   0.292   3.163 -0.4955 -0.0182  0.3534
  195MOL    C8435392   0.756   0.171   3.139 -0.4730 -0.0339  0.3487
  195MOL    C8535393   0.608   0.207   3.160  0.1425  0.4718 -0.2382
  195MOL    O8635394   0.553   0.272   3.248 -0.1299  0.1079  0.2044
  195MOL    O8735395   0.545   0.130   3.071  0.6295  0.8757  0.3360
  195MOL    H8835396   0.806   0.366   3.232 -1.1796  1.3526 -1.4808
  195MOL    H8935397   0.935   0.260   3.218 -0.5433  0.6496  0.8284
  195MOL    H9035398   0.775   0.135   3.038 -0.9236 -0.4832  0.4258
  195MOL    H9135399   0.451   0.141   3.069  0.6910  1.5637  1.1541
  195MOL    C9235400   0.784   0.055   3.239 -0.8609  0.3675  0.5865
  195MOL    C9335401   0.914   7.825   3.206 -0.1082 -0.2473  0.1006
  195MOL    C9435402   0.892   7.753   3.066  0.4599 -0.2104  0.3010
  195MOL    O9535403   0.781   7.703   3.030 -0.0672 -0.5837 -0.2016
  195MOL    O9635404   1.007   7.765   2.991 -0.1645  0.3283  0.0844
  195MOL    H9735405   0.698   7.841   3.249 -0.3006 -0.8865 -2.4697
  195MOL    H9835406   0.797   0.096   3.340  0.4716 -1.4130  1.1677
  195MOL    H9935407   0.997   0.040   3.188  0.4566 -1.1989 -1.0354
  195MOL   H10035408   0.983   7.732   2.906 -0.4914  1.2008 -0.1684
  195MOL   C10135409   0.941   7.724   3.323 -0.1604  1.0019 -0.0621
  195MOL   C10235410   1.050   7.612   3.306  0.3908 -0.4659 -0.0042
  195MOL   C10335411   0.990   7.477   3.277  0.0093 -0.0976 -0.5101
  195MOL   O10435412   0.914   7.422   3.357 -0.1036  0.5711  0.2651
  195MOL   O10535413   1.040   7.423   3.160 -1.1632 -0.0435  0.6285
  195MOL   H10635414   0.848   7.678   3.356  0.5122  0.3594  0.9799
  195MOL   H10735415   0.969   7.796   3.400 -2.7378  1.3408  0.6130
  195MOL   H10835416   1.120   7.636   3.227  0.0221 -0.8623 -0.4562
  195MOL   H10935417   0.984   7.349   3.144 -0.9688 -0.4564  1.7998
  195MOL   C11035418   1.120   7.600   3.442  0.0876  0.3858 -0.4126
  195MOL   C11135419   1.271   7.557   3.429  0.2242 -0.2718  0.4138
  195MOL   C11235420   1.364   7.651   3.342  0.0558 -0.4370  0.2443
  195MOL   O11335421   1.446   7.600   3.262  0.3605 -0.3205 -0.2995
  195MOL   O11435422   1.340   7.782   3.358 -0.1972  0.1815  0.0036
  195MOL   H11535423   1.068   7.539   3.517 -0.2538  1.5953  0.3574
  195MOL   H11635424   1.123   7.694   3.498  1.4896 -1.0255  1.9923
  195MOL   H11735425   1.315   7.583   3.525  1.2801  0.7708 -0.3311
  195MOL   H11835426   1.401   7.829   3.304  0.2572  1.4202  1.5237
  195MOL   C11935427   1.289   7.400   3.401  0.2469 -0.5814 -0.3431
  195MOL   C12035428   1.309   7.310   3.523 -1.3037 -0.1622 -0.8441
  195MOL   C12135429   1.187   7.307   3.614 -0.0448  0.3373  0.3676
  195MOL   O12235430   1.097   7.223   3.607 -0.7500  0.0203  0.0500
  195MOL   O12335431   1.182   7.408   3.700  0.2677  0.0814  0.7241
  195MOL   H12435432   1.375   7.391   3.335  0.8035  0.4599  0.2183
  195MOL   H12535433   1.202   7.363   3.347 -0.0073 -0.1913 -0.2024
  195MOL   H12635434   1.332   7.212   3.481  1.1388 -0.8761  1.9819
  195MOL   H12735435   1.104   7.395   3.751 -1.1146 -1.1674 -1.6352
  195MOL   C12835436   1.445   7.344   3.597  0.3408 -0.8638  0.1214
  195MOL   C12935437   1.544   7.227   3.620  0.6978 -0.5036 -0.4393
  195MOL   C13035438   1.483   7.119   3.707  0.0077 -0.2862  0.1384
  195MOL   O13135439   1.409   7.147   3.803 -1.0331  0.0061  0.1413
  195MOL   O13235440   1.530   6.998   3.668  0.1570  0.8589 -0.1579
  195MOL   H13335441   1.425   7.391   3.694  0.7724 -1.2198  0.3842
  195MOL   H13435442   1.499   7.407   3.527  0.5227 -1.5064 -0.3118
  195MOL   H13535443   1.562   7.189   3.520  1.7545  1.6078 -1.0899
  195MOL   H13635444   1.488   6.937   3.727 -1.8298  0.7774 -1.5940
  195MOL   C13735445   1.677   7.286   3.681 -0.0389 -0.3172  0.3658
  195MOL   C13835446   1.802   7.194   3.694  0.1350  0.4986  0.0834
  195MOL   C13935447   1.909   7.279   3.767 -0.0431 -0.1751 -1.1068
  195MOL   O14035448   2.005   7.322   3.713 -0.1986 -0.0847  0.2717
  195MOL   O14135449   1.882   7.302   3.899  0.5004 -0.2741  0.2113
  195MOL   H14235450   1.645   7.314   3.782 -0.0110 -0.2107  0.3451
  195MOL   H14335451   1.702   7.384   3.641  1.4890 -0.2849  1.3831
  195MOL   H14435452   1.789   7.104   3.755  0.0291 -0.7149 -1.6859
  195MOL   H14535453   1.955   7.355   3.928 -0.7733  0.7243  1.6245
  195MOL   C14635454   1.852   7.150   3.548  0.2485 -0.0710 -0.1954
  195MOL   C14735455   1.957   7.034   3.549  0.5271  0.8008 -0.3723
  195MOL   C14835456   2.035   7.023   3.415 -0.0986  0.4493  0.6117
  195MOL   O14935457   2.157   7.021   3.394  0.0392 -0.3510  0.5296
  195MOL   O15035458   1.948   7.017   3.316  0.0356  0.1422  0.1064
  195MOL   H15135459   1.891   7.239   3.498 -2.3661  0.9774 -0.4278
  195MOL   H15235460   1.768   7.127   3.483 -1.6315  0.5314  1.9813
  195MOL   H15335461   2.022   7.044   3.636 -2.1725 -1.2837  1.9633
  195MOL   H15435462   2.005   7.022   3.240  2.1564  0.2853  1.6535
  195MOL   C15535463   1.880   6.897   3.570 -0.0711  0.5432  0.1803
  195MOL   C15635464   1.967   6.783   3.622  0.4739 -0.0227 -0.0574
  195MOL   C15735465   1.903   6.650   3.581 -0.0923  0.1388 -0.3948
  195MOL   O15835466   1.785   6.633   3.584  0.1298  0.1608  0.2477
  195MOL   O15935467   2.006   6.566   3.543 -0.0994  0.0243  0.5153
  195MOL   H16035468   1.834   6.871   3.475  1.3967 -0.2435 -0.3282
  195MOL   H16135469   1.799   6.914   3.642 -0.9443 -2.6075 -0.0183
  195MOL   H16235470   2.060   6.785   3.566 -0.5099  0.4820 -1.6819
  195MOL   H16335471   1.974   6.480   3.522  0.8023 -1.0320  3.2319
  195MOL   C16435472   1.996   6.799   3.770 -0.9354  0.1792 -0.3795
  195MOL   C16535473   2.144   6.827   3.815 -0.5408 -1.1831 -0.0861
  195MOL   C16635474   2.244   6.723   3.759 -0.2904 -0.0995  0.4875
  195MOL   O16735475   2.340   6.741   3.683  0.0306  0.3562 -0.1066
  195MOL   O16835476   2.220   6.598   3.801  0.5819  0.2224 -0.2031
  195MOL   H16935477   1.955   6.714   3.826 -0.4618  0.8924  1.0768
  195MOL   H17035478   1.939   6.881   3.813 -1.3455  0.4283 -1.4053
  195MOL   H17135479   2.168   6.920   3.764 -0.2735 -2.5900 -2.6006
  195MOL   H17235480   2.144   6.607   3.857  1.9350  0.4031  1.6808
  195MOL   C17335481   2.152   6.832   3.969 -0.1126 -0.8844  0.2718
  195MOL   C17435482   2.091   6.957   4.039  0.4888  0.0383  0.2909
  195MOL   C17535483   2.170   7.081   4.022  0.8821 -0.3571  0.0058
  195MOL   O17635484   2.237   7.135   4.112  0.5384 -0.3070  0.5089
  195MOL   O17735485   2.162   7.136   3.899 -0.0196  0.2357 -0.8373
  195MOL   H17835486   2.257   6.822   3.998 -0.3611 -1.5679  0.9484
  195MOL   H17935487   2.096   6.748   4.009 -1.1205 -0.0744  0.5805
  195MOL   H18035488   1.991   6.965   3.995  1.6454 -1.7377 -2.8387
  195MOL   H18135489   2.226   7.202   3.879 -0.4291  0.8720 -0.1029
  195MOL   H18235490   2.082   6.935   4.145 -0.2454  2.1351  0.6840
  196MOL     C135491   1.948   4.395   6.455 -0.1356  0.1499  0.9808
  196MOL     C235492   1.914   4.304   6.336 -0.2783 -0.7376  0.0671
  196MOL     C335493   2.024   4.282   6.229  0.3896 -0.4706  0.5227
  196MOL     O435494   2.108   4.377   6.208  0.6520  0.1530 -0.2490
  196MOL     O535495   2.002   4.160   6.167  0.1429  0.3267  0.8138
  196MOL     H635496   1.931   4.500   6.433 -0.3732 -0.4613 -1.9072
  196MOL     H735497   1.905   4.374   6.553  1.3682 -0.8044  1.4527
  196MOL     H835498   1.915   4.203   6.376 -0.2095 -0.8338 -0.1757
  196MOL     H935499   2.059   4.147   6.092 -0.9873 -0.4387  0.0724
  196MOL    H1035500   2.057   4.392   6.465 -0.3131  0.6616  3.6501
  196MOL    C1135501   1.779   4.335   6.272  0.7468 -0.3757  0.0382
  196MOL    C1235502   1.657   4.303   6.368  0.3626  0.2731  0.0420
  196MOL    C1335503   1.643   4.155   6.392 -0.3671 -0.3170  0.4576
  196MOL    O1435504   1.613   4.069   6.306  0.6505 -0.2554 -0.3800
  196MOL    O1535505   1.714   4.117   6.496  0.4280 -0.1770  0.4032
  196MOL    H1635506   1.752   4.289   6.177  1.8792  0.6267 -0.7850
  196MOL    H1735507   1.790   4.440   6.242  1.2368 -0.7520 -1.1038
  196MOL    H1835508   1.681   4.359   6.458 -1.0612  1.0183 -0.0280
  196MOL    H1935509   1.718   4.025   6.517 -2.8278 -0.3791  0.4068
  196MOL    C2035510   1.519   4.350   6.312  0.3027  0.2656  0.4523
  196MOL    C2135511   1.488   4.497   6.351  0.5104 -0.1109 -0.6947
  196MOL    C2235512   1.354   4.504   6.431 -0.2745  0.3407 -0.5037
  196MOL    O2335513   1.250   4.556   6.389  0.4189 -0.4236 -0.2773
  196MOL    O2435514   1.353   4.429   6.546  0.2340 -0.3998  0.1245
  196MOL    H2535515   1.438   4.288   6.348  1.2528 -1.4256 -0.2863
  196MOL    H2635516   1.514   4.328   6.205 -0.5177 -1.0400  0.7604
  196MOL    H2735517   1.563   4.544   6.414 -1.6037  1.3927  0.7775
  196MOL    H2835518   1.265   4.434   6.579 -0.1200 -2.4611 -0.4380
  196MOL    C2935519   1.469   4.589   6.225 -0.1218 -0.2479  0.1272
  196MOL    C3035520   1.465   4.745   6.250 -0.4148  0.0937 -0.3503
  196MOL    C3135521   1.461   4.817   6.110  0.4689 -0.1445 -0.3600
  196MOL    O3235522   1.489   4.758   6.004  0.1329  0.4328 -0.1726
  196MOL    O3335523   1.421   4.941   6.111  0.0528  0.6212  0.3352
  196MOL    H3435524   1.374   4.563   6.177  0.5656 -1.4757 -0.6056
  196MOL    H3535525   1.549   4.565   6.154  0.1339  1.5093 -0.2092
  196MOL    H3635526   1.364   4.774   6.279 -0.7716 -1.6337  0.1676
  196MOL    H3735527   1.427   4.966   6.020  0.8786  1.5635  0.6475
  196MOL    C3835528   1.579   4.804   6.333 -0.5331 -0.4962 -0.4526
  196MOL    C3935529   1.543   4.826   6.481 -0.2580  0.4112  0.0553
  196MOL    C4035530   1.442   4.937   6.499  0.3107  0.7808  0.0180
  196MOL    O4135531   1.432   5.028   6.421 -0.3853  0.2040 -0.0055
  196MOL    O4235532   1.370   4.928   6.619  0.2563 -0.2219  0.1102
  196MOL    H4335533   1.600   4.905   6.299  0.9213 -0.2277  1.1824
  196MOL    H4435534   1.663   4.735   6.328 -0.6824 -0.6546 -0.8027
  196MOL    H4535535   1.503   4.732   6.519 -0.3377  0.0030 -1.0261
  196MOL    H4635536   1.385   4.847   6.666  1.4684  1.0599  2.0191
  196MOL    C4735537   1.672   4.859   6.562  0.3148 -0.5502  0.3515
  196MOL    C4835538   1.768   4.743   6.604 -0.1993 -0.8947  0.4189
  196MOL    C4935539   1.731   4.652   6.731  0.1457  0.3560  0.8759
  196MOL    O5035540   1.703   4.695   6.844 -0.2645  0.5132  0.3779
  196MOL    O5135541   1.716   4.525   6.688  0.1408 -0.1989 -0.3626
  196MOL    H5235542   1.638   4.908   6.653  1.1402 -1.5650  1.2171
  196MOL    H5335543   1.717   4.945   6.512 -1.2603  1.1967  1.8730
  196MOL    H5435544   1.758   4.681   6.515 -1.1940 -1.7566  1.1195
  196MOL    H5535545   1.719   4.459   6.756 -0.9713 -0.8070 -0.8824
  196MOL    C5635546   1.917   4.791   6.610 -0.2717 -0.6361 -0.0837
  196MOL    C5735547   1.961   4.866   6.741  0.5239  0.4255 -0.2852
  196MOL    C5835548   1.892   5.004   6.747 -0.0611  0.0646 -0.0031
  196MOL    O5935549   1.782   5.025   6.799 -0.2813  0.1694 -0.6048
  196MOL    O6035550   1.962   5.105   6.683 -0.2525  0.4535 -0.4102
  196MOL    H6135551   1.936   4.848   6.520  1.9130 -2.2282 -0.6772
  196MOL    H6235552   1.976   4.699   6.605 -0.8086 -1.0168  0.4541
  196MOL    H6335553   1.921   4.807   6.824 -1.7984  1.6731 -0.5096
  196MOL    H6435554   1.910   5.184   6.677  0.8595  1.3555  1.3012
  196MOL    C6535555   2.115   4.857   6.762  0.2779  0.5126 -0.5502
  196MOL    C6635556   2.162   4.893   6.908 -0.2705  0.7200  0.0098
  196MOL    C6735557   2.317   4.889   6.913 -0.5241  0.7368 -0.5856
  196MOL    O6835558   2.384   4.789   6.920  0.1580  0.4901  0.5905
  196MOL    O6935559   2.377   5.008   6.904  0.1516  0.6398 -0.0467
  196MOL    H7035560   2.161   4.927   6.692  0.1195  0.8533 -0.3159
  196MOL    H7135561   2.154   4.762   6.727 -2.2080 -1.1595  1.0823
  196MOL    H7235562   2.136   4.996   6.933 -0.1470  1.0080 -1.0200
  196MOL    H7335563   2.301   5.063   6.910 -0.1618  0.0078  2.6089
  196MOL    C7435564   2.101   4.793   7.026  0.0045  0.0290 -0.4417
  196MOL    C7535565   2.077   4.857   7.165  0.3089  0.3308 -0.5925
  196MOL    C7635566   2.202   4.893   7.240 -0.2102 -0.1377 -0.2556
  196MOL    O7735567   2.288   4.811   7.267 -0.1547  0.0092 -0.0983
  196MOL    O7835568   2.216   5.024   7.267  0.5199 -0.1540  0.2187
  196MOL    H7935569   2.175   4.717   7.052 -1.0386 -1.3454 -1.4139
  196MOL    H8035570   2.014   4.735   6.994  0.3157 -1.7454  1.8097
  196MOL    H8135571   2.005   4.939   7.163 -0.2108 -0.1217 -0.6685
  196MOL    H8235572   2.302   5.039   7.304 -0.7192 -0.7908  3.6299
  196MOL    C8335573   1.991   4.756   7.243 -0.1146 -0.4669 -0.5823
  196MOL    C8435574   1.951   4.800   7.387  0.9230 -0.7628 -0.5132
  196MOL    C8535575   1.946   4.675   7.476 -0.2781 -0.3169  0.2150
  196MOL    O8635576   1.926   4.560   7.434  0.3114  0.3641  0.2002
  196MOL    O8735577   1.940   4.699   7.609 -0.0528 -0.1425 -0.1675
  196MOL    H8835578   2.047   4.662   7.242 -0.0595 -0.4335 -0.9654
  196MOL    H8935579   1.897   4.731   7.195 -0.7382  2.1332 -0.7886
  196MOL    H9035580   2.038   4.852   7.428 -0.3121  0.6091  0.4315
  196MOL    H9135581   1.926   4.620   7.659  0.4846  0.8579  1.5827
  196MOL    C9235582   1.838   4.894   7.402 -0.2356  0.7181 -0.1398
  196MOL    C9335583   1.699   4.833   7.353 -0.2647 -0.3359  0.1406
  196MOL    C9435584   1.674   4.872   7.205 -0.2889 -0.3360  0.5996
  196MOL    O9535585   1.728   4.961   7.158  0.0716  0.0183  0.0451
  196MOL    O9635586   1.604   4.784   7.142 -0.4774 -0.5477  0.1489
  196MOL    H9735587   1.855   4.992   7.357  1.8250 -0.4946 -2.1185
  196MOL    H9835588   1.825   4.923   7.506  1.2842  0.4473  0.1268
  196MOL    H9935589   1.690   4.724   7.351 -1.4094 -0.2063 -1.8684
  196MOL   H10035590   1.567   4.814   7.060 -0.5826 -2.4922 -0.5363
  196MOL   C10135591   1.587   4.866   7.459 -0.0130 -0.3544 -0.6721
  196MOL   C10235592   1.592   4.793   7.604  0.5679 -0.5987  0.4849
  196MOL   C10335593   1.565   4.648   7.579 -0.1994  0.0580 -0.0769
  196MOL   O10435594   1.504   4.602   7.486  0.1820 -0.1720  0.3004
  196MOL   O10535595   1.618   4.570   7.679  0.0252  0.0562  0.5456
  196MOL   H10635596   1.490   4.854   7.411 -1.3084 -0.9786  1.9907
  196MOL   H10735597   1.601   4.971   7.483 -0.5642 -0.7447  1.3970
  196MOL   H10835598   1.696   4.801   7.636 -0.4799  1.8170  3.5314
  196MOL   H10935599   1.608   4.482   7.644 -0.7649  0.4400 -0.2296
  196MOL   C11035600   1.496   4.854   7.709 -0.0476 -0.1379  0.1481
  196MOL   C11135601   1.531   4.829   0.000 -0.1563 -0.0631 -0.0699
  196MOL   C11235602   1.405   4.828   0.095 -0.7598 -0.1712 -0.2625
  196MOL   O11335603   1.381   4.916   0.178 -0.0565  0.5651 -0.0252
  196MOL   O11435604   1.337   4.714   0.073 -0.4191  0.5604  0.2041
  196MOL   H11535605   1.393   4.827   7.687  0.3951  0.0515 -2.2769
  196MOL   H11635606   1.496   4.962   7.691  1.2972  0.2381  2.2300
  196MOL   H11735607   1.555   4.723   7.851  2.3721  0.4873 -2.8193
  196MOL   H11835608   1.264   4.710   0.132  0.0865  3.8339  1.0976
  196MOL   C11935609   1.640   4.924   0.053 -0.1000 -0.6340 -0.5213
  196MOL   C12035610   1.743   4.863   0.152 -0.7044 -0.1005 -0.3281
  196MOL   C12135611   1.834   4.968   0.214  0.0432  0.4085  0.0369
  196MOL   O12235612   1.821   5.087   0.198 -0.0669  0.2866  0.0789
  196MOL   O12335613   1.935   4.910   0.290 -0.4143 -0.1869 -0.4218
  196MOL   H12435614   1.593   5.011   0.099  0.6006 -0.8216  0.5496
  196MOL   H12535615   1.693   4.964   7.819 -0.1723  0.2415 -0.1664
  196MOL   H12635616   1.695   4.818   0.240  0.1343  1.8070  1.1448
  196MOL   H12735617   1.983   4.977   0.336 -0.2330 -0.8856  0.4073
  196MOL   C12835618   1.823   4.754   0.078  0.0057  0.5078  0.6144
  196MOL   C12935619   1.850   4.619   0.151  0.3031  0.0150 -0.4127
  196MOL   C13035620   1.950   4.537   0.068 -0.0545 -0.2786  0.7680
  196MOL   O13135621   1.929   4.504   7.804 -0.0416 -0.3726  0.3156
  196MOL   O13235622   2.067   4.521   0.136 -0.1995  0.1184 -0.8364
  196MOL   H13335623   1.922   4.794   0.055  0.7377 -1.3470  0.4889
  196MOL   H13435624   1.772   4.737   7.837  1.2126 -0.3768  0.1108
  196MOL   H13535625   1.900   4.652   0.241 -2.1395  2.3557  0.1549
  196MOL   H13635626   2.137   4.494   0.078  0.6961 -2.3967  1.3097
  196MOL   C13735627   1.720   4.529   0.175  0.0388  0.0590 -0.1159
  196MOL   C13835628   1.735   4.408   0.262  0.0765 -0.2850 -0.0118
  196MOL   C13935629   1.617   4.315   0.242  0.9413 -0.1144  0.2053
  196MOL   O14035630   1.619   4.197   0.259  0.2503 -0.0042 -0.0394
  196MOL   O14135631   1.506   4.378   0.213 -0.1077  0.4208 -0.0071
  196MOL   H14235632   1.687   4.502   0.074  0.7995  0.5819 -0.5059
  196MOL   H14335633   1.650   4.604   0.212 -1.8846 -1.3810 -0.7657
  196MOL   H14435634   1.821   4.351   0.226 -1.2926 -2.4636  0.0520
  196MOL   H14535635   1.425   4.329   0.217 -0.9244  1.6289 -1.2395
  196MOL   C14635636   1.754   4.435   0.414 -0.3923  0.0999  0.3835
  196MOL   C14735637   1.630   4.462   0.505 -0.4378  0.3545 -0.2641
  196MOL   C14835638   1.570   4.599   0.489 -0.1571  0.2043 -0.5389
  196MOL   O14935639   1.450   4.617   0.490 -0.6416  0.8611  0.0089
  196MOL   O15035640   1.658   4.699   0.493 -0.5539 -0.0567 -0.6976
  196MOL   H15135641   1.829   4.515   0.418  0.2256 -0.4495 -0.1558
  196MOL   H15235642   1.804   4.350   0.459 -1.0183 -1.0691 -1.0982
  196MOL   H15335643   1.544   4.400   0.479  0.5306 -0.0210 -2.7277
  196MOL   H15435644   1.603   4.776   0.495  0.5695  0.7424 -0.0067
  196MOL   C15535645   1.662   4.427   0.655  0.5453  0.0416  0.2824
  196MOL   C15635646   1.553   4.464   0.752  0.6887 -0.3168 -0.1736
  196MOL   C15735647   1.573   4.604   0.823 -0.0094  0.5666  0.5291
  196MOL   O15835648   1.516   4.710   0.779 -0.5776  0.8157 -0.1707
  196MOL   O15935649   1.650   4.592   0.930  0.8010  0.3065 -0.1777
  196MOL   H16035650   1.748   4.485   0.688 -1.1009  4.0154 -2.0052
  196MOL   H16135651   1.680   4.320   0.667  0.3135 -0.0635 -0.3090
  196MOL   H16235652   1.459   4.454   0.698 -0.6541  2.0858  1.5921
  196MOL   H16335653   1.648   4.678   0.968  1.3487  1.4572 -2.6310
  196MOL   C16435654   1.525   4.350   0.857 -0.0581 -0.8125  0.2114
  196MOL   C16535655   1.377   4.359   0.906  0.0521 -0.1094  0.6217
  196MOL   C16635656   1.368   4.387   1.057 -0.1000  0.0882  0.1210
  196MOL   O16735657   1.347   4.304   1.145 -0.0072  0.7319 -0.3709
  196MOL   O16835658   1.389   4.517   1.085 -0.5963 -0.3223 -0.3085
  196MOL   H16935659   1.595   4.351   0.940  0.3687 -0.0569 -0.1543
  196MOL   H17035660   1.533   4.253   0.808 -0.9035  0.7320 -3.1796
  196MOL   H17135661   1.326   4.441   0.855  4.3844  0.2702 -3.3940
  196MOL   H17235662   1.387   4.531   1.178  3.0944 -2.9443  0.3277
  196MOL   C17335663   1.288   4.236   0.887  0.2996 -0.5655  0.3059
  196MOL   C17435664   1.266   4.182   0.735 -0.0051 -0.4158  0.5258
  196MOL   C17535665   1.250   4.295   0.629  0.2946 -0.1119 -0.7992
  196MOL   O17635666   1.310   4.299   0.521  0.5494 -0.3988  0.6013
  196MOL   O17735667   1.165   4.390   0.675 -0.0984  0.1310 -0.4255
  196MOL   H17835668   1.188   4.250   0.928  0.2381  0.9691 -0.3393
  196MOL   H17935669   1.329   4.153   0.946  0.8502  0.6606  1.6730
  196MOL   H18035670   1.367   4.153   0.706  0.6433  0.7185  1.6029
  196MOL   H18135671   1.164   4.469   0.622  1.2748 -0.9609 -2.1606
  196MOL   H18235672   1.186   4.109   0.727  1.5499 -2.2063  0.9829
  197MOL     C135673   0.106   7.572   0.732  0.1956 -0.0744 -0.6439
  197MOL     C235674   7.815   7.521   0.719 -0.2316 -0.1683  0.0743
  197MOL     C335675   7.804   7.397   0.628 -0.1033  0.0121 -0.6505
  197MOL     O435676   7.690   7.346   0.609 -0.3448  0.2701 -0.5921
  197MOL     O535677   0.073   7.345   0.588  0.1818 -0.0644  0.3863
  197MOL     H635678   0.158   7.600   0.641 -1.1430 -0.2314 -1.4642
  197MOL     H735679   0.112   7.654   0.804 -0.7723  0.2293 -0.9086
  197MOL     H835680   7.786   7.476   0.814  1.2914 -1.2769  0.0385
  197MOL     H935681   0.138   7.402   0.627 -0.1797  0.9578 -0.4913
  197MOL    H1035682   0.166   7.492   0.775  0.1530 -1.1651 -2.5723
  197MOL    C1135683   7.714   7.641   0.686  0.3806  0.5147  0.3703
  197MOL    C1235684   7.705   7.699   0.541 -0.3433 -0.4748 -0.1217
  197MOL    C1335685   7.822   7.794   0.522  0.2703 -0.2602  0.2562
  197MOL    O1435686   0.074   7.759   0.467 -0.0203 -0.3824  0.0554
  197MOL    O1535687   7.801   0.064   0.582  0.2299  0.0377  0.6799
  197MOL    H1635688   7.731   7.723   0.757 -1.8575  0.8118  0.6040
  197MOL    H1735689   7.612   7.605   0.702  0.7923 -0.4187  0.9188
  197MOL    H1835690   7.711   7.619   0.467 -0.4475 -1.3710  0.8245
  197MOL    H1935691   7.720   0.068   0.631  0.2102 -1.1021  0.7694
  197MOL    C2035692   7.569   7.766   0.519 -0.0698 -0.4158  0.4005
  197MOL    C2135693   7.533   7.821   0.371  0.1377  0.0590 -0.1359
  197MOL    C2235694   7.410   0.061   0.355  0.0635  0.8529 -0.0191
  197MOL    O2335695   7.309   0.060   0.425  0.3350  0.4972  0.0024
  197MOL    O2435696   7.411   0.131   0.239 -0.0512 -0.1522  0.5573
  197MOL    H2535697   7.550   7.841   0.596  0.3025  0.4452 -0.3393
  197MOL    H2635698   7.500   7.683   0.534 -1.0119  0.4760  1.0405
  197MOL    H2735699   7.619   0.032   0.356  0.7776 -0.5206  1.0251
  197MOL    H2835700   7.483   0.115   0.180 -0.3551  0.9969 -0.1440
  197MOL    C2935701   7.527   7.707   0.271 -0.1549 -0.0051  0.4817
  197MOL    C3035702   7.667   7.694   0.194  0.0641  0.2152  0.2884
  197MOL    C3135703   7.692   7.809   0.103 -0.6109 -0.1559  0.6562
  197MOL    O3235704   7.603   0.027   0.056 -0.5705 -0.4242 -0.2224
  197MOL    O3335705   7.827   7.828   0.096 -0.5340  0.4517  0.7005
  197MOL    H3435706   7.440   7.702   0.205 -0.9435  0.0448  1.4915
  197MOL    H3535707   7.496   7.616   0.324 -1.4177  0.3505  0.3850
  197MOL    H3635708   7.754   7.685   0.258  0.5722 -0.4145 -0.4895
  197MOL    H3735709   0.003   0.041   0.034 -0.1827  0.5739  0.9943
  197MOL    C3835710   7.670   7.562   0.103 -0.3280  0.2309 -0.4555
  197MOL    C3935711   7.710   7.436   0.180 -0.5309 -0.2696 -0.4541
  197MOL    C4035712   0.005   7.426   0.212  0.5092  0.1238  0.7617
  197MOL    O4135713   0.085   7.512   0.172 -0.1730  0.2727 -0.2717
  197MOL    O4235714   0.044   7.321   0.289  0.1569  0.0740 -0.3472
  197MOL    H4335715   7.728   7.582   0.013  0.5091 -0.6169 -0.1141
  197MOL    H4435716   7.568   7.558   0.063  0.1011 -0.2310 -1.5183
  197MOL    H4535717   7.666   7.439   0.280 -0.6909 -0.8470 -0.5043
  197MOL    H4635718   0.138   7.309   0.283  0.1628 -0.3327  0.4749
  197MOL    C4735719   7.649   7.313   0.115 -0.0117  0.1553 -0.3334
  197MOL    C4835720   7.514   7.267   0.167  0.2379 -0.2056 -0.4420
  197MOL    C4935721   7.524   7.189   0.310 -0.0722  0.0421  0.7657
  197MOL    O5035722   7.482   7.244   0.417  0.1845  0.1387 -0.2270
  197MOL    O5135723   7.587   7.075   0.299  0.6181 -0.1993 -0.1451
  197MOL    H5235724   7.725   7.235   0.120  0.4023  0.4240 -2.2694
  197MOL    H5335725   7.647   7.332   0.008  1.1560 -2.2909 -0.8104
  197MOL    H5435726   7.456   7.359   0.180 -0.3681 -0.6216 -0.1667
  197MOL    H5535727   7.600   7.058   0.391 -0.8783 -2.1763 -0.2679
  197MOL    C5635728   7.449   7.180   0.058  0.4217 -0.0981  0.4457
  197MOL    C5735729   7.384   7.267   7.798 -0.7730 -0.3096 -0.5047
  197MOL    C5835730   7.231   7.287   7.836 -0.1264  0.5919  0.2344
  197MOL    O5935731   7.181   7.396   7.848 -0.0365  0.2034 -0.5691
  197MOL    O6035732   7.163   7.170   7.849 -0.4014 -0.5356 -0.6585
  197MOL    H6135733   7.367   7.117   0.094  1.4375 -1.2248  0.8052
  197MOL    H6235734   7.521   7.111   0.015  0.8696 -0.0616  1.1323
  197MOL    H6335735   7.427   7.366   7.807 -1.7212  0.2044 -1.5461
  197MOL    H6435736   7.075   7.191   0.021 -0.5021  0.7137 -2.0110
  197MOL    C6535737   7.409   7.209   7.660 -0.5947  0.1275 -0.0180
  197MOL    C6635738   7.443   7.314   7.554  0.5825 -0.3978  0.9273
  197MOL    C6735739   7.562   7.401   7.575 -0.8634 -0.0411 -0.3730
  197MOL    O6835740   7.567   7.528   7.581  0.0944  0.2721 -0.1683
  197MOL    O6935741   7.667   7.322   7.603 -0.0840  0.3678 -0.1017
  197MOL    H7035742   7.338   7.133   7.627  1.3764 -0.9661 -1.9010
  197MOL    H7135743   7.506   7.159   7.663 -0.1273  0.8653 -1.9859
  197MOL    H7235744   7.479   7.249   7.475 -1.5042 -2.7560  1.8648
  197MOL    H7335745   7.742   7.372   7.632  0.3221 -0.4447  0.2797
  197MOL    C7435746   7.315   7.395   7.517 -0.2876  0.3250  0.3852
  197MOL    C7535747   7.193   7.320   7.459 -0.1952 -0.2773  0.4440
  197MOL    C7635748   7.222   7.249   7.330  0.0923  0.6131 -0.3058
  197MOL    O7735749   7.331   7.264   7.284  0.4387 -0.0240 -0.3923
  197MOL    O7835750   7.122   7.167   7.284  0.2957 -0.8812 -0.0265
  197MOL    H7935751   7.339   7.484   7.460 -1.6371  1.3205  1.3345
  197MOL    H8035752   7.273   7.439   7.607 -0.2991  2.1257 -0.4914
  197MOL    H8135753   7.163   7.233   7.517  0.9344 -0.5688  0.5918
  197MOL    H8235754   7.144   7.127   7.201  0.2128 -1.0010  0.0103
  197MOL    C8335755   7.072   7.414   7.454 -0.5962 -0.1096  0.4047
  197MOL    C8435756   6.980   7.424   7.579  0.2379 -0.1788  0.2194
  197MOL    C8535757   6.926   7.287   7.642  0.2617  0.5044  0.6593
  197MOL    O8635758   6.869   7.276   7.752 -0.0004 -0.4141  0.9701
  197MOL    O8735759   6.930   7.192   7.544  0.5762 -0.1381  0.0976
  197MOL    H8835760   7.004   7.402   7.369 -0.3657  1.3148  0.0011
  197MOL    H8935761   7.112   7.513   7.431  1.0568 -0.8942 -0.1437
  197MOL    H9035762   7.042   7.471   7.656 -2.3681  0.0189  2.2598
  197MOL    H9135763   6.888   7.112   7.571  0.6508  0.5516  2.3727
  197MOL    C9235764   6.867   7.524   7.554 -0.3374 -0.3690 -0.0028
  197MOL    C9335765   6.906   7.668   7.577 -0.3214 -0.0470 -0.2158
  197MOL    C9435766   6.842   7.715   7.707 -0.4958 -0.2607  0.2595
  197MOL    O9535767   6.777   7.821   7.712  0.8884 -0.0650 -0.1156
  197MOL    O9635768   6.862   7.636   7.813  0.0160 -0.0288 -0.0857
  197MOL    H9735769   6.778   7.486   7.606 -0.9126 -0.0286 -0.7283
  197MOL    H9835770   6.832   7.506   7.452 -1.2768 -0.3177  0.3026
  197MOL    H9935771   7.014   7.681   7.589  0.0292  0.1790 -3.2418
  197MOL   H10035772   6.817   7.676   0.034  1.2752  0.5822  0.3609
  197MOL   C10135773   6.873   7.760   7.454  0.2145 -0.5293  0.6378
  197MOL   C10235774   6.992   7.793   7.352 -0.7867 -0.1828  0.2562
  197MOL   C10335775   7.085   0.061   7.398  0.2047  0.0154  0.0473
  197MOL   O10435776   7.208   0.065   7.378 -0.3751  0.2692  0.5412
  197MOL   O10535777   7.008   0.161   7.451 -0.3716 -0.0035 -0.2377
  197MOL   H10635778   6.831   0.004   7.480  1.0488  0.0568 -0.1589
  197MOL   H10735779   6.789   7.712   7.405  2.1139 -2.3261 -0.9579
  197MOL   H10835780   7.068   7.714   7.359  1.0418  1.6624  2.1577
  197MOL   H10935781   7.049   0.244   7.474  0.6126 -0.5137 -0.1230
  197MOL   C11035782   6.949   7.813   7.201 -0.4188 -0.0668  0.5121
  197MOL   C11135783   6.984   7.694   7.109  0.3988 -0.2295  0.0232
  197MOL   C11235784   7.133   7.669   7.110  0.4593  0.4368  0.3243
  197MOL   O11335785   7.218   7.747   7.097 -0.6072  0.0120 -0.5036
  197MOL   O11435786   7.164   7.541   7.144 -0.0066 -0.2393 -0.2244
  197MOL   H11535787   6.984   0.052   7.152 -0.4841 -0.9693 -1.2619
  197MOL   H11635788   6.843   7.835   7.195 -0.3644  0.7488  2.3358
  197MOL   H11735789   6.936   7.611   7.161  0.0035  0.9149  1.5477
  197MOL   H11835790   7.258   7.545   7.141  0.1992 -1.6341  2.7034
  197MOL   C11935791   6.921   7.709   6.965  0.4772 -0.2225  0.4101
  197MOL   C12035792   6.788   7.632   6.937  0.4716  0.5788  0.3173
  197MOL   C12135793   6.677   7.673   7.026  0.0513 -0.4895  0.0675
  197MOL   O12235794   6.642   7.609   7.125 -0.4903 -0.7969 -0.2771
  197MOL   O12335795   6.616   7.788   6.979 -0.0808  0.6662 -0.3603
  197MOL   H12435796   6.994   7.686   6.888  1.0982  1.6605  0.4098
  197MOL   H12535797   6.919   7.815   6.940 -0.8073 -0.4094 -0.2940
  197MOL   H12635798   6.762   7.660   6.835  1.9477  2.4845  0.4328
  197MOL   H12735799   6.545   7.800   7.039 -1.7931 -3.7921 -1.3161
  197MOL   C12835800   6.813   7.482   6.946 -0.0406  0.4161 -0.1802
  197MOL   C12935801   6.695   7.393   6.882 -0.2032  0.1421 -0.4593
  197MOL   C13035802   6.677   7.255   6.947  0.2646 -0.1744 -0.5196
  197MOL   O13135803   6.770   7.176   6.954 -0.3002 -0.2126 -0.3185
  197MOL   O13235804   6.547   7.233   6.985 -0.1468  0.1529  0.1382
  197MOL   H13335805   6.831   7.459   7.051 -0.9636  0.1436 -0.0753
  197MOL   H13435806   6.900   7.451   6.889 -1.2394  0.0884 -1.9086
  197MOL   H13535807   6.601   7.447   6.887  0.6531  1.9773 -3.0252
  197MOL   H13635808   6.538   7.140   7.001  1.1841  0.1614  1.0557
  197MOL   C13735809   6.732   7.371   6.738 -0.3069 -0.3320  0.1356
  197MOL   C13835810   6.628   7.302   6.650 -0.0195  0.9395  0.0560
  197MOL   C13935811   6.697   7.230   6.527  0.1485  0.6893 -0.4676
  197MOL   O14035812   6.704   7.286   6.420 -0.7314 -0.1479 -0.0975
  197MOL   O14135813   6.750   7.107   6.559 -0.1158  0.2132  0.5925
  197MOL   H14235814   6.817   7.303   6.742 -0.9730 -1.0776  2.2391
  197MOL   H14335815   6.769   7.464   6.694  0.2929 -0.0952  1.1133
  197MOL   H14435816   6.585   7.215   6.700  0.9514  1.2461  1.4648
  197MOL   H14535817   6.792   7.070   6.483  0.8822 -0.9587  1.6829
  197MOL   C14635818   6.513   7.400   6.627  0.4105  0.3150  0.0066
  197MOL   C14735819   6.530   7.530   6.543 -0.0809 -0.3205  0.4459
  197MOL   C14835820   6.541   7.654   6.622 -0.2869  0.3662 -0.3329
  197MOL   O14935821   6.630   7.736   6.611  0.3019 -0.1628  0.1915
  197MOL   O15035822   6.438   7.667   6.708  0.0542 -0.4994 -0.2989
  197MOL   H15135823   6.460   7.417   6.721  0.3609 -2.1085  0.4437
  197MOL   H15235824   6.432   7.345   6.578 -0.2325  0.4883  0.8709
  197MOL   H15335825   6.624   7.520   6.488  1.2185 -2.2400  2.8808
  197MOL   H15435826   6.454   7.743   6.762  2.4857 -0.2190 -1.3379
  197MOL   C15535827   6.413   7.568   6.446 -0.4557  0.7703  0.0522
  197MOL   C15635828   6.408   7.494   6.318  0.0730  0.1784  0.3006
  197MOL   C15735829   6.505   7.568   6.214 -0.1233  0.2098 -0.3626
  197MOL   O15835830   6.466   7.606   6.105 -0.0903 -0.0087  0.0387
  197MOL   O15935831   6.631   7.594   6.256  0.6779 -0.6493 -0.1095
  197MOL   H16035832   6.412   7.677   6.434 -0.2262  0.4971 -2.5987
  197MOL   H16135833   6.323   7.549   6.505 -1.3188  0.2935 -1.4002
  197MOL   H16235834   6.446   7.392   6.329  2.3047  0.5346 -3.5794
  197MOL   H16335835   6.682   7.631   6.186 -0.5565  0.8675 -0.2197
  197MOL   C16435836   6.268   7.481   6.252 -0.5506 -0.3092  0.6433
  197MOL   C16535837   6.176   7.377   6.314 -0.6431 -0.2323 -0.0731
  197MOL   C16635838   6.230   7.233   6.324 -0.3558 -0.7715  0.1550
  197MOL   O16735839   6.228   7.149   6.234  0.1012 -0.0779 -0.4998
  197MOL   O16835840   6.275   7.210   6.452 -0.0296  0.2816  0.2233
  197MOL   H16935841   6.289   7.449   6.149  1.6051 -1.2578  1.3476
  197MOL   H17035842   6.219   7.577   6.239  3.0832  1.6658  0.6743
  197MOL   H17135843   6.169   7.411   6.417  0.7340 -2.9159  0.9395
  197MOL   H17235844   6.313   7.123   6.449  0.5113  0.5166  0.3357
  197MOL   C17335845   6.033   7.391   6.265  0.0024  0.1386  0.3328
  197MOL   C17435846   5.935   7.300   6.341 -0.2521  0.9132 -1.0722
  197MOL   C17535847   5.795   7.321   6.300 -0.3779 -0.5845 -0.2555
  197MOL   O17635848   5.761   7.388   6.209 -0.2540 -0.6226 -0.3735
  197MOL   O17735849   5.705   7.255   6.378  0.0366 -0.8030  0.4351
  197MOL   H17835850   6.017   7.394   6.157  2.7110 -2.5213 -0.2154
  197MOL   H17935851   6.003   7.488   6.304  0.3073  0.7451 -0.9151
  197MOL   H18035852   5.955   7.196   6.315 -0.1016  0.6458  0.0979
  197MOL   H18135853   5.624   7.284   6.339  1.1214 -1.4674 -2.3667
  197MOL   H18235854   5.939   7.286   6.449  0.0931  0.2084 -1.1732
  198MOL     C135855   5.899   4.731   3.982  0.7308  0.6049  0.3664
  198MOL     C235856   6.002   4.771   3.869  0.6879  0.1677 -0.3670
  198MOL     C335857   5.920   4.810   3.747 -0.4919 -0.2311  0.1435
  198MOL     O435858   5.796   4.814   3.743  0.2014 -0.2370  0.1136
  198MOL     O535859   6.001   4.852   3.647 -0.1252  0.5122 -0.1185
  198MOL     H635860   5.940   4.704   4.080 -0.4161 -1.2822  0.3656
  198MOL     H735861   5.838   4.818   4.006  0.1734 -0.1124  1.6192
  198MOL     H835862   6.052   4.862   3.902  0.4574  0.6630 -1.3761
  198MOL     H935863   5.953   4.863   3.566 -0.5153  0.1539  0.0610
  198MOL    H1035864   5.826   4.652   3.961 -0.1504  1.0186  1.8086
  198MOL    C1135865   6.108   4.656   3.848 -0.2907 -0.3583  0.1821
  198MOL    C1235866   6.252   4.677   3.777 -0.4601  0.3020  0.0361
  198MOL    C1335867   6.256   4.629   3.636  0.4844  0.2774  0.1350
  198MOL    O1435868   6.251   4.506   3.604 -0.3115  0.3191  0.2328
  198MOL    O1535869   6.271   4.727   3.546  0.1465  0.1899  0.5087
  198MOL    H1635870   6.052   4.590   3.782  0.2855  0.8062 -1.5171
  198MOL    H1735871   6.113   4.590   3.935  1.5813  1.1734  1.2773
  198MOL    H1835872   6.271   4.784   3.769 -0.0929  0.0498 -3.1317
  198MOL    H1935873   6.270   4.696   3.457 -2.3959 -0.6860  0.7779
  198MOL    C2035874   6.367   4.614   3.853  0.0095  0.1686 -0.4844
  198MOL    C2135875   6.436   4.690   3.978  0.2929  0.1841 -0.2144
  198MOL    C2235876   6.512   4.820   3.942 -0.2285  0.2156  0.0973
  198MOL    O2335877   6.520   4.900   4.034  0.2885 -0.4366  0.4288
  198MOL    O2435878   6.556   4.845   3.811 -0.6992  0.1102  0.5735
  198MOL    H2535879   6.442   4.586   3.780 -1.5085 -0.7785 -1.7110
  198MOL    H2635880   6.335   4.518   3.893  2.6144 -0.5483 -0.0743
  198MOL    H2735881   6.362   4.723   4.051 -0.0759  0.9732 -0.9346
  198MOL    H2835882   6.574   4.937   3.802 -0.8448  0.0645 -0.2042
  198MOL    C2935883   6.532   4.592   4.048 -0.4379  0.3201  0.5425
  198MOL    C3035884   6.469   4.526   4.173  0.3059 -0.1738 -0.1615
  198MOL    C3135885   6.482   4.616   4.295 -0.7053 -0.3430 -0.0246
  198MOL    O3235886   6.592   4.630   4.350  0.4283 -0.5482 -0.1011
  198MOL    O3335887   6.376   4.696   4.315  0.6573 -0.0957 -0.2941
  198MOL    H3435888   6.610   4.653   4.092  2.4481 -1.7132 -1.5510
  198MOL    H3535889   6.587   4.525   3.982  3.9080  1.1777  3.1037
  198MOL    H3635890   6.361   4.518   4.159  0.3274  1.5880 -1.5352
  198MOL    H3735891   6.402   4.776   4.357  2.5759 -0.9948  0.2999
  198MOL    C3835892   6.521   4.380   4.195 -0.1411  0.2022 -0.8701
  198MOL    C3935893   6.484   4.287   4.077 -0.0339 -0.7774  0.6616
  198MOL    C4035894   6.356   4.211   4.109 -0.1926  0.3474 -0.1071
  198MOL    O4135895   6.354   4.130   4.204 -0.4849 -0.2066  0.0891
  198MOL    O4235896   6.258   4.242   4.025  0.0188  0.0982 -0.4690
  198MOL    H4335897   6.474   4.352   4.290 -1.7536  1.3392 -1.3066
  198MOL    H4435898   6.629   4.388   4.206 -0.2823 -0.1760  1.0519
  198MOL    H4535899   6.451   4.334   3.984 -0.4911 -0.8172  0.8024
  198MOL    H4635900   6.189   4.179   4.030  0.4148 -0.2749  0.3899
  198MOL    C4735901   6.600   4.193   4.039  0.2234 -0.0281 -0.4234
  198MOL    C4835902   6.670   4.227   3.901  0.4032 -0.4534  0.6204
  198MOL    C4935903   6.574   4.201   3.788  0.0123 -0.2056  0.5370
  198MOL    O5035904   6.502   4.104   3.783 -0.1789  1.0381  0.4309
  198MOL    O5135905   6.586   4.293   3.689  0.3746 -0.0735 -0.1394
  198MOL    H5235906   6.574   4.087   4.034 -0.5871  0.1515 -0.0528
  198MOL    H5335907   6.676   4.192   4.116  0.3632  0.1240 -0.5598
  198MOL    H5435908   6.670   4.336   3.911 -1.2277 -0.5100  1.3930
  198MOL    H5535909   6.525   4.259   3.626  0.1667 -1.2287  0.6760
  198MOL    C5635910   6.811   4.173   3.877 -0.6256 -0.0664 -0.2530
  198MOL    C5735911   6.907   4.291   3.865 -0.0563  0.1179  0.5124
  198MOL    C5835912   6.920   4.367   3.999 -0.8687  0.1462  0.3676
  198MOL    O5935913   6.955   4.315   4.105 -0.1208 -0.0026  0.2944
  198MOL    O6035914   6.890   4.498   3.984 -0.0148 -0.3950  0.5771
  198MOL    H6135915   6.815   4.121   3.781  1.0316  1.6854 -1.1699
  198MOL    H6235916   6.856   4.113   3.956  1.6156 -1.5309 -2.5468
  198MOL    H6335917   7.009   4.253   3.859 -0.2488 -0.6245  1.6877
  198MOL    H6435918   6.874   4.543   4.066 -0.5198  1.5391 -0.5579
  198MOL    C6535919   6.885   4.374   3.734 -0.0958  0.0143 -0.1733
  198MOL    C6635920   6.992   4.472   3.697  0.1449  0.1880 -0.0500
  198MOL    C6735921   6.926   4.556   3.585  0.0155 -0.5715 -0.2175
  198MOL    O6835922   6.912   4.512   3.473  0.1928 -0.1380 -0.1137
  198MOL    O6935923   6.882   4.682   3.633  0.2622  0.0635 -0.2108
  198MOL    H7035924   6.787   4.421   3.738  0.5348  1.2695  1.1841
  198MOL    H7135925   6.885   4.311   3.645  3.4941 -2.2167  1.2927
  198MOL    H7235926   7.009   4.538   3.782  2.9562 -0.6127  0.0697
  198MOL    H7335927   6.854   4.728   3.555  0.0418 -0.3728 -0.3949
  198MOL    C7435928   7.128   4.402   3.656 -0.0478 -0.3034  0.0165
  198MOL    C7535929   7.248   4.499   3.627  0.0894 -0.0624 -0.1388
  198MOL    C7635930   7.351   4.427   3.537  0.0043  0.4051  0.7940
  198MOL    O7735931   7.403   4.485   3.436 -0.4104  0.0361 -0.2173
  198MOL    O7835932   7.372   4.298   3.570  0.3482 -0.6256 -0.2111
  198MOL    H7935933   7.105   4.357   3.559  0.6972 -2.9405  1.0355
  198MOL    H8035934   7.160   4.324   3.725  0.4752  2.4724  3.0438
  198MOL    H8135935   7.202   4.589   3.585 -1.2410 -0.1382  1.0764
  198MOL    H8235936   7.444   4.261   3.520 -0.3452 -2.6492  0.2111
  198MOL    C8335937   7.309   4.543   3.768  0.3809  0.0768 -0.1899
  198MOL    C8435938   7.357   4.687   3.768  0.4951  0.6250  0.1816
  198MOL    C8535939   7.490   4.706   3.847  0.4082 -0.3278 -0.1837
  198MOL    O8635940   7.498   4.759   3.958 -0.1357  0.0455 -0.4086
  198MOL    O8735941   7.591   4.646   3.782 -0.3404  0.3373 -0.6316
  198MOL    H8835942   7.396   4.482   3.791  0.9305  1.1740  0.6954
  198MOL    H8935943   7.240   4.532   3.852  1.5320 -0.4180  0.6964
  198MOL    H9035944   7.383   4.719   3.667  0.2099 -1.0868 -0.4436
  198MOL    H9135945   7.659   4.612   3.838 -1.5495 -0.2652  0.5045
  198MOL    C9235946   7.248   4.783   3.833 -0.3698 -0.2712 -0.5768
  198MOL    C9335947   7.247   4.921   3.769  0.4371 -1.0350 -0.2378
  198MOL    C9435948   7.137   5.008   3.843 -0.5576 -0.1050  0.5211
  198MOL    O9535949   7.015   4.992   3.819  0.2318 -0.4977 -0.3678
  198MOL    O9635950   7.195   5.094   3.937  0.0033  0.2067 -0.2497
  198MOL    H9735951   7.267   4.789   3.940 -0.3237  2.9553 -0.7265
  198MOL    H9835952   7.149   4.741   3.819 -0.6115  0.1844 -0.2408
  198MOL    H9935953   7.347   4.961   3.786 -0.3342  0.8333 -0.0311
  198MOL   H10035954   7.124   5.141   3.977  0.2236  1.5896 -1.4025
  198MOL   C10135955   7.215   4.915   3.623 -0.2262  0.1798  0.2235
  198MOL   C10235956   7.261   5.032   3.540  0.1928 -0.1702  0.6274
  198MOL   C10335957   7.412   5.029   3.529  0.2330 -0.4420  0.4759
  198MOL   O10435958   7.475   5.107   3.588 -0.6555 -0.3607 -0.3132
  198MOL   O10535959   7.457   4.926   3.454  0.8733 -0.2238  0.2510
  198MOL   H10635960   7.107   4.900   3.611  0.2061 -4.2880  0.9108
  198MOL   H10735961   7.246   4.819   3.581 -1.7749  0.1952 -1.0099
  198MOL   H10835962   7.239   5.017   3.435 -0.6511 -1.7795  1.0138
  198MOL   H10935963   7.548   4.901   3.447  0.5198 -1.2191 -0.8782
  198MOL   C11035964   7.210   5.169   3.585  0.1775  0.1629  0.4338
  198MOL   C11135965   7.214   5.284   3.484  0.5371 -0.0231 -0.3587
  198MOL   C11235966   7.210   5.423   3.557 -0.7538  0.3326  0.7465
  198MOL   O11335967   7.185   5.435   3.676  0.8443 -0.6077  0.3831
  198MOL   O11435968   7.231   5.532   3.473 -0.3411 -0.1763  0.4448
  198MOL   H11535969   7.275   5.195   3.669 -1.0862  2.0918  0.8471
  198MOL   H11635970   7.111   5.155   3.628  0.4363 -1.7955  0.4605
  198MOL   H11735971   7.308   5.283   3.429  0.0680  0.4087 -1.1817
  198MOL   H11835972   7.251   5.608   3.525 -0.6678  0.2339 -0.0318
  198MOL   C11935973   7.101   5.265   3.387 -0.3176  0.2153 -0.1589
  198MOL   C12035974   7.084   5.353   3.260 -0.4918 -0.2264  0.1322
  198MOL   C12135975   6.957   5.295   3.187 -0.0132 -0.5616 -0.2455
  198MOL   O12235976   6.954   5.187   3.126  0.2009  0.3648  0.0074
  198MOL   O12335977   6.845   5.369   3.215 -0.5076  0.4757 -0.0828
  198MOL   H12435978   7.011   5.279   3.447 -1.5401  0.4087 -1.9903
  198MOL   H12535979   7.092   5.162   3.353  2.7482 -0.3283  0.4892
  198MOL   H12635980   7.065   5.457   3.287 -0.8671 -0.1214 -0.5181
  198MOL   H12735981   6.770   5.315   3.193 -0.0839 -0.2956  0.3430
  198MOL   C12835982   7.201   5.344   3.161 -0.5222 -0.2754  0.0162
  198MOL   C12935983   7.227   5.469   3.071  0.7096  0.2939  0.3090
  198MOL   C13035984   7.114   5.501   2.973  0.9784 -0.3830  0.1832
  198MOL   O13135985   7.061   5.614   2.971 -0.4535  0.4931  0.4020
  198MOL   O13235986   7.064   5.395   2.904  0.4118 -0.4733  0.1222
  198MOL   H13335987   7.210   5.259   3.093 -1.0928 -1.0297  0.8694
  198MOL   H13435988   7.288   5.340   3.225 -0.3382 -2.8327 -0.3421
  198MOL   H13535989   7.226   5.544   3.150 -0.5636 -0.1413  0.7095
  198MOL   H13635990   6.982   5.414   2.862  0.1409  1.3089  1.4493
  198MOL   C13735991   7.368   5.469   2.995  0.4830  0.1158 -0.0646
  198MOL   C13835992   7.447   5.604   3.021  0.2327  0.6743  1.2382
  198MOL   C13935993   7.426   5.713   2.921  0.5519  0.7715  0.2930
  198MOL   O14035994   7.340   5.698   2.832  0.1859  0.1083 -0.0121
  198MOL   O14135995   7.508   5.824   2.925  0.7511  0.1723 -0.2776
  198MOL   H14235996   7.356   5.438   2.891  1.0056  2.6891 -0.9105
  198MOL   H14335997   7.425   5.386   3.038  0.9462  0.5925  0.2391
  198MOL   H14435998   7.412   5.642   3.117 -1.6408  1.2109  0.3673
  198MOL   H14535999   7.469   5.893   2.873 -0.8375 -0.1080  0.5030
  198MOL   C14636000   7.601   5.581   3.051 -0.5089  0.1265  0.0858
  198MOL   C14736001   7.629   5.537   3.204  0.3696  0.6106 -0.0747
  198MOL   C14836002   7.612   5.648   3.310  0.0758 -0.0795 -0.1567
  198MOL   O14936003   7.528   5.644   3.400  0.0988  0.2995 -0.1032
  198MOL   O15036004   7.687   5.758   3.286 -0.0720 -0.5483 -0.1399
  198MOL   H15136005   7.657   5.674   3.040 -0.9607  0.2624 -1.2045
  198MOL   H15236006   7.640   5.504   2.984  0.3592  1.9069 -1.5247
  198MOL   H15336007   7.550   5.464   3.224  0.5677  0.3313 -0.3100
  198MOL   H15436008   7.658   5.822   3.350 -1.4382  0.0404 -1.3424
  198MOL   C15536009   7.757   5.458   3.220  0.2878  0.9492  0.0208
  198MOL   C15636010   7.789   5.386   3.355  0.7001  0.5454  0.3551
  198MOL   C15736011   7.683   5.291   3.406 -0.4852 -0.1255  0.3118
  198MOL   O15836012   7.607   5.225   3.338 -0.1324  0.1146  0.1300
  198MOL   O15936013   7.698   5.285   3.540 -0.0482 -0.5079 -0.4923
  198MOL   H16036014   7.843   5.523   3.201  1.4022 -0.3631  0.4745
  198MOL   H16136015   7.754   5.381   3.144  0.8973  0.5768  0.3665
  198MOL   H16236016   0.015   5.322   3.316  0.4059  0.7250 -0.5483
  198MOL   H16336017   7.626   5.234   3.575 -0.8387  2.0648  1.8863
  198MOL   C16436018   7.846   5.487   3.468  0.6302  0.2599  0.0956
  198MOL   C16536019   0.121   5.434   3.531 -0.1471 -0.3207  0.4137
  198MOL   C16636020   0.170   5.535   3.637 -0.2495 -0.4895 -0.4943
  198MOL   O16736021   0.176   5.659   3.626  0.0526  0.0027  0.2063
  198MOL   O16836022   0.205   5.468   3.750  0.2382  0.7173  0.0675
  198MOL   H16936023   7.765   5.512   3.536  0.1876 -2.7009  0.7476
  198MOL   H17036024   0.021   5.583   3.426  1.6583  0.8956  2.1531
  198MOL   H17136025   0.093   5.342   3.583  0.1551 -0.8102 -0.2965
  198MOL   H17236026   0.235   5.517   3.826  3.3356  0.6563 -1.0589
  198MOL   C17336027   0.240   5.413   3.431  0.4928 -0.1911  0.3485
  198MOL   C17436028   0.279   5.535   3.343  0.6745 -0.2701  0.3047
  198MOL   C17536029   0.383   5.500   3.242 -0.8258  0.4531  0.2987
  198MOL   O17636030   0.442   5.389   3.241  0.7566  0.1774  0.1358
  198MOL   O17736031   0.411   5.608   3.161  0.0986 -0.7613 -0.5726
  198MOL   H17836032   0.218   5.323   3.373 -0.0549  0.7352 -0.8866
  198MOL   H17936033   0.331   5.393   3.488 -0.2338  0.3887  1.7449
  198MOL   H18036034   0.193   5.569   3.284  2.3899  3.1520 -0.4145
  198MOL   H18136035   0.502   5.594   3.143  0.0424  1.1047 -2.5319
  198MOL   H18236036   0.312   5.620   3.404  1.2697 -0.5594  0.3879
  199MOL     C136037   0.410   1.177   0.067  0.5988  0.3490 -0.8342
  199MOL     C236038   0.449   1.270   7.802  0.3791  0.6276 -0.0955
  199MOL     C336039   0.537   1.387   7.849  0.8633  0.0882  0.3603
  199MOL     O436040   0.603   1.386   0.101  0.4755 -0.0245  0.1159
  199MOL     O536041   0.528   1.490   7.763 -0.3583  0.0034 -0.1986
  199MOL     H636042   0.340   1.095   0.055 -0.8107  1.6555 -1.6669
  199MOL     H736043   0.497   1.145   0.125 -3.0335  1.0210  5.5072
  199MOL     H836044   0.514   1.211   7.737  0.1150  1.1315 -0.8261
  199MOL     H936045   0.584   1.563   7.787 -1.7424  1.1169 -0.3358
  199MOL    H1036046   0.364   1.232   0.149  1.7144  0.4229 -0.2472
  199MOL    C1136047   0.330   1.295   7.708  0.6545 -0.3755  0.6558
  199MOL    C1236048   0.219   1.391   7.759 -0.1184  0.3566  0.3141
  199MOL    C1336049   0.185   1.388   0.054  0.0196 -0.2983  0.5026
  199MOL    O1436050   0.115   1.299   0.102 -0.5375  0.8528 -0.5307
  199MOL    O1536051   0.238   1.496   0.119 -0.4889 -0.4332 -0.1092
  199MOL    H1636052   0.290   1.195   7.688 -1.3058  0.7718 -1.2743
  199MOL    H1736053   0.359   1.339   7.613  1.8201 -0.5313  0.9343
  199MOL    H1836054   0.258   1.491   7.738  0.8758 -0.0306  0.2748
  199MOL    H1936055   0.228   1.485   0.212  1.1725  0.1701  0.1504
  199MOL    C2036056   0.091   1.389   7.673  0.3550  0.4306 -0.6285
  199MOL    C2136057   0.026   1.252   7.646  0.6527  0.0354 -0.4102
  199MOL    C2236058   0.080   1.181   7.519 -0.3171 -0.2442 -0.1553
  199MOL    O2336059   0.052   1.230   7.411 -0.0747  0.3545  0.0814
  199MOL    O2436060   0.150   1.068   7.544 -0.5528  0.0773  0.6455
  199MOL    H2536061   0.132   1.431   7.581  2.3889 -0.0687  0.0070
  199MOL    H2636062   0.015   1.461   7.702 -0.1759  0.5507 -2.2915
  199MOL    H2736063   0.038   1.188   7.733 -0.0079  0.2496 -0.1602
  199MOL    H2836064   0.191   1.043   7.462 -2.4736  0.0145 -0.3402
  199MOL    C2936065   7.722   1.266   7.630  0.6225  1.2301  0.5330
  199MOL    C3036066   7.648   1.138   7.593 -0.1284  0.2593 -0.9845
  199MOL    C3136067   7.515   1.176   7.527  0.5300  0.1573  0.0451
  199MOL    O3236068   7.412   1.192   7.587 -0.1078 -0.4753 -0.2116
  199MOL    O3336069   7.530   1.193   7.397  0.8942 -0.4684  0.0343
  199MOL    H3436070   7.709   1.351   7.563  4.1599  0.7749 -0.8471
  199MOL    H3536071   7.684   1.302   7.725 -1.0197  0.2890  0.2593
  199MOL    H3636072   7.701   1.085   7.515 -1.3483  2.6288 -3.4971
  199MOL    H3736073   7.448   1.223   7.358 -0.2925 -2.1539  1.1868
  199MOL    C3836074   7.634   1.048   7.720  0.2291  0.7861  0.7371
  199MOL    C3936075   7.522   1.053   7.829  0.1907 -0.0712 -0.0198
  199MOL    C4036076   7.527   1.188   0.055  0.2251 -0.6845 -0.5670
  199MOL    O4136077   7.430   1.262   0.063 -0.1488  0.1120  0.2202
  199MOL    O4236078   7.641   1.199   0.127  0.5420  0.5195  0.1118
  199MOL    H4336079   7.731   1.027   7.764  1.0846  1.6918 -0.6815
  199MOL    H4436080   7.610   0.954   7.671  0.6227  0.5347  1.0231
  199MOL    H4536081   7.424   1.047   7.781 -0.0917  3.3500  0.0404
  199MOL    H4636082   7.628   1.274   0.184 -0.3370  0.2579  0.2696
  199MOL    C4736083   7.530   0.931   0.071  0.2042  0.0813 -0.1693
  199MOL    C4836084   7.519   0.785   0.019  0.0832  0.2813 -0.3027
  199MOL    C4936085   7.379   0.765   7.805  0.2543  0.1083 -0.2812
  199MOL    O5036086   7.285   0.704   0.002  0.1110 -0.3132 -0.0049
  199MOL    O5136087   7.370   0.833   7.684  0.1304  0.0768 -0.7749
  199MOL    H5236088   7.456   0.947   0.149  1.2496  2.2292  0.4249
  199MOL    H5336089   7.629   0.935   0.117  0.1458  1.4113 -0.1465
  199MOL    H5436090   7.600   0.773   7.800 -0.1874 -0.8953 -0.4155
  199MOL    H5536091   7.280   0.833   7.656  0.5669 -0.7647 -2.2489
  199MOL    C5636092   7.541   0.675   0.126 -0.1333 -0.0607  0.4090
  199MOL    C5736093   7.572   0.538   0.061 -0.5616 -0.7697  0.5355
  199MOL    C5836094   7.513   0.433   0.158 -0.8088  0.0266 -0.3170
  199MOL    O5936095   7.583   0.376   0.244 -0.2030  0.0435 -0.4758
  199MOL    O6036096   7.381   0.415   0.132  0.0349 -0.8298 -0.5869
  199MOL    H6136097   7.459   0.672   0.199  2.2851  0.9038  3.2680
  199MOL    H6236098   7.623   0.706   0.191 -0.3319  2.5700 -0.5478
  199MOL    H6336099   7.517   0.550   7.820 -0.3624  1.6486  0.7040
  199MOL    H6436100   7.345   0.363   0.202 -1.8105 -1.7575 -2.1587
  199MOL    C6536101   7.729   0.527   0.044 -0.9478  0.2217 -0.3976
  199MOL    C6636102   7.762   0.470   7.759 -0.7683  0.1627  0.1599
  199MOL    C6736103   7.745   0.321   7.758 -0.6315  0.0072  0.4077
  199MOL    O6836104   7.834   0.246   7.797 -0.1186 -0.0328  0.1614
  199MOL    O6936105   7.625   0.281   7.709  0.1348 -0.3265 -0.0851
  199MOL    H7036106   7.781   0.469   0.120 -0.7513 -0.2800 -0.9085
  199MOL    H7136107   7.773   0.626   0.051  0.8532 -0.5709 -0.1435
  199MOL    H7236108   7.681   0.506   7.695 -0.4136 -0.5305 -0.6963
  199MOL    H7336109   7.611   0.188   7.715 -0.9408 -0.0750  1.7640
  199MOL    C7436110   0.047   0.512   7.703 -0.1984 -0.6932  0.1752
  199MOL    C7536111   0.037   0.641   7.617 -0.0509 -0.3167 -0.0009
  199MOL    C7636112   7.845   0.612   7.475 -0.0352  0.5518 -0.0191
  199MOL    O7736113   7.823   0.494   7.439  0.8988 -0.0011 -0.1042
  199MOL    O7836114   7.796   0.720   7.411 -0.1016 -0.2670 -0.0019
  199MOL    H7936115   0.101   0.434   7.649  0.0793  0.3089 -1.0252
  199MOL    H8036116   0.113   0.526   7.789  1.9467 -2.9403 -1.0268
  199MOL    H8136117   7.826   0.715   7.665  0.2610 -0.3188  0.4121
  199MOL    H8236118   7.752   0.678   7.338  0.3876  1.5437 -1.3870
  199MOL    C8336119   0.173   0.717   7.597  0.4310 -0.0497 -1.0354
  199MOL    C8436120   0.272   0.739   7.716 -0.3120  0.5548  0.3564
  199MOL    C8536121   0.198   0.774   7.842 -0.1339 -0.0061 -0.3695
  199MOL    O8636122   0.101   0.850   7.845  0.4717 -0.3833 -0.0040
  199MOL    O8736123   0.257   0.729   0.102 -0.5032 -0.0094  0.3837
  199MOL    H8836124   0.157   0.815   7.551 -0.6723  1.3579  2.1830
  199MOL    H8936125   0.233   0.663   7.525  1.6919  2.1132 -1.6613
  199MOL    H9036126   0.319   0.642   7.731 -2.3899 -0.5240  0.1035
  199MOL    H9136127   0.204   0.767   0.171 -0.2177  0.8548  0.1273
  199MOL    C9236128   0.379   0.841   7.689  0.7077  0.5366  0.3249
  199MOL    C9336129   0.462   0.837   7.558 -0.2084  0.3119 -0.1313
  199MOL    C9436130   0.572   0.726   7.549 -0.0680  0.2751  0.3540
  199MOL    O9536131   0.661   0.700   7.631  0.6599 -0.0547 -0.3804
  199MOL    O9636132   0.568   0.660   7.433 -0.2472  0.7927 -0.4435
  199MOL    H9736133   0.442   0.840   7.778  0.2517  0.9084  0.6522
  199MOL    H9836134   0.343   0.944   7.690  2.5012  1.1973 -0.1422
  199MOL    H9936135   0.386   0.817   7.481 -1.9523 -0.4890  1.7426
  199MOL   H10036136   0.637   0.596   7.438 -1.3368 -0.5346 -1.7903
  199MOL   C10136137   0.517   0.981   7.520  0.4199  0.4763  0.3971
  199MOL   C10236138   0.666   1.024   7.542 -0.0830 -0.3077 -0.2507
  199MOL   C10336139   0.710   1.009   7.685 -0.0492 -0.6418  0.9103
  199MOL   O10436140   0.645   0.995   7.789  0.1063  0.3147 -0.1901
  199MOL   O10536141   0.844   1.015   7.687  0.8904  0.3874 -0.4578
  199MOL   H10636142   0.446   1.062   7.542 -1.5215 -0.6871 -1.3589
  199MOL   H10736143   0.512   0.985   7.411  1.3195  1.0076  0.3706
  199MOL   H10836144   0.729   0.955   7.488 -1.4211 -0.9756 -0.9737
  199MOL   H10936145   0.884   1.013   7.772  1.3607 -1.8926 -0.6994
  199MOL   C11036146   0.688   1.173   7.494  0.4115  0.1949  0.7635
  199MOL   C11136147   0.662   1.218   7.347 -0.3730  0.5305  0.4857
  199MOL   C11236148   0.691   1.094   7.252  0.1269  0.1766 -0.1277
  199MOL   O11336149   0.613   1.030   7.182 -0.2628 -0.5806 -0.4825
  199MOL   O11436150   0.821   1.065   7.254 -0.4739 -0.0293 -0.3827
  199MOL   H11536151   0.793   1.194   7.514  0.9752 -1.1899 -0.6630
  199MOL   H11636152   0.628   1.234   7.562 -0.5978 -0.3475  0.3712
  199MOL   H11736153   0.557   1.240   7.326  0.0240  1.0996 -0.9310
  199MOL   H11836154   0.848   1.010   7.181  0.6869  3.0773 -2.3842
  199MOL   C11936155   0.751   1.342   7.311  0.3985 -0.4217  0.3522
  199MOL   C12036156   0.728   1.482   7.376  0.1451  0.6441  0.4513
  199MOL   C12136157   0.580   1.542   7.356 -0.4488  0.2281 -0.6481
  199MOL   O12236158   0.483   1.493   7.291 -0.2650 -0.3558  0.1820
  199MOL   O12336159   0.574   1.653   7.436 -0.3314  0.6242 -0.3000
  199MOL   H12436160   0.757   1.347   7.202  0.8659  2.8374  0.4743
  199MOL   H12536161   0.858   1.326   7.328  0.6045  2.3868  2.1008
  199MOL   H12636162   0.730   1.475   7.484 -0.0039 -1.1940  0.3488
  199MOL   H12736163   0.489   1.694   7.439 -0.8215 -0.3365 -0.7351
  199MOL   C12836164   0.836   1.583   7.334  0.3344 -0.3914  0.0008
  199MOL   C12936165   0.835   1.625   7.184  0.1949  0.3834 -0.4704
  199MOL   C13036166   0.973   1.606   7.118 -0.1874 -0.0216  0.6596
  199MOL   O13136167   1.022   1.691   7.045 -0.0789 -0.1498 -0.9173
  199MOL   O13236168   1.030   1.484   7.147  0.2597 -0.7626 -0.2668
  199MOL   H13336169   0.930   1.544   7.373  0.7442 -1.5167 -2.0084
  199MOL   H13436170   0.826   1.675   7.391  1.3732 -1.2623  1.6325
  199MOL   H13536171   0.782   1.554   7.120  1.2565 -1.3819  0.5595
  199MOL   H13636172   1.117   1.478   7.110 -0.1439  0.6266 -1.4842
  199MOL   C13736173   0.785   1.771   7.161  0.3417  0.2322 -0.6633
  199MOL   C13836174   0.680   1.782   7.044  0.0805  0.4053 -0.5989
  199MOL   C13936175   0.741   1.761   6.901  0.3788 -0.8893 -0.7459
  199MOL   O14036176   0.776   1.854   6.830  0.4807 -0.1805 -0.0663
  199MOL   O14136177   0.770   1.634   6.867 -0.2769  0.2088 -0.1001
  199MOL   H14236178   0.862   1.843   7.136  2.0275  0.7814  5.3969
  199MOL   H14336179   0.739   1.812   7.251 -0.5053 -2.7808  0.3274
  199MOL   H14436180   0.613   1.697   7.055  2.9187 -1.7981  0.0189
  199MOL   H14536181   0.812   1.636   6.783 -1.8901  1.7027 -0.9059
  199MOL   C14636182   0.611   1.919   7.063 -0.1718 -0.1294 -0.4269
  199MOL   C14736183   0.498   1.950   6.954  0.6097 -0.3706 -0.0939
  199MOL   C14836184   0.484   2.105   6.950  0.1344  0.6879  0.5724
  199MOL   O14936185   0.389   2.173   6.989  0.0109  0.3188  0.7674
  199MOL   O15036186   0.596   2.159   6.894 -0.3223 -0.5880  0.1459
  199MOL   H15136187   0.685   1.999   7.061 -0.3721  0.0405 -2.1062
  199MOL   H15236188   0.572   1.928   7.164  2.3212  0.0896  0.5420
  199MOL   H15336189   0.534   1.924   6.854 -0.4064 -1.0520 -0.2898
  199MOL   H15436190   0.563   2.245   6.873 -1.6868 -1.3877 -1.0515
  199MOL   C15536191   0.362   1.882   6.985  0.1233 -0.1912  0.2086
  199MOL   C15636192   0.335   1.738   6.941  0.4204  0.2882 -0.2838
  199MOL   C15736193   0.364   1.719   6.789  0.0859 -0.6377  0.2328
  199MOL   O15836194   0.469   1.673   6.751  0.4875 -0.0235  0.2557
  199MOL   O15936195   0.262   1.768   6.711 -0.0214  0.1184  0.2598
  199MOL   H16036196   0.287   1.938   6.930  0.1709 -0.1540  0.1813
  199MOL   H16136197   0.349   1.887   7.093 -3.1260 -0.7358 -0.1207
  199MOL   H16236198   0.413   1.673   6.981  0.4053  0.3544 -0.1445
  199MOL   H16336199   0.294   1.760   6.623 -1.6279 -0.8363 -0.2501
  199MOL   C16436200   0.198   1.681   6.978  0.6904 -0.3822 -0.5565
  199MOL   C16536201   0.172   1.646   7.132  0.0951  0.1485  0.4397
  199MOL   C16636202   0.105   1.514   7.146 -0.2257  0.3652 -0.2195
  199MOL   O16736203   0.012   1.482   7.073 -0.0361 -0.7763  0.2928
  199MOL   O16836204   0.146   1.445   7.257 -0.0028  0.4876  0.6544
  199MOL   H16936205   0.188   1.591   6.917  0.8506  0.2014 -1.4551
  199MOL   H17036206   0.120   1.743   6.935  1.8279  0.6429 -1.1709
  199MOL   H17136207   0.271   1.633   7.173  0.8765  0.6872 -1.2314
  199MOL   H17236208   0.089   1.371   7.271  1.5317 -1.1903 -1.5849
  199MOL   C17336209   0.100   1.763   7.219  0.3265 -0.2229  0.2206
  199MOL   C17436210   0.092   1.748   7.375  0.5598 -0.1732 -0.5377
  199MOL   C17536211   0.223   1.739   7.449 -0.2027 -0.0372  0.6955
  199MOL   O17636212   0.334   1.773   7.410 -0.2847 -0.1903  1.4373
  199MOL   O17736213   0.196   1.695   7.573  0.0485 -0.6779  0.2434
  199MOL   H17836214   7.852   1.792   7.189 -0.0695 -1.2008  0.5842
  199MOL   H17936215   0.156   1.853   7.195  0.9295 -1.2300 -2.2639
  199MOL   H18036216   0.033   1.821   7.431  1.1366  1.8672 -2.4823
  199MOL   H18136217   0.274   1.708   7.624 -0.1355  1.0544  0.1448
  199MOL   H18236218   0.049   1.649   7.390  1.5341 -0.2919  1.6670
  200MOL     C136219   4.781   6.171   6.090 -0.0436 -0.0401  0.4818
  200MOL     C236220   4.676   6.094   6.167 -0.6064  0.2539 -0.0366
  200MOL     C336221   4.723   5.957   6.219  0.5889 -0.0616 -0.4734
  200MOL     O436222   4.801   5.882   6.155 -0.7269  0.1963 -0.1482
  200MOL     O536223   4.673   5.923   6.341  0.0769  0.5868 -0.1760
  200MOL     H636224   4.754   6.276   6.078 -2.3562 -0.6515  0.1718
  200MOL     H736225   4.873   6.176   6.149 -1.2654  2.8324  2.2534
  200MOL     H836226   4.685   6.158   6.255 -1.1347  0.6135 -0.2406
  200MOL     H936227   4.700   5.838   6.372 -3.3458  0.3071  2.2600
  200MOL    H1036228   4.820   6.129   5.998  1.6260 -1.0600  1.6280
  200MOL    C1136229   4.533   6.093   6.098  0.3568 -0.4268 -0.0654
  200MOL    C1236230   4.517   6.025   5.962 -0.8110  0.3514 -0.1397
  200MOL    C1336231   4.562   6.109   5.839  0.6082 -0.2254 -0.0953
  200MOL    O1436232   4.573   6.231   5.846 -0.0019 -0.0700 -0.1403
  200MOL    O1536233   4.591   6.031   5.728 -0.4460  0.9862 -0.4338
  200MOL    H1636234   4.494   6.194   6.086 -0.1884 -0.8778 -2.2811
  200MOL    H1736235   4.465   6.045   6.168 -1.8625 -0.7866 -2.3898
  200MOL    H1836236   4.598   5.952   5.972 -1.7034 -0.5431  0.6878
  200MOL    H1936237   4.635   6.086   5.665 -2.6528 -0.6109 -3.4648
  200MOL    C2036238   4.380   5.961   5.941  0.5367 -0.2036  0.4432
  200MOL    C2136239   4.372   5.837   5.848 -0.5744  0.4127  0.2264
  200MOL    C2236240   4.230   5.807   5.801  0.1623  0.5581 -1.3168
  200MOL    O2336241   4.131   5.867   5.844 -0.3418  0.0439  0.3652
  200MOL    O2436242   4.228   5.701   5.715 -0.4954  0.7298  0.4952
  200MOL    H2536243   4.323   6.041   5.893  0.9181 -0.0159  0.3011
  200MOL    H2636244   4.340   5.945   6.041 -0.4489 -0.2010  0.0511
  200MOL    H2736245   4.433   5.860   5.760  3.7059 -1.6238  2.5296
  200MOL    H2836246   4.311   5.665   5.690 -1.8981 -1.2456 -1.4971
  200MOL    C2936247   4.435   5.709   5.912  0.1847 -0.8983  0.2093
  200MOL    C3036248   4.382   5.665   6.058 -0.3303 -0.2909  0.3959
  200MOL    C3136249   4.504   5.637   6.151  0.4203  0.3441  0.0103
  200MOL    O3236250   4.610   5.584   6.112 -0.3521  0.1000  0.3731
  200MOL    O3336251   4.466   5.651   6.279  0.6560  0.6717  0.1371
  200MOL    H3436252   4.541   5.728   5.929  1.3536 -2.2040 -4.6977
  200MOL    H3536253   4.455   5.627   5.843  1.8463 -2.1922  2.1905
  200MOL    H3636254   4.334   5.752   6.102  0.4623  1.0889 -1.3677
  200MOL    H3736255   4.538   5.616   6.330  1.9682 -0.0987 -2.1812
  200MOL    C3836256   4.283   5.545   6.039  0.2161 -0.1080 -0.0166
  200MOL    C3936257   4.136   5.577   6.052  0.3376 -0.7956  0.1928
  200MOL    C4036258   4.092   5.587   6.202 -0.4932  0.4857  0.4465
  200MOL    O4136259   4.170   5.555   6.291  0.0320 -0.3076 -0.5070
  200MOL    O4236260   3.968   5.641   6.215  0.3611  0.2729  0.0220
  200MOL    H4336261   4.309   5.469   6.113 -0.0118 -0.0301  0.1416
  200MOL    H4436262   4.303   5.507   5.939 -0.0446 -1.1596  0.3213
  200MOL    H4536263   4.125   5.678   6.012  2.4697 -0.5059  0.2805
  200MOL    H4636264   3.935   5.657   6.303 -2.4633 -0.0697 -0.9169
  200MOL    C4736265   4.040   5.476   5.973  0.0092 -0.0981 -0.2194
  200MOL    C4836266   4.036   5.327   6.010  0.2364  0.0190  0.1323
  200MOL    C4936267   4.169   5.249   5.997 -0.5159  0.2191  0.0199
  200MOL    O5036268   4.219   5.229   5.888 -0.6489  0.1684 -0.0970
  200MOL    O5136269   4.211   5.185   6.112 -0.2559 -0.1950  0.4372
  200MOL    H5236270   4.070   5.485   5.868 -0.4372  1.5474 -0.2083
  200MOL    H5336271   3.938   5.515   5.974  0.0735  0.0661 -0.1681
  200MOL    H5436272   4.008   5.326   6.116  1.3669 -0.5989  0.4380
  200MOL    H5536273   4.159   5.185   6.191 -3.1755 -1.5644 -1.4051
  200MOL    C5636274   3.922   5.250   5.939 -0.0877 -1.5111  0.7161
  200MOL    C5736275   3.935   5.197   5.789  0.5811  0.1857  0.7041
  200MOL    C5836276   3.931   5.308   5.690 -0.2348  0.3177 -0.3631
  200MOL    O5936277   3.829   5.371   5.661  0.1379 -0.1439 -0.1362
  200MOL    O6036278   4.055   5.333   5.639 -0.2739 -0.5611  0.4122
  200MOL    H6136279   3.833   5.313   5.952  0.8046 -0.2155  0.6233
  200MOL    H6236280   3.900   5.165   6.004 -1.6966 -0.2439  1.8622
  200MOL    H6336281   4.031   5.151   5.767  0.8817  1.1276  0.0263
  200MOL    H6436282   4.046   5.400   5.573 -2.9594 -0.0129  1.2449
  200MOL    C6536283   3.823   5.086   5.761 -0.0578  0.2754 -0.5478
  200MOL    C6636284   3.837   5.010   5.630 -0.2856  0.1446  0.6202
  200MOL    C6736285   3.708   4.918   5.627  0.0212  0.1000  0.1801
  200MOL    O6836286   3.616   4.917   5.706 -0.3135 -0.1748  0.5209
  200MOL    O6936287   3.716   4.827   5.522 -0.2251  0.2992 -1.0416
  200MOL    H7036288   3.732   5.142   5.742 -1.0331 -0.3750  1.9566
  200MOL    H7136289   3.809   5.028   5.853 -2.0891  1.0944 -0.3281
  200MOL    H7236290   3.816   5.080   5.549  0.2766  1.1984  1.3763
  200MOL    H7336291   3.638   4.775   5.531 -0.8012  0.9960 -1.9753
  200MOL    C7436292   3.976   4.933   5.610 -0.1550  0.1671  0.3787
  200MOL    C7536293   4.037   4.862   5.727  0.7084  0.8133  0.2134
  200MOL    C7636294   4.184   4.867   5.740 -0.2782 -0.4829  0.3106
  200MOL    O7736295   4.239   4.902   5.840 -0.1338 -0.4129  0.0650
  200MOL    O7836296   4.257   4.832   5.631 -0.2999  0.0102  0.3865
  200MOL    H7936297   4.052   5.007   5.584 -0.1251  0.1670  0.4666
  200MOL    H8036298   3.971   4.877   5.517  0.7196 -0.7592  0.8854
  200MOL    H8136299   3.999   4.915   5.814  0.0962  1.3563 -0.3813
  200MOL    H8236300   4.350   4.842   5.645 -1.0689  2.7011  4.4057
  200MOL    C8336301   3.986   4.713   5.757  0.2232 -0.1898  0.1172
  200MOL    C8436302   4.036   4.609   5.656 -0.7126 -0.1298 -0.4871
  200MOL    C8536303   3.912   4.537   5.604 -0.1310 -0.2056 -0.1910
  200MOL    O8636304   3.837   4.473   5.673  0.2991  0.0076  0.2560
  200MOL    O8736305   3.910   4.537   5.470 -0.0214  0.3345  0.4371
  200MOL    H8836306   3.877   4.714   5.762  0.1473  0.8848 -1.2397
  200MOL    H8936307   4.007   4.680   5.858  0.6771 -3.2903 -0.9345
  200MOL    H9036308   4.084   4.670   5.579 -1.8305  0.7821 -0.4636
  200MOL    H9136309   3.989   4.570   5.430 -0.6267 -0.1510 -1.1709
  200MOL    C9236310   4.137   4.511   5.733 -0.0357  0.8433  0.0721
  200MOL    C9336311   4.222   4.418   5.636 -0.0088 -0.7318 -0.0275
  200MOL    C9436312   4.151   4.279   5.621 -0.3337 -0.3259  0.0240
  200MOL    O9536313   4.108   4.238   5.516 -0.1856  0.2606  0.4540
  200MOL    O9636314   4.140   4.216   5.743 -0.1416  0.2254  0.3008
  200MOL    H9736315   4.100   4.452   5.817 -1.6336  1.5087 -0.1511
  200MOL    H9836316   4.207   4.580   5.780 -1.3394  1.1280  1.6114
  200MOL    H9936317   4.221   4.456   5.534  2.7354 -0.2415  0.1034
  200MOL   H10036318   4.084   4.141   5.734  1.3216 -0.5020 -3.4516
  200MOL   C10136319   4.368   4.409   5.689  0.5826  0.1065  0.7262
  200MOL   C10236320   4.461   4.332   5.594 -0.1739 -0.5745  0.2104
  200MOL   C10336321   4.563   4.272   5.693  0.4293  0.6601  0.5065
  200MOL   O10436322   4.588   4.154   5.683  0.1013 -0.7225 -0.2511
  200MOL   O10536323   4.628   4.354   5.782  0.0614 -0.5722  0.3060
  200MOL   H10636324   4.372   4.378   5.793  3.8831 -3.4676 -0.3311
  200MOL   H10736325   4.408   4.509   5.707  1.7674 -0.4526  1.2102
  200MOL   H10836326   4.413   4.251   5.540  0.9856 -0.2709 -1.2918
  200MOL   H10936327   4.696   4.320   5.837 -1.8136 -0.8322  2.5300
  200MOL   C11036328   4.537   4.425   5.495  0.4078 -1.0740  0.3271
  200MOL   C11136329   4.632   4.361   5.387 -0.0525  1.0472 -0.0029
  200MOL   C11236330   4.777   4.391   5.423 -0.2232 -0.7520 -0.5012
  200MOL   O11336331   4.841   4.487   5.388 -0.3331 -0.2450  0.0771
  200MOL   O11436332   4.836   4.292   5.496  0.0984 -0.2888 -0.3413
  200MOL   H11536333   4.600   4.493   5.553  1.9382 -2.3407  0.1901
  200MOL   H11636334   4.459   4.490   5.457  1.0032 -0.6161 -0.1233
  200MOL   H11736335   4.602   4.257   5.393  0.4595  0.9554  1.1457
  200MOL   H11836336   4.921   4.321   5.524 -0.3059 -1.2700  1.9937
  200MOL   C11936337   4.582   4.424   5.250 -1.0421 -0.2742  0.3448
  200MOL   C12036338   4.602   4.344   5.118  0.4953 -0.4010 -0.1226
  200MOL   C12136339   4.744   4.299   5.097  0.3322  0.1362 -0.2937
  200MOL   O12236340   4.776   4.183   5.127  0.3554  0.2389 -0.5151
  200MOL   O12336341   4.826   4.394   5.049 -0.3513  0.0869 -0.3196
  200MOL   H12436342   4.630   4.522   5.241  1.3954 -1.4705 -0.2702
  200MOL   H12536343   4.477   4.450   5.250 -1.0137 -0.1653  0.6780
  200MOL   H12636344   4.531   4.262   5.126  0.0414 -0.0960 -0.9192
  200MOL   H12736345   4.912   4.356   5.050 -0.0712  0.7301  1.9362
  200MOL   C12836346   4.560   4.422   4.991 -0.0741  0.6730 -0.3307
  200MOL   C12936347   4.517   4.336   4.864 -0.1168 -0.0348  0.2221
  200MOL   C13036348   4.559   4.404   4.736  0.0045  0.2740 -0.4342
  200MOL   O13136349   4.489   4.480   4.670 -0.9104  0.3063  0.6983
  200MOL   O13236350   4.687   4.377   4.710 -0.0484  0.4201 -0.2493
  200MOL   H13336351   4.634   4.498   4.966  0.8635 -1.5318 -4.8271
  200MOL   H13436352   4.479   4.493   5.011 -2.5631 -1.3243 -2.7691
  200MOL   H13536353   4.581   4.248   4.868 -0.2198 -0.1005  0.4191
  200MOL   H13636354   4.709   4.421   4.629  1.5990 -0.6347 -0.4023
  200MOL   C13736355   4.368   4.295   4.857  0.9412  0.4209 -0.2155
  200MOL   C13836356   4.319   4.185   4.953 -0.2383  0.0640  0.1309
  200MOL   C13936357   4.386   4.048   4.929  0.4931  0.0905 -0.3225
  200MOL   O14036358   4.365   3.979   4.824  0.9483 -0.5593  0.1144
  200MOL   O14136359   4.465   4.011   5.029 -0.1853 -0.2606 -0.5500
  200MOL   H14236360   4.331   4.265   4.759 -2.4588  1.5309  0.6445
  200MOL   H14336361   4.311   4.386   4.875  0.5592  0.1272  0.0727
  200MOL   H14436362   4.363   4.212   5.049  1.3355  0.3790 -0.6534
  200MOL   H14536363   4.517   3.935   5.007 -0.7321 -0.8213  0.0588
  200MOL   C14636364   4.160   4.172   4.956 -0.5606  0.7075 -0.1251
  200MOL   C14736365   4.089   4.094   5.071  0.1124 -0.9216 -0.3387
  200MOL   C14836366   4.103   4.160   5.209  0.1987  0.1882  0.0457
  200MOL   O14936367   4.170   4.259   5.223 -0.5109  0.3765 -0.1756
  200MOL   O15036368   4.030   4.100   5.310  0.5829 -0.0291 -1.0444
  200MOL   H15136369   4.133   4.132   4.858 -1.2150  0.6139  0.0913
  200MOL   H15236370   4.120   4.272   4.967  1.1609  1.2335  1.7406
  200MOL   H15336371   3.981   4.104   5.062 -0.0041 -2.3287 -0.7044
  200MOL   H15436372   4.038   4.167   5.376  0.7399  0.1335 -1.2300
  200MOL   C15536373   4.122   3.942   5.087  0.4073 -0.3873 -0.7518
  200MOL   C15636374   4.058   3.850   4.975 -0.0031  0.7546  0.0106
  200MOL   C15736375   3.904   3.858   4.977 -0.1488  0.9718 -0.2484
  200MOL   O15836376   3.845   3.823   5.079 -0.0169 -0.0208 -0.0420
  200MOL   O15936377   3.845   3.893   4.861 -0.4905  0.0242 -0.0196
  200MOL   H16036378   4.089   3.904   5.184 -0.2975  0.8781 -0.4805
  200MOL   H16136379   4.229   3.924   5.096  0.4867  0.5760  0.2822
  200MOL   H16236380   4.091   3.881   4.876  1.6106 -1.3854 -0.1526
  200MOL   H16336381   3.751   3.891   4.874 -0.5869 -0.4830 -0.7415
  200MOL   C16436382   4.124   3.705   4.983 -0.1834 -0.4363 -0.4115
  200MOL   C16536383   4.109   3.627   4.848 -0.6778  0.5221 -0.8702
  200MOL   C16636384   4.124   3.475   4.856  0.1871  0.3776 -0.3385
  200MOL   O16736385   4.232   3.419   4.855  0.3601  0.3527 -0.2400
  200MOL   O16836386   4.006   3.402   4.863  0.2233 -0.4518 -0.6053
  200MOL   H16936387   4.068   3.659   5.065  0.7580  2.0361  1.6819
  200MOL   H17036388   4.225   3.704   5.024 -0.4958 -1.2291  0.3438
  200MOL   H17136389   4.007   3.642   4.810 -0.3309  1.4543 -1.4709
  200MOL   H17236390   4.016   3.308   4.869 -0.7231 -0.6256 -1.5867
  200MOL   C17336391   4.201   3.677   4.735  0.2151 -0.6569 -0.2765
  200MOL   C17436392   4.209   3.610   4.599 -0.2722 -0.0874 -0.1428
  200MOL   C17536393   4.082   3.573   4.521 -0.2926  0.6232 -0.8295
  200MOL   O17636394   3.969   3.574   4.568 -0.1160  0.9039 -0.4672
  200MOL   O17736395   4.105   3.528   4.394 -0.8703  0.2657  0.0938
  200MOL   H17836396   4.298   3.685   4.784  0.6845  1.7288 -1.5170
  200MOL   H17936397   4.164   3.776   4.707  3.0817  0.8324  0.9819
  200MOL   H18036398   4.276   3.661   4.530  1.0381 -2.0178 -0.3552
  200MOL   H18136399   4.035   3.494   4.340  0.3865 -0.2703 -1.2446
  200MOL   H18236400   4.273   3.522   4.610  1.3883  1.0694 -0.3595
  201MOL     C136401   3.922   3.274   5.762  0.2093 -0.3297 -0.4180
  201MOL     C236402   3.975   3.325   5.898 -0.2238  0.0162 -0.9653
  201MOL     C336403   4.001   3.473   5.902  0.4816 -0.0441 -0.3353
  201MOL     O436404   3.950   3.561   5.974  0.1832 -0.7809  0.5332
  201MOL     O536405   4.110   3.500   5.817  0.4553  0.4449 -0.5786
  201MOL     H636406   3.899   3.353   5.690 -1.5191  0.1264  0.6048
  201MOL     H736407   3.985   3.214   5.696 -1.1679 -0.6115 -1.4895
  201MOL     H836408   3.892   3.310   5.966  1.0135 -0.1238  0.5299
  201MOL     H936409   4.134   3.591   5.822  0.1177  0.4605  1.0252
  201MOL    H1036410   3.827   3.225   5.781  0.1585 -0.3305 -0.6743
  201MOL    C1136411   4.097   3.239   5.951 -0.4258  0.2207 -0.2160
  201MOL    C1236412   4.242   3.225   5.893  0.8506  0.4403 -0.6668
  201MOL    C1336413   4.250   3.147   5.763  0.3040 -0.8183  0.2016
  201MOL    O1436414   4.235   3.028   5.751  0.2322 -0.1709 -0.0542
  201MOL    O1536415   4.288   3.228   5.662 -0.2022  0.0958  0.4477
  201MOL    H1636416   4.058   3.137   5.942  1.1163 -0.5475  1.4045
  201MOL    H1736417   4.099   3.266   6.057 -0.2860 -1.2445  0.1651
  201MOL    H1836418   4.279   3.326   5.875 -0.5791  1.1108  0.0498
  201MOL    H1936419   4.302   3.170   5.588  1.1691  2.0012 -0.8099
  201MOL    C2036420   4.349   3.168   5.996  0.3186 -0.3206  0.0359
  201MOL    C2136421   4.413   3.275   6.087 -0.3740 -0.1848  0.6803
  201MOL    C2236422   4.526   3.352   6.011 -0.5119 -0.5204 -0.3429
  201MOL    O2336423   4.515   3.391   5.895 -0.2785  0.3076 -0.1086
  201MOL    O2436424   4.631   3.369   6.084  0.0196  0.0273 -0.4669
  201MOL    H2536425   4.428   3.119   5.939  1.7025  1.5825  0.2751
  201MOL    H2636426   4.307   3.086   6.054 -1.9753 -0.1490 -1.3037
  201MOL    H2736427   4.336   3.342   6.126 -0.4240  0.2210 -0.1204
  201MOL    H2836428   4.688   3.400   6.016  0.3785  1.9984  0.7080
  201MOL    C2936429   4.454   3.204   6.221 -0.1845 -0.5471  0.2459
  201MOL    C3036430   4.480   3.292   6.346 -0.2504  0.2459  0.2473
  201MOL    C3136431   4.605   3.247   6.419 -0.6305 -0.1211  0.2430
  201MOL    O3236432   4.703   3.315   6.449  0.1311  0.0245  0.5799
  201MOL    O3336433   4.586   3.118   6.459 -0.2163 -0.3106  0.3020
  201MOL    H3436434   4.534   3.132   6.205  0.7082 -0.5297  4.0112
  201MOL    H3536435   4.368   3.141   6.243  0.0312 -1.0040 -0.2036
  201MOL    H3636436   4.494   3.398   6.324 -3.4594  0.3735 -1.5060
  201MOL    H3736437   4.671   3.098   6.496  0.1402  0.7985  0.0869
  201MOL    C3836438   4.357   3.286   6.440 -0.2451 -0.2617 -0.2528
  201MOL    C3936439   4.217   3.341   6.398 -0.4648 -0.1354 -0.0458
  201MOL    C4036440   4.211   3.481   6.346  0.2806 -0.3493  0.3717
  201MOL    O4136441   4.280   3.571   6.394 -0.4371  0.2504  0.6623
  201MOL    O4236442   4.125   3.488   6.244 -0.3544  0.0882 -0.6111
  201MOL    H4336443   4.396   3.313   6.538  0.9741  0.2489 -0.8663
  201MOL    H4436444   4.340   3.180   6.461 -0.6594 -0.4251 -1.4122
  201MOL    H4536445   4.186   3.274   6.318  0.8293 -1.3572  0.4723
  201MOL    H4636446   4.111   3.579   6.219 -2.7993  0.8184  2.9984
  201MOL    C4736447   4.116   3.331   6.523  0.7659 -0.4093 -0.3143
  201MOL    C4836448   4.105   3.205   6.611 -0.2814  0.3069 -0.1877
  201MOL    C4936449   4.053   3.080   6.542 -1.1238 -0.5054 -0.0910
  201MOL    O5036450   4.060   3.058   6.421  0.2479 -0.5512  0.5471
  201MOL    O5136451   4.018   2.984   6.627 -0.1552  0.4349 -0.9115
  201MOL    H5236452   4.017   3.353   6.482  0.7713  0.7706  0.2710
  201MOL    H5336453   4.133   3.417   6.588 -0.7307 -0.8025  0.6108
  201MOL    H5436454   4.208   3.181   6.641 -0.3640  0.9426  0.6422
  201MOL    H5536455   3.991   2.906   6.582 -2.3779  0.2093  0.7314
  201MOL    C5636456   4.029   3.241   6.742 -0.0145 -0.2747  0.6140
  201MOL    C5736457   4.130   3.274   6.858 -0.2446  0.4295  0.3845
  201MOL    C5836458   4.210   3.156   6.910  0.4392  0.3612  0.7413
  201MOL    O5936459   4.333   3.159   6.895  0.3311  0.1930  0.0685
  201MOL    O6036460   4.138   3.061   6.977 -0.3172 -0.0431  0.2780
  201MOL    H6136461   3.962   3.159   6.767 -2.6098  2.0902  1.6828
  201MOL    H6236462   3.971   3.332   6.729 -0.7603 -0.7710  0.4650
  201MOL    H6336463   4.208   3.343   6.826  0.6927  0.7585  3.2310
  201MOL    H6436464   4.193   3.001   7.025 -1.2760 -1.1776 -0.0117
  201MOL    C6536465   4.057   3.344   6.979 -0.2176  1.6676 -0.2709
  201MOL    C6636466   4.068   3.500   6.971  0.4753 -0.3198 -0.3673
  201MOL    C6736467   4.209   3.550   6.998 -0.2111  0.1741 -0.2032
  201MOL    O6836468   4.314   3.478   6.998  0.3709  0.0844 -0.9796
  201MOL    O6936469   4.208   3.691   7.006  0.1453  0.2745  0.0185
  201MOL    H7036470   4.113   3.314   7.068  1.0126  0.1451 -1.5357
  201MOL    H7136471   3.959   3.296   6.978 -1.3281  3.8033  1.2986
  201MOL    H7236472   4.047   3.522   6.866  0.7558  0.0842 -0.3396
  201MOL    H7336473   4.291   3.730   7.026  0.0069  0.0079  1.1499
  201MOL    C7436474   3.957   3.572   7.050 -0.1090  0.2139 -0.7502
  201MOL    C7536475   3.956   3.561   7.202 -0.3761 -0.6126  0.0856
  201MOL    C7636476   3.892   3.429   7.244  0.4227  0.1980 -0.6027
  201MOL    O7736477   3.772   3.407   7.231  0.0129 -0.1616  0.3591
  201MOL    O7836478   3.973   3.339   7.298 -0.1279 -0.5035 -0.4056
  201MOL    H7936479   3.864   3.527   7.016 -2.8142  2.8336  2.6866
  201MOL    H8036480   3.960   3.675   7.015 -0.4862  0.5406  0.1536
  201MOL    H8136481   4.056   3.575   7.243  0.2447  2.4220 -2.3020
  201MOL    H8236482   3.926   3.257   7.305 -1.6510  0.4999  1.4105
  201MOL    C8336483   3.871   3.681   7.258 -0.6139 -1.1908 -0.1616
  201MOL    C8436484   3.944   3.815   7.264  0.3100  0.3449  0.7937
  201MOL    C8536485   4.050   3.829   7.378  0.3814  0.1929 -0.5346
  201MOL    O8636486   4.030   3.861   7.496  0.5021 -0.2370  0.5359
  201MOL    O8736487   4.170   3.795   7.330 -0.3670  0.1353 -0.3431
  201MOL    H8836488   3.828   3.657   7.355  0.8782  2.9054  1.6718
  201MOL    H8936489   3.788   3.699   7.190 -0.5957 -0.9021 -0.1117
  201MOL    H9036490   3.999   3.821   7.170 -0.3722  1.2080  0.4437
  201MOL    H9136491   4.230   3.816   7.400 -1.4589 -0.1017  0.6765
  201MOL    C9236492   3.842   3.935   7.275  0.3416  0.1246 -0.2776
  201MOL    C9336493   3.874   4.074   7.208  0.1961  0.6987 -0.5974
  201MOL    C9436494   3.926   4.060   7.065  0.4591  0.1450 -0.1074
  201MOL    O9536495   4.038   4.095   7.035 -0.0757 -0.1912  0.2859
  201MOL    O9636496   3.823   4.018   6.981  0.2153  0.3713  0.2316
  201MOL    H9736497   3.806   3.942   7.378 -3.7898  1.8385 -1.7292
  201MOL    H9836498   3.748   3.900   7.232 -0.5932  0.8069  1.1543
  201MOL    H9936499   3.785   4.134   7.190 -0.6153 -0.7554 -1.6151
  201MOL   H10036500   3.832   4.039   6.889 -1.9370 -1.2253 -0.3806
  201MOL   C10136501   3.973   4.165   7.290 -0.6521 -0.0921  0.7844
  201MOL   C10236502   3.908   4.215   7.424  0.6387  0.3093  0.8828
  201MOL   C10336503   3.847   4.358   7.410 -0.0751  0.6628 -0.3263
  201MOL   O10436504   3.867   4.447   7.487  0.2946 -0.3689  0.2544
  201MOL   O10536505   3.765   4.379   7.299  0.0429  0.2722 -0.1397
  201MOL   H10636506   4.015   4.249   7.235 -1.0341 -0.0455  0.5642
  201MOL   H10736507   4.060   4.104   7.314  0.9027  1.2933 -1.2204
  201MOL   H10836508   3.831   4.139   7.435 -0.5255  1.3216 -0.0853
  201MOL   H10936509   3.757   4.472   7.291 -0.0079  0.3800  1.1019
  201MOL   C11036510   3.985   4.189   7.554  0.4016  0.0493  0.2041
  201MOL   C11136511   3.912   4.206   7.687  0.6216 -0.3651  0.9909
  201MOL   C11236512   4.017   4.196   7.799  0.3540 -0.3025  0.1238
  201MOL   O11336513   4.017   4.109   0.031 -0.0147  0.5172  0.0832
  201MOL   O11436514   4.109   4.295   7.795  0.4817 -0.7587  0.7337
  201MOL   H11536515   4.059   4.270   7.557  2.2328 -1.6328  1.4888
  201MOL   H11636516   4.027   4.089   7.553 -2.4409 -1.1629 -0.9143
  201MOL   H11736517   3.880   4.309   7.698  1.2847 -0.1442  0.8473
  201MOL   H11836518   4.176   4.268   0.003  0.2333 -0.1567  1.2860
  201MOL   C11936519   3.797   4.102   7.710 -0.1768 -0.0961 -0.2414
  201MOL   C12036520   3.654   4.144   7.661  0.4851  0.1831 -0.0412
  201MOL   C12136521   3.607   4.277   7.709  0.1916 -0.4676 -0.1421
  201MOL   O12236522   3.598   4.309   7.831  0.4993  0.4846  0.1316
  201MOL   O12336523   3.569   4.361   7.610  0.3593  0.0325  0.2735
  201MOL   H12436524   3.793   4.063   7.812  1.2226 -0.4282 -0.3107
  201MOL   H12536525   3.816   4.008   7.658 -2.5401 -0.4287 -0.5864
  201MOL   H12636526   3.661   4.143   7.552 -0.3264 -2.2335 -0.1007
  201MOL   H12736527   3.523   4.440   7.635 -1.1505 -0.7298 -0.0365
  201MOL   C12836528   3.534   4.038   7.698 -0.4656  0.5074  0.4859
  201MOL   C12936529   3.507   3.911   7.608 -0.0039 -0.1557  0.1431
  201MOL   C13036530   3.446   3.952   7.469  0.0053 -0.1963  0.1682
  201MOL   O13136531   3.332   3.940   7.431 -0.0913  0.0783 -0.3591
  201MOL   O13236532   3.548   4.005   7.387  0.1794  0.1445  0.1549
  201MOL   H13336533   3.445   4.102   7.698 -0.8440  0.0209  3.0247
  201MOL   H13436534   3.558   3.999   7.797 -3.0212 -1.3123  0.4439
  201MOL   H13536535   3.610   3.881   7.587  0.2388  1.5733 -1.2745
  201MOL   H13636536   3.518   4.040   7.304 -0.3046 -0.6968 -0.0245
  201MOL   C13736537   3.428   3.804   7.676 -0.6007  0.1651 -0.2478
  201MOL   C13836538   3.294   3.841   7.742  0.5164  0.4042  0.1010
  201MOL   C13936539   3.299   3.813   0.037  0.1681  0.4208 -0.5060
  201MOL   O14036540   3.235   3.731   0.097  0.2191  0.4558 -1.3177
  201MOL   O14136541   3.393   3.891   0.102  0.9552 -0.2953 -0.1497
  201MOL   H14236542   3.489   3.762   7.756 -1.0780  0.3950  0.2388
  201MOL   H14336543   3.413   3.731   7.596  1.7218  0.2548 -0.8110
  201MOL   H14436544   3.273   3.947   7.733 -0.0191  0.6725  3.6257
  201MOL   H14536545   3.386   3.861   0.191 -2.0659  1.0289  0.1197
  201MOL   C14636546   3.180   3.767   7.670  0.2385 -0.5952  0.1909
  201MOL   C14736547   3.039   3.785   7.727  0.7328  0.1578  0.0375
  201MOL   C14836548   2.948   3.678   7.666  0.2808  0.3992 -0.2027
  201MOL   O14936549   2.905   3.691   7.548 -0.3430  0.0267  0.3600
  201MOL   O15036550   2.926   3.570   7.752  0.0304 -0.1487  0.0388
  201MOL   H15136551   3.192   3.659   7.661 -2.4531 -0.9846  0.8740
  201MOL   H15236552   3.167   3.811   7.571 -0.7863  1.3772  1.1858
  201MOL   H15336553   3.036   3.760   7.833  1.5934  2.8103  0.7043
  201MOL   H15436554   2.868   3.508   7.711  0.6190 -0.4418 -0.3650
  201MOL   C15536555   2.983   3.925   7.705 -0.3593  0.3420  0.6007
  201MOL   C15636556   2.859   3.965   7.794 -0.3006 -0.2746 -0.2644
  201MOL   C15736557   2.736   3.991   7.705  0.2756  0.2167  0.1950
  201MOL   O15836558   2.699   4.102   7.663  0.2291  1.0857  0.0942
  201MOL   O15936559   2.668   3.875   7.678 -0.1356 -0.1350 -0.3564
  201MOL   H16036560   2.953   3.946   7.602 -1.6293 -1.3852  0.5969
  201MOL   H16136561   3.065   3.997   7.713 -0.8708  0.9294  0.5520
  201MOL   H16236562   2.853   3.879   0.008 -0.3344 -0.2994 -0.2996
  201MOL   H16336563   2.581   3.879   7.642 -0.9240 -0.4316  1.5062
  201MOL   C16436564   2.888   4.095   0.013 -0.1418  0.6222 -0.1902
  201MOL   C16536565   2.987   4.102   0.127 -0.5460  0.4348 -0.0383
  201MOL   C16636566   2.937   4.023   0.250  0.9194  0.9951 -0.1197
  201MOL   O16736567   2.816   4.016   0.281  0.3261  0.0812  0.5790
  201MOL   O16836568   3.030   3.952   0.319 -0.4014 -0.4017 -0.3817
  201MOL   H16936569   2.800   4.140   0.059 -1.4548 -2.6258  0.6045
  201MOL   H17036570   2.929   4.156   7.785  3.5729 -0.2426  0.9626
  201MOL   H17136571   3.077   4.050   0.095 -1.0040 -0.3694 -0.0243
  201MOL   H17236572   2.989   3.922   0.399 -1.0542 -0.3797 -0.7048
  201MOL   C17336573   3.021   4.245   0.172 -0.0373  0.6109  0.2120
  201MOL   C17436574   3.167   4.265   0.238 -0.3624 -0.3513  1.1504
  201MOL   C17536575   3.277   4.265   0.129 -0.4183  0.3144 -0.1121
  201MOL   O17636576   3.257   4.238   0.012  0.1756 -0.8785 -0.0304
  201MOL   O17736577   3.389   4.312   0.177 -0.2524 -0.0372 -0.2771
  201MOL   H17836578   2.968   4.281   0.261  0.4327  1.1193  0.2883
  201MOL   H17936579   3.017   4.320   0.093 -0.5054  0.4805  0.1115
  201MOL   H18036580   3.171   4.359   0.292 -0.5573  0.3523 -0.0582
  201MOL   H18136581   3.465   4.312   0.120  1.9145 -0.6796  2.5106
  201MOL   H18236582   3.175   4.191   0.318 -2.5774 -2.0063 -0.1164
  202MOL     C136583   2.836   1.501   6.713  0.1207 -0.1611  0.3998
  202MOL     C236584   2.929   1.621   6.726  0.2689  0.4264 -0.6694
  202MOL     C336585   2.882   1.725   6.832 -0.2102 -0.1636  0.1553
  202MOL     O436586   2.763   1.749   6.858 -0.4105 -0.1545  0.0647
  202MOL     O536587   2.990   1.784   6.896 -0.1340 -0.5238 -0.0362
  202MOL     H636588   2.878   1.412   6.667  1.8163  1.8944 -2.1201
  202MOL     H736589   2.801   1.469   6.812  0.4082 -0.2599  0.4706
  202MOL     H836590   3.019   1.582   6.774 -1.0089 -0.4149  1.1048
  202MOL     H936591   2.957   1.856   6.946  1.7172  0.6434 -0.4351
  202MOL    H1036592   2.753   1.536   6.652 -0.0454 -1.0746  0.0941
  202MOL    C1136593   2.969   1.692   6.592  0.3345 -0.1667  0.3154
  202MOL    C1236594   3.103   1.776   6.588  0.3918 -0.0947 -0.4674
  202MOL    C1336595   3.105   1.867   6.464 -0.3199 -0.3475  0.8544
  202MOL    O1436596   3.074   1.984   6.472  0.3520 -0.3208  0.6293
  202MOL    O1536597   3.155   1.809   6.351  0.0711  0.0944  0.2366
  202MOL    H1636598   2.886   1.756   6.565 -0.1731 -0.7840  0.3900
  202MOL    H1736599   2.972   1.618   6.512  0.2378  0.1703 -0.0017
  202MOL    H1836600   3.084   1.844   6.671  1.1078 -0.8377  0.3094
  202MOL    H1936601   3.172   1.876   6.286 -3.7505 -1.7165 -2.7947
  202MOL    C2036602   3.229   1.682   6.604  0.1364 -0.0318  0.5524
  202MOL    C2136603   3.326   1.703   6.724  0.0989 -0.2825 -0.1949
  202MOL    C2236604   3.367   1.850   6.744 -0.2982 -0.3128 -0.0972
  202MOL    O2336605   3.356   1.932   6.651  0.5043  0.1985 -0.8509
  202MOL    O2436606   3.420   1.881   6.866 -0.9370 -0.0419  0.3143
  202MOL    H2536607   3.289   1.681   6.514  0.3500  0.3948  0.6905
  202MOL    H2636608   3.186   1.582   6.601 -1.2746  0.6031 -1.3025
  202MOL    H2736609   3.265   1.677   6.811 -1.5480 -0.9147 -1.5063
  202MOL    H2836610   3.443   1.973   6.872 -1.2839  0.1248 -0.9393
  202MOL    C2936611   3.443   1.606   6.720  0.0972 -0.0087 -0.5293
  202MOL    C3036612   3.411   1.460   6.744 -0.7000 -0.0266  0.3156
  202MOL    C3136613   3.359   1.421   6.890  0.0409  0.2799  0.2341
  202MOL    O3236614   3.425   1.427   6.992  0.3369 -0.4763 -0.4108
  202MOL    O3336615   3.225   1.375   6.892 -0.3220  0.1532  0.0488
  202MOL    H3436616   3.511   1.641   6.798 -0.0076  3.6322 -1.9700
  202MOL    H3536617   3.502   1.605   6.628  0.0827 -1.6021 -0.5282
  202MOL    H3636618   3.336   1.438   6.668  0.7942  0.4130 -1.3113
  202MOL    H3736619   3.199   1.353   6.980 -1.0732 -0.5079 -0.3284
  202MOL    C3836620   3.536   1.367   6.715 -0.0598 -0.5039 -0.7550
  202MOL    C3936621   3.518   1.268   6.595  0.4668 -0.2686 -1.5642
  202MOL    C4036622   3.418   1.159   6.630 -0.6520 -0.2612  0.2976
  202MOL    O4136623   3.449   1.048   6.680 -0.6735 -0.4207 -0.2145
  202MOL    O4236624   3.291   1.200   6.600 -0.3128 -0.0619 -0.1897
  202MOL    H4336625   3.568   1.320   6.809  0.0297  0.7593 -0.1446
  202MOL    H4436626   3.625   1.427   6.696  1.2656 -1.8728  0.8718
  202MOL    H4536627   3.469   1.333   6.522 -0.9132  0.3373 -0.1181
  202MOL    H4636628   3.230   1.135   6.631 -1.4875  1.8488  1.7026
  202MOL    C4736629   3.658   1.221   6.541 -0.0692  0.2058  0.5586
  202MOL    C4836630   3.649   1.201   6.385 -0.0655 -0.4024  0.4760
  202MOL    C4936631   3.730   1.080   6.338  0.0747 -0.0850 -0.0894
  202MOL    O5036632   3.821   1.083   6.255  0.6582  0.1148  1.1624
  202MOL    O5136633   3.672   0.965   6.385 -0.6690  0.1738 -0.1737
  202MOL    H5236634   3.671   1.124   6.589 -1.7563  1.3128  3.3255
  202MOL    H5336635   3.746   1.277   6.573  0.5653 -0.8202  0.6123
  202MOL    H5436636   3.545   1.183   6.357 -0.3738  1.3834  0.4126
  202MOL    H5536637   3.706   0.886   6.346  0.4936 -0.3696  1.8441
  202MOL    C5636638   3.683   1.334   6.307  0.0556 -0.8019 -0.5669
  202MOL    C5736639   3.573   1.378   6.209  0.2950  0.1240  0.3799
  202MOL    C5836640   3.552   1.285   6.093  0.0862  0.5133 -0.0294
  202MOL    O5936641   3.629   1.191   6.061 -0.1135  0.7399  0.7747
  202MOL    O6036642   3.444   1.316   6.018  0.2042 -0.0916 -0.1403
  202MOL    H6136643   3.778   1.341   6.254 -0.7969  3.4330 -1.7159
  202MOL    H6236644   3.699   1.410   6.383  0.3176 -1.7454  0.3324
  202MOL    H6336645   3.476   1.372   6.259 -1.8169  0.7769 -3.3759
  202MOL    H6436646   3.455   1.270   5.937  1.5154  1.7318 -1.0333
  202MOL    C6536647   3.591   1.531   6.160 -0.2211  0.6198  0.5284
  202MOL    C6636648   3.476   1.624   6.213 -0.1163  0.7813  0.5636
  202MOL    C6736649   3.336   1.570   6.194  0.1437  0.5610  0.0271
  202MOL    O6836650   3.290   1.546   6.081 -0.4242 -0.0407  0.0206
  202MOL    O6936651   3.279   1.533   6.309  0.2934  0.0862  0.4432
  202MOL    H7036652   3.591   1.541   6.052  0.5693 -0.5535  0.4128
  202MOL    H7136653   3.687   1.568   6.196  0.2919  2.3009 -2.4625
  202MOL    H7236654   3.496   1.633   6.319 -1.4524  0.5124  0.8451
  202MOL    H7336655   3.196   1.490   6.293  0.0899  0.5044  0.3815
  202MOL    C7436656   3.485   1.768   6.159 -0.0957 -0.0570  0.8283
  202MOL    C7536657   3.577   1.861   6.236  0.1717 -0.2838 -1.1688
  202MOL    C7636658   3.538   1.886   6.383 -0.4036 -0.1472  0.4047
  202MOL    O7736659   3.587   1.832   6.481  0.3044 -0.5710  0.2974
  202MOL    O7836660   3.434   1.967   6.391  0.3314  0.1512  0.7149
  202MOL    H7936661   3.383   1.805   6.170 -0.4441 -0.1327 -1.7859
  202MOL    H8036662   3.501   1.771   6.051 -2.0382 -1.2136  0.4735
  202MOL    H8136663   3.679   1.827   6.248 -0.5829 -2.6620 -1.1463
  202MOL    H8236664   3.398   1.973   6.479 -1.8621 -0.2826 -0.1112
  202MOL    C8336665   3.596   1.988   6.155 -0.2206 -0.9251 -0.0453
  202MOL    C8436666   3.704   1.969   6.040  0.4174  0.5022  0.5905
  202MOL    C8536667   3.846   1.969   6.097 -0.8694 -0.1638 -0.1314
  202MOL    O8636668   3.889   2.016   6.200 -0.4117  0.1835 -0.2459
  202MOL    O8736669   3.930   1.924   6.003  0.1058  0.2602  1.0537
  202MOL    H8836670   3.627   2.069   6.221  0.0625 -1.0444 -0.0309
  202MOL    H8936671   3.497   2.011   6.115  0.7432  0.9822 -1.4132
  202MOL    H9036672   3.694   1.867   6.004 -2.6591  0.8871  0.2297
  202MOL    H9136673   4.017   1.934   6.039  1.3667  2.0095 -2.2680
  202MOL    C9236674   3.681   2.066   5.918 -0.2568  0.2687 -0.1871
  202MOL    C9336675   3.747   2.036   5.780 -0.2511 -0.3160  0.4602
  202MOL    C9436676   3.875   2.119   5.754 -0.0963 -0.2823  0.0154
  202MOL    O9536677   3.981   2.068   5.732 -0.1312  0.0814 -0.2458
  202MOL    O9636678   3.850   2.252   5.766  0.1659  0.0386 -0.3222
  202MOL    H9736679   3.692   2.167   5.957  1.0903  0.0431  0.0283
  202MOL    H9836680   3.572   2.073   5.912 -0.1734  0.9161 -1.1600
  202MOL    H9936681   3.766   1.929   5.768 -0.4725 -0.4703  1.4308
  202MOL   H10036682   3.931   2.300   5.753  0.5951 -0.8340 -0.9043
  202MOL   C10136683   3.639   2.058   5.669  0.7492 -0.1730 -0.7176
  202MOL   C10236684   3.654   1.995   5.522 -0.5854  0.9727 -0.5004
  202MOL   C10336685   3.757   2.071   5.437 -0.7546  0.1457 -0.4674
  202MOL   O10436686   3.876   2.044   5.434 -0.3619  0.4294 -0.5662
  202MOL   O10536687   3.702   2.165   5.361 -0.3073 -0.5171 -0.1332
  202MOL   H10636688   3.612   2.164   5.665  1.9990  0.1517 -0.6885
  202MOL   H10736689   3.547   2.010   5.702  0.4892  0.1267 -1.0051
  202MOL   H10836690   3.706   1.902   5.547 -0.2112  1.3173  0.0038
  202MOL   H10936691   3.761   2.177   5.289 -0.1609 -1.8903 -0.2698
  202MOL   C11036692   3.524   1.965   5.456 -0.4052  0.8373  0.1322
  202MOL   C11136693   3.437   1.847   5.488  0.1604 -0.3403  0.0821
  202MOL   C11236694   3.311   1.892   5.564  0.6169  0.3366 -0.0410
  202MOL   O11336695   3.309   1.893   5.689  0.3609 -0.8541  0.7071
  202MOL   O11436696   3.207   1.928   5.488  0.3811  0.4128 -0.4249
  202MOL   H11536697   3.544   1.942   5.352  1.3274 -1.9006  1.0065
  202MOL   H11636698   3.473   2.061   5.446  0.8052  1.3299 -1.5769
  202MOL   H11736699   3.409   1.808   5.390  0.0767  0.2958 -0.1530
  202MOL   H11836700   3.147   1.940   5.559 -0.4758  1.5824 -1.3210
  202MOL   C11936701   3.518   1.736   5.572  0.2917  0.0985  0.5994
  202MOL   C12036702   3.436   1.610   5.611  0.2324  0.0521 -0.3329
  202MOL   C12136703   3.442   1.566   5.760 -0.1570  0.8131 -0.2634
  202MOL   O12236704   3.549   1.532   5.814 -0.9417 -0.0466  0.9650
  202MOL   O12336705   3.318   1.561   5.817  0.3558  0.3930  0.1578
  202MOL   H12436706   3.553   1.777   5.667  0.8157 -1.6529  1.1692
  202MOL   H12536707   3.604   1.695   5.519 -0.5086 -0.4260 -0.3130
  202MOL   H12636708   3.333   1.644   5.601 -0.1698 -0.3071  2.2488
  202MOL   H12736709   3.321   1.526   5.905  2.7914 -0.2433 -0.1300
  202MOL   C12836710   3.460   1.495   5.512 -0.6074 -0.0836 -0.3673
  202MOL   C12936711   3.340   1.397   5.495 -0.1767 -0.3325  0.9196
  202MOL   C13036712   3.394   1.266   5.447 -0.3053 -0.1747 -0.9116
  202MOL   O13136713   3.379   1.221   5.335  0.4486  0.0076 -0.5368
  202MOL   O13236714   3.483   1.212   5.534  0.0310 -0.7550  0.4631
  202MOL   H13336715   3.549   1.439   5.540 -0.4556 -0.6016 -1.8274
  202MOL   H13436716   3.488   1.528   5.412  3.8371  0.3102  0.9173
  202MOL   H13536717   3.298   1.379   5.594  1.1207  0.3759  1.6074
  202MOL   H13636718   3.522   1.142   5.485  1.9211  0.7932 -0.3422
  202MOL   C13736719   3.228   1.449   5.389  0.0019 -0.5263  0.0536
  202MOL   C13836720   3.092   1.375   5.385 -0.0633  0.4138  0.1936
  202MOL   C13936721   3.029   1.378   5.245 -0.3926 -0.0225  0.0070
  202MOL   O14036722   3.030   1.472   5.166  0.6708 -0.7611 -0.2879
  202MOL   O14136723   2.946   1.272   5.235  0.0127 -0.3532 -0.0234
  202MOL   H14236724   3.275   1.436   5.292 -5.7603 -0.8947 -2.9117
  202MOL   H14336725   3.204   1.554   5.407  0.7317 -0.4306  0.4796
  202MOL   H14436726   3.124   1.271   5.399 -1.9781 -0.1473  0.5324
  202MOL   H14536727   2.905   1.265   5.150 -1.4900  1.7887  0.4867
  202MOL   C14636728   2.985   1.413   5.493  0.0010  0.1760  0.5513
  202MOL   C14736729   3.009   1.391   5.643 -0.2068 -0.3670  0.2336
  202MOL   C14836730   3.011   1.239   5.672  1.1884 -0.2680  0.1291
  202MOL   O14936731   3.109   1.181   5.712  0.0873 -0.0828  0.2516
  202MOL   O15036732   2.897   1.172   5.643  0.5339 -0.0886  0.6499
  202MOL   H15136733   2.887   1.371   5.469 -1.2120  1.1545  3.5730
  202MOL   H15236734   2.972   1.520   5.480  1.2460  0.4148  1.1819
  202MOL   H15336735   3.101   1.435   5.683 -1.0188  1.4570  0.1320
  202MOL   H15436736   2.908   1.078   5.648 -1.3241 -0.3652  0.0059
  202MOL   C15536737   2.907   1.466   5.726 -0.7769  0.0046 -0.4156
  202MOL   C15636738   2.923   1.616   5.733  0.1753 -0.4305  0.0094
  202MOL   C15736739   3.020   1.661   5.846  0.1460 -0.8490  0.1234
  202MOL   O15836740   3.040   1.591   5.946  0.3269  0.0897 -0.0442
  202MOL   O15936741   3.061   1.790   5.833 -0.0837 -0.1428  0.1864
  202MOL   H16036742   2.913   1.418   5.824 -2.1097 -0.0397 -0.3457
  202MOL   H16136743   2.808   1.437   5.689 -0.1203 -2.0282 -0.6837
  202MOL   H16236744   2.972   1.650   5.641  1.4214  1.8154  1.4468
  202MOL   H16336745   3.101   1.823   5.912  0.2272 -0.4200  0.1475
  202MOL   C16436746   2.779   1.676   5.757  0.2105 -0.8808 -0.0756
  202MOL   C16536747   2.766   1.824   5.793 -0.3533 -0.5248  0.5892
  202MOL   C16636748   2.619   1.863   5.815 -0.4821  0.9673  0.1294
  202MOL   O16736749   2.542   1.849   5.722 -0.1788 -0.0723 -0.3956
  202MOL   O16836750   2.588   1.896   5.944 -0.2915 -0.6713 -0.1147
  202MOL   H16936751   2.731   1.619   5.836  2.4385 -0.3315  1.7034
  202MOL   H17036752   2.706   1.651   5.679 -0.9249  1.0197  0.3241
  202MOL   H17136753   2.812   1.848   5.889 -1.7876 -0.0967  1.1833
  202MOL   H17236754   2.497   1.922   5.949 -0.0432  0.4373 -1.1991
  202MOL   C17336755   2.834   1.922   5.686 -0.5488 -0.0822  0.2113
  202MOL   C17436756   2.894   2.062   5.741 -0.1818  0.6561 -0.2004
  202MOL   C17536757   2.953   2.136   5.624 -0.4474 -0.2431 -0.1984
  202MOL   O17636758   2.982   2.086   5.518 -0.6084  0.2111 -0.2393
  202MOL   O17736759   2.985   2.263   5.654 -0.7421  0.1354  0.0892
  202MOL   H17836760   2.757   1.951   5.614 -1.0193 -0.5377  0.5295
  202MOL   H17936761   2.907   1.875   5.621 -1.6480 -0.7516 -0.5516
  202MOL   H18036762   2.814   2.121   5.785 -0.2000  0.2301  0.3513
  202MOL   H18136763   3.017   2.301   5.573  1.4443 -0.0413  0.8394
  202MOL   H18236764   2.972   2.036   5.813  0.0333  0.7668 -0.3925
  203MOL     C136765   2.581   2.591   2.746  0.3241  0.0062  0.1638
  203MOL     C236766   2.447   2.560   2.677  0.2758 -0.0771 -0.9438
  203MOL     C336767   2.471   2.475   2.557 -0.0664  0.7250 -0.0050
  203MOL     O436768   2.576   2.449   2.500  0.5105 -0.8216 -0.1810
  203MOL     O536769   2.350   2.426   2.513  0.4449  0.0773  0.2795
  203MOL     H636770   2.673   2.551   2.703 -0.0965  2.0028 -2.7356
  203MOL     H736771   2.594   2.700   2.751 -1.4402  0.4399 -3.5557
  203MOL     H836772   2.386   2.488   2.732 -0.9671  2.8092  1.5616
  203MOL     H936773   2.365   2.379   2.433  0.0746  0.6684 -0.1399
  203MOL    H1036774   2.575   2.553   2.848 -2.0693  0.9858  0.4209
  203MOL    C1136775   2.357   2.684   2.653  0.7036 -0.2783 -0.1186
  203MOL    C1236776   2.256   2.716   2.767 -0.0548 -0.3748 -0.6212
  203MOL    C1336777   2.137   2.619   2.755  0.1361  0.1160  0.0920
  203MOL    O1436778   2.108   2.550   2.657 -0.4742  0.0986  0.3183
  203MOL    O1536779   2.062   2.616   2.873  0.0989 -0.2224  0.1812
  203MOL    H1636780   2.294   2.663   2.567 -0.2475  0.2130  0.4531
  203MOL    H1736781   2.421   2.768   2.626  0.8510 -0.2611  0.2791
  203MOL    H1836782   2.306   2.699   2.862 -1.7796 -0.4557  0.2967
  203MOL    H1936783   2.083   2.692   2.925 -1.4356  0.8938 -0.7926
  203MOL    C2036784   2.204   2.858   2.764 -0.2169  0.1136  0.6874
  203MOL    C2136785   2.297   2.977   2.802 -0.2828 -0.6652 -0.2362
  203MOL    C2236786   2.395   2.949   2.905  0.0175  0.3094  0.2395
  203MOL    O2336787   2.388   2.998   3.013  0.8527  0.1882  0.0875
  203MOL    O2436788   2.505   2.883   2.863  0.6088  0.0590  0.1467
  203MOL    H2536789   2.123   2.846   2.837 -1.1648  0.4513 -0.2945
  203MOL    H2636790   2.148   2.883   2.674 -1.3984 -0.2270  1.3102
  203MOL    H2736791   2.359   2.992   2.713 -1.2769 -0.8621 -0.9675
  203MOL    H2836792   2.564   2.892   2.937 -0.5602  1.2319  0.9580
  203MOL    C2936793   2.221   3.116   2.841  0.2929  0.1781  0.0231
  203MOL    C3036794   2.165   3.216   2.734 -0.3091 -0.6994  0.1905
  203MOL    C3136795   2.282   3.308   2.683 -0.7855  0.5752 -0.7646
  203MOL    O3236796   2.267   3.430   2.686  0.4355  0.1872  0.0964
  203MOL    O3336797   2.391   3.235   2.651 -0.4528  0.7768 -0.3116
  203MOL    H3436798   2.291   3.172   2.901  0.0929 -0.2142  0.6263
  203MOL    H3536799   2.140   3.083   2.907  1.3302 -1.8260  0.3344
  203MOL    H3636800   2.119   3.165   2.650 -0.2317  1.8694 -1.4672
  203MOL    H3736801   2.460   3.298   2.641 -0.3572  0.6692 -0.3234
  203MOL    C3836802   2.046   3.296   2.789  0.2672  0.8567 -0.0457
  203MOL    C3936803   2.065   3.378   2.917 -0.5853 -0.3225  0.0470
  203MOL    C4036804   2.070   3.295   3.051  0.2340 -0.8269  0.8459
  203MOL    O4136805   2.178   3.283   3.111  0.3911  0.1376 -0.4638
  203MOL    O4236806   1.950   3.242   3.089 -0.6138  0.1969 -0.0395
  203MOL    H4336807   1.967   3.224   2.806  0.0702  1.3612  1.2078
  203MOL    H4436808   2.008   3.357   2.707  0.7155  1.2813  0.0602
  203MOL    H4536809   2.163   3.424   2.920  0.9521 -3.3902 -0.9004
  203MOL    H4636810   1.951   3.181   3.162  1.0081  0.5153  0.2203
  203MOL    C4736811   1.967   3.493   2.922  0.0136  0.8505  0.3404
  203MOL    C4836812   1.965   3.584   3.053  0.0249  0.4588  0.4461
  203MOL    C4936813   1.850   3.687   3.040  0.6632  0.3123  0.6305
  203MOL    O5036814   1.875   3.801   3.028  0.2894 -0.1074  0.4056
  203MOL    O5136815   1.728   3.631   3.023  0.4168 -0.0382  0.6765
  203MOL    H5236816   1.870   3.453   2.895  1.1506 -2.1535  0.5191
  203MOL    H5336817   1.993   3.566   2.845  0.3564  1.1352  0.7235
  203MOL    H5436818   1.913   3.521   3.125  1.4883  1.0332  2.0181
  203MOL    H5536819   1.661   3.696   3.012 -0.0998 -0.7019 -0.2103
  203MOL    C5636820   2.103   3.643   3.106 -0.1037  0.3912 -0.2175
  203MOL    C5736821   2.114   3.669   3.257  0.1280 -0.8879 -0.1027
  203MOL    C5836822   2.048   3.792   3.321  0.5926  0.3908 -0.3632
  203MOL    O5936823   1.939   3.792   3.377 -0.3238  0.6968 -0.0531
  203MOL    O6036824   2.127   3.904   3.294 -0.2726 -0.0606 -0.7545
  203MOL    H6136825   2.118   3.743   3.065  3.1120  1.1821  2.6736
  203MOL    H6236826   2.192   3.588   3.076  0.4816  0.8171  0.7086
  203MOL    H6336827   2.072   3.584   3.311  0.6518 -1.0520  0.0486
  203MOL    H6436828   2.089   3.987   3.318 -0.4681 -0.5586  0.7219
  203MOL    C6536829   2.261   3.662   3.311 -0.3384  0.0801 -0.0524
  203MOL    C6636830   2.331   3.520   3.321 -0.1226 -0.1519  0.0305
  203MOL    C6736831   2.312   3.456   3.462  0.3773 -0.0434  0.0812
  203MOL    O6836832   2.400   3.408   3.529 -0.1394  0.0889 -0.3440
  203MOL    O6936833   2.182   3.465   3.511 -0.3071  0.5986 -0.4957
  203MOL    H7036834   2.263   3.711   3.408  1.1588  0.6685 -0.3699
  203MOL    H7136835   2.319   3.728   3.246 -0.3916  0.0355 -0.1462
  203MOL    H7236836   2.280   3.459   3.247 -2.1790 -0.3285  1.5268
  203MOL    H7336837   2.184   3.413   3.590 -0.0005  2.9302  1.0748
  203MOL    C7436838   2.477   3.531   3.269 -0.1494  0.0490  0.0823
  203MOL    C7536839   2.488   3.536   3.110 -0.6506 -0.2956  0.6257
  203MOL    C7636840   2.484   3.394   3.043 -0.7751  0.1163 -0.1608
  203MOL    O7736841   2.471   3.291   3.101 -0.0860 -0.1813 -0.3826
  203MOL    O7836842   2.481   3.412   2.910 -0.5358  0.4483  0.2022
  203MOL    H7936843   2.545   3.454   3.306  1.7190  2.5356  1.9088
  203MOL    H8036844   2.521   3.624   3.304 -0.1881  0.5307 -1.1008
  203MOL    H8136845   2.399   3.582   3.067 -1.5419 -2.1283  0.4676
  203MOL    H8236846   2.494   3.504   2.889  3.0176  0.1468  0.6890
  203MOL    C8336847   2.605   3.627   3.061  0.1435  0.5729  0.3957
  203MOL    C8436848   2.569   3.762   2.993  0.4133  0.3360 -0.5443
  203MOL    C8536849   2.536   3.741   2.846 -0.1614  0.1491  1.0508
  203MOL    O8636850   2.535   3.630   2.793  0.4916  0.7078  0.4625
  203MOL    O8736851   2.485   3.859   2.800 -0.1901 -0.0039 -0.0521
  203MOL    H8836852   2.665   3.571   2.989  0.7398 -1.7305  2.6300
  203MOL    H8936853   2.673   3.629   3.147 -1.6579 -0.3772  1.8768
  203MOL    H9036854   2.479   3.796   3.043  0.1431 -1.3930  0.1475
  203MOL    H9136855   2.439   3.840   2.719 -2.0775  0.9076  0.7606
  203MOL    C9236856   2.681   3.862   3.015  0.3947 -0.8490 -0.5279
  203MOL    C9336857   2.685   3.916   3.158 -0.0213 -0.2936 -0.1898
  203MOL    C9436858   2.573   4.024   3.180 -0.5019 -0.0250  0.0386
  203MOL    O9536859   2.536   4.101   3.094 -0.2429  0.3073  0.6456
  203MOL    O9636860   2.514   4.021   3.312 -0.3001 -0.7160 -0.0230
  203MOL    H9736861   2.675   3.951   2.951  2.5832  0.7563  1.4268
  203MOL    H9836862   2.772   3.812   2.984  0.7298 -1.2964  1.1299
  203MOL    H9936863   2.658   3.831   3.220 -0.9816 -0.2076 -0.4938
  203MOL   H10036864   2.469   4.103   3.327 -0.2380 -1.3250  4.1617
  203MOL   C10136865   2.824   3.959   3.206  0.3369  0.6310 -0.7371
  203MOL   C10236866   2.885   4.088   3.144 -0.1234 -0.4139  0.4801
  203MOL   C10336867   2.953   4.058   3.014  0.7857 -0.5066 -0.1867
  203MOL   O10436868   3.016   3.957   2.990 -0.1346 -0.0174  0.2604
  203MOL   O10536869   2.962   4.162   2.928 -0.2545  0.1168  0.2314
  203MOL   H10636870   2.893   3.883   3.170  0.3537  0.4640 -0.3573
  203MOL   H10736871   2.843   3.957   3.313 -0.8135  1.1415 -0.5118
  203MOL   H10836872   2.800   4.151   3.118  0.0127 -0.8736 -1.1273
  203MOL   H10936873   3.005   4.127   2.852 -0.7584 -2.7902  1.2105
  203MOL   C11036874   2.982   4.158   3.251 -0.1383 -0.3649  0.1202
  203MOL   C11136875   2.908   4.259   3.345 -0.0156  0.2717 -0.4117
  203MOL   C11236876   2.837   4.185   3.463 -0.7727 -0.3347 -0.0008
  203MOL   O11336877   2.728   4.224   3.509 -0.2788  0.1125  0.0682
  203MOL   O11436878   2.913   4.098   3.531 -0.3454 -0.1410  0.0846
  203MOL   H11536879   3.051   4.216   3.190  0.7047 -2.3873 -0.8735
  203MOL   H11636880   3.044   4.089   3.309 -1.7475 -0.7798  1.3893
  203MOL   H11736881   2.989   4.308   3.400 -0.1002  1.4174 -1.2773
  203MOL   H11836882   2.868   4.061   3.605 -1.9627  1.1621 -0.2238
  203MOL   C11936883   2.822   4.371   3.282  0.0693  0.1851  0.3971
  203MOL   C12036884   2.896   4.469   3.177 -0.4180  0.4984 -0.1027
  203MOL   C12136885   2.978   4.570   3.246  0.4764 -0.8799 -0.1630
  203MOL   O12236886   2.930   4.679   3.289 -0.0581 -0.5303 -0.7788
  203MOL   O12336887   3.106   4.540   3.258 -0.4240  0.5158 -0.3397
  203MOL   H12436888   2.791   4.443   3.358 -0.0816  0.4576  0.0797
  203MOL   H12536889   2.736   4.322   3.235  0.0061  1.6874 -1.1222
  203MOL   H12636890   2.953   4.399   3.116 -0.4903 -1.7230  2.2574
  203MOL   H12736891   3.156   4.608   3.300 -0.1941  0.8192 -1.0879
  203MOL   C12836892   2.790   4.516   3.077 -0.2041  0.3867 -0.1872
  203MOL   C12936893   2.844   4.581   2.943 -0.2408 -0.2347  0.5800
  203MOL   C13036894   2.755   4.686   2.869  0.7575  0.4360  0.2734
  203MOL   O13136895   2.638   4.695   2.893  0.0631 -0.4399  0.5900
  203MOL   O13236896   2.817   4.763   2.776 -0.1865  0.4545 -0.4470
  203MOL   H13336897   2.721   4.592   3.115  0.6611  0.2552  1.7041
  203MOL   H13436898   2.729   4.431   3.049 -0.6633 -0.6509  3.5968
  203MOL   H13536899   2.931   4.642   2.970 -0.3510 -0.5818  1.7664
  203MOL   H13636900   2.911   4.758   2.767  0.1070  1.0320  2.1749
  203MOL   C13736901   2.909   4.479   2.846 -0.0288 -0.0425  0.0968
  203MOL   C13836902   2.834   4.420   2.720 -0.5189  0.0238 -0.0615
  203MOL   C13936903   2.705   4.345   2.757  0.4786  0.3374  0.0355
  203MOL   O14036904   2.599   4.401   2.786 -0.0056 -0.9025  0.3840
  203MOL   O14136905   2.723   4.213   2.771 -0.3439  0.1295  0.1697
  203MOL   H14236906   2.961   4.398   2.898  1.7168  1.1083  0.1596
  203MOL   H14336907   2.990   4.527   2.792  1.6182 -0.0834  2.4825
  203MOL   H14436908   2.796   4.511   2.674  0.0337  0.2011 -0.1685
  203MOL   H14536909   2.638   4.174   2.784 -0.1511  0.2966  2.1332
  203MOL   C14636910   2.928   4.347   2.615  0.0533  0.6746 -0.4463
  203MOL   C14736911   2.948   4.417   2.476 -1.1633  1.0347 -0.7445
  203MOL   C14836912   2.821   4.408   2.393  0.6062 -0.2681  0.8998
  203MOL   O14936913   2.712   4.374   2.439 -0.0824  0.9646 -1.1517
  203MOL   O15036914   2.834   4.454   2.264 -0.2955  0.3209  0.0237
  203MOL   H15136915   2.892   4.245   2.602 -2.5405  1.2318  1.9539
  203MOL   H15236916   3.019   4.342   2.675 -0.2150  1.3041  0.0266
  203MOL   H15336917   2.960   4.520   2.508 -0.7638  1.1689 -1.3169
  203MOL   H15436918   2.746   4.460   2.230 -1.6668  1.7628  3.6414
  203MOL   C15536919   3.072   4.369   2.399 -0.0226  0.6444  0.6232
  203MOL   C15636920   3.139   4.473   2.304 -0.3625  0.7211 -0.3273
  203MOL   C15736921   3.169   4.417   2.164 -0.4247  0.3440 -0.2467
  203MOL   O15836922   3.168   4.475   2.056  1.0643 -0.7890  1.0977
  203MOL   O15936923   3.220   4.293   2.167  0.0389  0.2937 -0.6710
  203MOL   H16036924   3.053   4.270   2.356 -1.2491  1.7029 -1.3499
  203MOL   H16136925   3.141   4.326   2.472 -0.0511  0.8652  0.7796
  203MOL   H16236926   3.074   4.560   2.304 -0.8867  0.3246 -0.0628
  203MOL   H16336927   3.246   4.264   2.081  1.2805 -0.5527 -0.0205
  203MOL   C16436928   3.281   4.521   2.357 -0.1764 -0.7126  0.2235
  203MOL   C16536929   3.322   4.666   2.301 -0.0442  0.0080 -0.2176
  203MOL   C16636930   3.472   4.708   2.331 -0.1784  0.1966  0.1769
  203MOL   O16736931   3.542   4.653   2.422 -0.0938 -0.2976 -0.1939
  203MOL   O16836932   3.513   4.809   2.244  0.3456 -0.3807 -0.0267
  203MOL   H16936933   3.351   4.441   2.332 -1.9349 -1.9611 -0.8220
  203MOL   H17036934   3.271   4.527   2.465 -1.5800  0.1255  0.0577
  203MOL   H17136935   3.315   4.660   2.192  1.1000  0.2777 -0.3208
  203MOL   H17236936   3.605   4.829   2.242 -0.1104  1.6919 -1.9423
  203MOL   C17336937   3.231   4.775   2.355  0.5251 -0.1630  0.1721
  203MOL   C17436938   3.236   4.802   2.506  0.1921 -0.1188 -0.4313
  203MOL   C17536939   3.095   4.812   2.566 -0.8596 -0.0762 -0.2914
  203MOL   O17636940   3.055   4.740   2.656  0.4041  0.5189  0.5326
  203MOL   O17736941   3.014   4.891   2.495 -0.1428 -0.3632 -0.5117
  203MOL   H17836942   3.130   4.748   2.324  0.7323 -2.2396  1.2402
  203MOL   H17936943   3.245   4.869   2.301  0.2915 -0.0885  0.2392
  203MOL   H18036944   3.299   4.726   2.551 -0.5608  0.8659  2.3552
  203MOL   H18136945   2.925   4.905   2.524 -0.0414  2.0511 -1.2344
  203MOL   H18236946   3.294   4.894   2.507  0.3852 -0.2211 -1.3702
  204MOL     C136947   2.506   1.040   7.570 -0.5029 -1.0428 -0.5713
  204MOL     C236948   2.534   1.157   7.473  1.0927 -0.5799 -0.1988
  204MOL     C336949   2.634   1.232   7.562  0.0413  0.2906 -0.2468
  204MOL     O436950   2.608   1.321   7.641 -0.3862  0.0625  0.4653
  204MOL     O536951   2.752   1.175   7.544  0.3042 -0.1331  0.2973
  204MOL     H636952   2.597   0.983   7.589 -0.0463 -0.1819 -0.1502
  204MOL     H736953   2.468   1.050   7.672 -2.3468 -1.0804 -1.2350
  204MOL     H836954   2.581   1.105   7.389 -0.5268 -2.3964 -0.0061
  204MOL     H936955   2.799   1.209   7.619  1.3069  1.0415 -0.8232
  204MOL    H1036956   2.436   0.969   7.526 -0.5805 -0.2607 -1.7313
  204MOL    C1136957   2.396   1.229   7.429 -0.0097  0.6828 -0.0667
  204MOL    C1236958   2.414   1.380   7.379 -0.1497 -0.4988 -0.1092
  204MOL    C1336959   2.269   1.437   7.370 -0.1474 -0.5664 -0.3734
  204MOL    O1436960   2.226   1.481   7.264  0.2979 -0.2165  0.1865
  204MOL    O1536961   2.200   1.443   7.488 -0.4208 -0.1318 -0.0080
  204MOL    H1636962   2.340   1.219   7.522  0.6515 -3.2251 -0.0166
  204MOL    H1736963   2.354   1.170   7.348 -3.5398  0.7953  1.5999
  204MOL    H1836964   2.467   1.434   7.458 -0.1058  1.4579 -1.4405
  204MOL    H1936965   2.251   1.406   7.559  1.7262 -0.8377 -1.8518
  204MOL    C2036966   2.492   1.389   7.246 -0.6162 -0.0117 -0.2928
  204MOL    C2136967   2.590   1.507   7.231  0.1983  0.1332  0.3461
  204MOL    C2236968   2.631   1.513   7.082 -0.4536  0.1383 -0.0869
  204MOL    O2336969   2.723   1.449   7.036 -0.0721  0.1633 -0.2653
  204MOL    O2436970   2.552   1.591   7.009 -0.1144  0.3077 -0.9338
  204MOL    H2536971   2.418   1.387   7.166 -0.3942  1.9245 -0.5621
  204MOL    H2636972   2.551   1.299   7.228 -1.2016 -0.1323 -1.7283
  204MOL    H2736973   2.546   1.603   7.255 -0.1610 -0.0702  0.5046
  204MOL    H2836974   2.573   1.579   6.918  1.9841  0.8731 -0.5668
  204MOL    C2936975   2.717   1.488   7.323  0.6336 -0.2206 -0.2270
  204MOL    C3036976   2.815   1.612   7.342  0.2755  0.0135 -0.3334
  204MOL    C3136977   2.952   1.572   7.283 -0.4990  0.2609 -0.4171
  204MOL    O3236978   3.049   1.548   7.350  0.0785 -0.3216 -0.0171
  204MOL    O3336979   2.948   1.580   7.149 -0.5426  0.6596  0.1910
  204MOL    H3436980   2.764   1.391   7.309  2.6083  0.3481  2.1375
  204MOL    H3536981   2.660   1.472   7.415  1.3126 -2.6206 -0.2036
  204MOL    H3636982   2.775   1.684   7.270  0.4259 -0.5911 -1.0253
  204MOL    H3736983   3.036   1.568   7.117 -0.8248  0.0892 -0.3860
  204MOL    C3836984   2.809   1.664   7.480  0.1136  0.4275 -0.3545
  204MOL    C3936985   2.882   1.793   7.497  0.0104 -0.6744  0.4670
  204MOL    C4036986   2.968   1.791   7.625  0.0336 -0.1520 -0.2058
  204MOL    O4136987   2.953   1.872   7.716 -0.5602 -0.3391  0.3061
  204MOL    O4236988   3.060   1.689   7.625  0.3085  0.6877  0.0318
  204MOL    H4336989   2.844   1.589   7.551 -0.4897 -1.1869 -1.7468
  204MOL    H4436990   2.703   1.669   7.504  0.1178 -3.5388  0.9311
  204MOL    H4536991   2.964   1.805   7.426  1.2245 -0.0619  1.9491
  204MOL    H4636992   3.074   1.641   7.544 -2.3885 -2.0683  1.0835
  204MOL    C4736993   2.792   1.922   7.473  0.0488  0.2428 -1.1589
  204MOL    C4836994   2.856   2.028   7.381 -0.6780  0.1849 -0.6681
  204MOL    C4936995   2.952   2.125   7.457 -0.3685 -0.0784  0.1861
  204MOL    O5036996   2.915   2.200   7.553  0.4206 -0.2386 -0.2638
  204MOL    O5136997   3.076   2.134   7.402 -0.5002 -0.0101 -0.1011
  204MOL    H5236998   2.770   1.980   7.562  1.4001 -0.5208 -0.3074
  204MOL    H5336999   2.702   1.887   7.423  0.8882 -1.7360 -1.3324
  204MOL    H5437000   2.920   1.969   7.316 -0.9505  1.2133 -1.9029
  204MOL    H5537001   3.125   2.190   7.460 -1.5494  0.8050  0.0028
  204MOL    C5637002   2.750   2.117   7.301 -0.5014  0.0637  0.7272
  204MOL    C5737003   2.650   2.040   7.210 -0.1819 -0.5108 -0.0250
  204MOL    C5837004   2.716   1.970   7.093  0.2473 -1.2188  0.5511
  204MOL    O5937005   2.836   1.969   7.072 -0.3585  0.4203 -0.5883
  204MOL    O6037006   2.626   1.905   7.011  0.1678 -0.2686  0.4003
  204MOL    H6137007   2.808   2.191   7.246 -2.1257  0.5728 -0.3465
  204MOL    H6237008   2.694   2.182   7.369 -1.9318  1.3008 -1.5588
  204MOL    H6337009   2.596   1.959   7.259 -0.8434 -1.7316 -2.6894
  204MOL    H6437010   2.667   1.858   6.939 -1.1197 -2.2538  0.9321
  204MOL    C6537011   2.528   2.134   7.164 -0.5696 -0.0142 -0.3038
  204MOL    C6637012   2.386   2.067   7.178  0.2591 -0.1946 -0.7898
  204MOL    C6737013   2.297   2.160   7.092 -0.3904  0.3710 -0.3120
  204MOL    O6837014   2.203   2.225   7.139  0.4658 -0.6859  0.4264
  204MOL    O6937015   2.326   2.141   6.959  0.2510 -0.4727  0.4446
  204MOL    H7037016   2.547   2.174   7.065 -1.2505 -2.1675 -1.3204
  204MOL    H7137017   2.529   2.227   7.220  0.7806 -0.2668  0.1331
  204MOL    H7237018   2.395   1.968   7.131  1.7020 -1.2473  1.6521
  204MOL    H7337019   2.267   2.193   6.907 -0.4525 -0.0056  1.6971
  204MOL    C7437020   2.333   2.051   7.324 -0.7325  0.4816 -0.1631
  204MOL    C7537021   2.214   1.961   7.369 -0.0401  0.0870  0.2198
  204MOL    C7637022   2.241   1.811   7.350 -0.2396 -0.3879 -0.2724
  204MOL    O7737023   2.310   1.751   7.431  0.4470  0.0236 -0.0247
  204MOL    O7837024   2.176   1.754   7.246  0.0805  0.3561  0.5492
  204MOL    H7937025   2.325   2.142   7.385  1.6042 -2.3143  4.5987
  204MOL    H8037026   2.415   2.000   7.374 -0.7339 -0.0170 -0.6744
  204MOL    H8137027   2.219   1.973   7.477 -1.0407 -1.0226  0.3947
  204MOL    H8237028   2.191   1.661   7.236 -0.8754  0.1003  1.4019
  204MOL    C8337029   2.073   1.999   7.312 -0.1486 -0.2681 -0.0176
  204MOL    C8437030   2.005   2.123   7.370  0.0134 -1.4285 -0.1488
  204MOL    C8537031   1.988   2.105   7.516 -0.0744 -0.2831 -0.4589
  204MOL    O8637032   1.951   2.001   7.566 -0.2003 -0.7522 -0.9773
  204MOL    O8737033   2.013   2.217   7.580 -0.5986 -0.2350  0.4524
  204MOL    H8837034   1.997   1.923   7.332 -0.5428  0.5738  1.8514
  204MOL    H8937035   2.084   2.019   7.206  2.2377  1.5957  0.5480
  204MOL    H9037036   2.072   2.208   7.365 -0.5869 -0.8254  1.7222
  204MOL    H9137037   2.012   2.213   7.675  0.7383  2.3908  0.6453
  204MOL    C9237038   1.871   2.160   7.305  0.4797  0.3667  0.4953
  204MOL    C9337039   1.818   2.298   7.331 -1.2208 -0.0292 -0.5856
  204MOL    C9437040   1.670   2.306   7.316 -0.0179  0.1227 -0.7195
  204MOL    O9537041   1.607   2.336   7.213  0.3104  0.7692  0.3129
  204MOL    O9637042   1.617   2.267   7.434  0.6505  0.1801 -0.1909
  204MOL    H9737043   1.803   2.085   7.345  1.3906  0.0600  1.4761
  204MOL    H9837044   1.887   2.150   7.197  0.4959 -2.2014  0.6842
  204MOL    H9937045   1.843   2.318   7.435 -0.1944  1.1065 -1.0331
  204MOL   H10037046   1.525   2.252   7.417  0.7154  1.0095 -1.3322
  204MOL   C10137047   1.890   2.409   7.242  0.1109 -0.0471 -0.0316
  204MOL   C10237048   1.844   2.555   7.246 -0.0330 -0.1181 -0.2931
  204MOL   C10337049   1.897   2.636   7.124  0.4325 -0.0329  0.2948
  204MOL   O10437050   1.981   2.723   7.145 -0.3631 -0.5832  0.2243
  204MOL   O10537051   1.832   2.606   7.013  0.5222 -0.0663  0.1632
  204MOL   H10637052   1.879   2.375   7.139 -0.0671  2.0756 -0.7274
  204MOL   H10737053   1.995   2.400   7.268  0.2338 -0.5232 -0.6591
  204MOL   H10837054   1.737   2.546   7.230 -0.1363 -1.1997  0.9471
  204MOL   H10937055   1.858   2.655   6.936  1.2764 -0.3117  0.2559
  204MOL   C11037056   1.877   2.626   7.378 -0.0161 -0.0670 -0.3230
  204MOL   C11137057   1.788   2.756   7.404  0.2648  0.0461  0.9030
  204MOL   C11237058   1.888   2.857   7.443 -0.4937 -0.4494 -0.3440
  204MOL   O11337059   1.966   2.845   7.541 -0.4144  0.3865 -0.0164
  204MOL   O11437060   1.882   2.970   7.372  0.4514  0.1692 -0.0828
  204MOL   H11537061   1.984   2.638   7.389 -0.2095  0.5936  0.8589
  204MOL   H11637062   1.848   2.551   7.452  0.2632  0.4992  0.3644
  204MOL   H11737063   1.739   2.790   7.313  0.7491  0.7035  0.8802
  204MOL   H11837064   1.948   3.028   7.407 -0.1688  0.3936  0.7402
  204MOL   C11937065   1.669   2.738   7.501  0.2615  0.5512  0.0425
  204MOL   C12037066   1.688   2.732   7.654  0.5450 -0.3029 -0.0109
  204MOL   C12137067   1.766   2.616   7.711  0.4066 -0.9105 -0.0246
  204MOL   O12237068   1.750   2.499   7.673 -0.3718  0.4097  0.3148
  204MOL   O12337069   1.847   2.651   7.813  0.0250 -0.0854 -0.3934
  204MOL   H12437070   1.618   2.646   7.473  2.8621 -1.2225  0.9505
  204MOL   H12537071   1.599   2.820   7.483 -1.9204 -0.6042  2.8235
  204MOL   H12637072   1.745   2.822   7.677  0.1990 -0.1818  0.3809
  204MOL   H12737073   1.887   2.575   7.852 -1.1715 -0.5092  0.0242
  204MOL   C12837074   1.549   2.759   7.724 -0.1807 -0.0967  0.4511
  204MOL   C12937075   1.547   2.788   0.030  0.2918 -0.3342 -0.3421
  204MOL   C13037076   1.405   2.782   0.096  0.0455 -0.5675 -0.9185
  204MOL   O13137077   1.307   2.785   0.034 -0.7578  0.2885  0.1953
  204MOL   O13237078   1.416   2.769   0.227 -0.4517 -0.2489  0.2826
  204MOL   H13337079   1.492   2.667   7.709  0.2826 -0.4233  0.6729
  204MOL   H13437080   1.486   2.826   7.665 -3.7456 -2.7835  1.0627
  204MOL   H13537081   1.612   2.715   0.079 -1.8517 -3.6582 -2.2031
  204MOL   H13637082   1.328   2.759   0.260 -0.8537  0.3127 -0.6033
  204MOL   C13737083   1.612   2.928   0.055 -0.2286  0.4894  0.4728
  204MOL   C13837084   1.532   3.056   7.850 -0.1538  0.5896  0.0236
  204MOL   C13937085   1.611   3.125   7.739 -0.0709  0.2400 -0.9056
  204MOL   O14037086   1.637   3.244   7.738 -0.2761 -0.1923  0.6299
  204MOL   O14137087   1.649   3.040   7.643  1.0632  0.3258 -0.3252
  204MOL   H14237088   1.712   2.925   0.012 -0.3481 -1.7938  0.2830
  204MOL   H14337089   1.627   2.943   0.162  0.4607  1.8066  0.2018
  204MOL   H14437090   1.445   3.021   7.795 -0.4487 -0.4386  1.1250
  204MOL   H14537091   1.703   3.088   7.581  2.9200 -0.7240  0.4587
  204MOL   C14637092   1.499   3.154   0.113 -0.3801 -0.5948 -0.6932
  204MOL   C14737093   1.407   3.272   0.078 -0.6163 -0.4590  0.0424
  204MOL   C14837094   1.482   3.407   0.101  0.3872 -0.2384 -0.1209
  204MOL   O14937095   1.539   3.436   0.204  0.2237  0.8055  0.1867
  204MOL   O15037096   1.471   3.496   0.004  0.1529  0.1620 -0.4755
  204MOL   H15137097   1.596   3.173   0.159  0.5039 -3.5295 -1.2109
  204MOL   H15237098   1.444   3.104   0.192 -1.1698  1.6030  0.1770
  204MOL   H15337099   1.379   3.269   7.826  0.0039  0.2267 -0.1507
  204MOL   H15437100   1.519   3.572   0.031 -1.0754  0.5186  0.7600
  204MOL   C15537101   1.276   3.271   0.161 -0.1096  0.5815  0.2869
  204MOL   C15637102   1.187   3.140   0.149  0.1776  0.0346 -1.0040
  204MOL   C15737103   1.103   3.134   0.019  0.4022 -0.4190 -0.5598
  204MOL   O15837104   0.979   3.156   0.018 -0.3289  0.6113  0.4932
  204MOL   O15937105   1.179   3.088   7.759 -0.4581  0.3171 -0.5870
  204MOL   H16037106   1.213   3.356   0.138 -0.9558 -0.5866 -1.9080
  204MOL   H16137107   1.323   3.274   0.259  3.1336  1.7233 -1.2481
  204MOL   H16237108   1.250   3.051   0.151 -0.9215 -0.7193  0.6175
  204MOL   H16337109   1.131   3.089   7.678 -0.4912 -1.6022 -0.6021
  204MOL   C16437110   1.094   3.124   0.278  0.7733 -0.4907 -0.6744
  204MOL   C16537111   1.179   3.100   0.410  0.0837 -0.5082 -0.2045
  204MOL   C16637112   1.215   2.948   0.430 -1.1749  0.0715 -0.2275
  204MOL   O16737113   1.171   2.860   0.355  0.1519  0.4155  0.2972
  204MOL   O16837114   1.286   2.917   0.545  0.7091 -0.2538 -0.4251
  204MOL   H16937115   1.022   3.042   0.283  1.6283 -1.1785  1.0713
  204MOL   H17037116   1.045   3.221   0.286  0.6839 -0.5153 -0.9477
  204MOL   H17137117   1.278   3.145   0.415  0.2870 -0.7665 -1.8383
  204MOL   H17237118   1.304   2.829   0.576 -0.6637  0.1589  1.6607
  204MOL   C17337119   1.106   3.160   0.530 -0.1383  1.0115  0.6287
  204MOL   C17437120   0.969   3.096   0.557 -0.0168  0.3710  0.5504
  204MOL   C17537121   0.887   3.172   0.663  0.2127  0.2598  0.4933
  204MOL   O17637122   0.937   3.250   0.750  0.4459 -0.2036 -0.1683
  204MOL   O17737123   0.756   3.140   0.653  0.7636  0.2024 -0.1410
  204MOL   H17837124   1.089   3.265   0.507  3.8599  0.9913 -3.1256
  204MOL   H17937125   1.169   3.151   0.618 -1.8286 -1.6745  1.6343
  204MOL   H18037126   0.903   3.087   0.471 -0.7680  0.0030  1.1526
  204MOL   H18137127   0.712   3.195   0.715 -1.2078  1.5314 -2.6311
  204MOL   H18237128   0.984   2.996   0.599  3.2677  0.9120  0.8099
  205MOL     C137129   0.872   4.518   1.093 -0.1762 -0.2048  0.2331
  205MOL     C237130   0.916   4.664   1.034  0.6396  0.3280 -0.0237
  205MOL     C337131   1.023   4.657   0.926  0.1842 -0.2416  0.0187
  205MOL     O437132   1.083   4.553   0.903  0.4886  0.4013 -0.2034
  205MOL     O537133   1.028   4.779   0.855  0.2953  0.0253  0.0319
  205MOL     H637134   0.959   4.462   1.128 -0.4318 -0.5715  0.2923
  205MOL     H737135   0.804   4.543   1.174  0.3245  0.3743  0.4776
  205MOL     H837136   0.831   4.713   0.985  0.5497  0.0071 -0.1853
  205MOL     H937137   1.091   4.782   0.785  0.8213 -3.6245  0.3003
  205MOL    H1037138   0.825   4.461   1.013  2.0216 -1.4011 -0.2674
  205MOL    C1137139   0.953   4.753   1.155  0.3002 -0.1529 -0.3428
  205MOL    C1237140   1.089   4.740   1.228  0.4997 -0.3736  0.6034
  205MOL    C1337141   1.088   4.627   1.328  0.2519  0.2096 -0.0805
  205MOL    O1437142   1.028   4.631   1.435  0.1861 -0.0313  0.2967
  205MOL    O1537143   1.168   4.520   1.285  0.2192  0.1223 -0.2191
  205MOL    H1637144   0.870   4.761   1.225 -0.1676  2.1237 -1.1142
  205MOL    H1737145   0.950   4.841   1.090 -2.4369  0.0195 -0.0041
  205MOL    H1837146   1.164   4.727   1.150 -2.1252 -1.0638 -1.8556
  205MOL    H1937147   1.178   4.445   1.341 -1.1549 -1.0688 -1.5244
  205MOL    C2037148   1.125   4.874   1.305 -0.1603  0.1357  0.0472
  205MOL    C2137149   1.280   4.909   1.309 -0.6201 -0.1834 -0.0524
  205MOL    C2237150   1.336   4.925   1.445  0.6785 -0.5730 -0.0140
  205MOL    O2337151   1.388   4.836   1.513 -0.1504 -0.3271  0.1069
  205MOL    O2437152   1.308   5.051   1.494 -0.1624  0.4355  0.0299
  205MOL    H2537153   1.082   4.883   1.404 -0.3473  0.2074 -0.0411
  205MOL    H2637154   1.081   4.959   1.254  0.8666 -0.7589 -2.4411
  205MOL    H2737155   1.332   4.821   1.273 -1.7426 -0.9968  0.2920
  205MOL    H2837156   1.333   5.073   1.582  2.2500  0.6373 -0.6566
  205MOL    C2937157   1.312   5.034   1.222  0.1519  0.6445  0.4253
  205MOL    C3037158   1.294   5.008   1.072 -0.2820 -0.0538 -0.2829
  205MOL    C3137159   1.389   4.903   1.003 -0.1980  0.1163 -0.1259
  205MOL    O3237160   1.504   4.874   1.034  0.4611  0.2050  0.1468
  205MOL    O3337161   1.321   4.844   0.894 -0.3563  0.3151  0.0891
  205MOL    H3437162   1.415   5.069   1.234  0.2011  0.9573 -0.9271
  205MOL    H3537163   1.245   5.114   1.255 -1.9021 -0.9971  0.3250
  205MOL    H3637164   1.199   4.962   1.045 -0.2654 -1.4944  1.9915
  205MOL    H3737165   1.386   4.791   0.849 -2.3122 -1.9136 -0.2026
  205MOL    C3837166   1.298   5.141   0.992  0.8813 -0.6508  0.6611
  205MOL    C3937167   1.190   5.249   1.024  0.1180 -0.2789  0.3469
  205MOL    C4037168   1.048   5.203   1.038 -0.1155 -0.2182  1.0373
  205MOL    O4137169   0.991   5.135   0.953  0.0422 -0.1724  0.5067
  205MOL    O4237170   0.992   5.253   1.150  0.0588  1.1448 -0.1900
  205MOL    H4337171   1.293   5.125   0.884 -1.0700 -0.1606  0.6612
  205MOL    H4437172   1.392   5.187   1.020  1.6276 -1.7734  0.0559
  205MOL    H4537173   1.220   5.284   1.123  1.2401  0.9463 -0.4138
  205MOL    H4637174   0.899   5.240   1.151  0.1051  0.8765  1.1861
  205MOL    C4737175   1.177   5.368   0.934 -0.9899  0.5473 -0.3221
  205MOL    C4837176   1.289   5.475   0.960  0.0953  0.6798 -0.2697
  205MOL    C4937177   1.218   5.604   1.016  0.1596  0.0937 -0.2795
  205MOL    O5037178   1.192   5.707   0.957 -0.2457  0.2322 -0.1428
  205MOL    O5137179   1.171   5.568   1.138 -0.2644  0.6676 -0.2166
  205MOL    H5237180   1.079   5.416   0.938 -1.4331 -0.1680 -2.1662
  205MOL    H5337181   1.181   5.338   0.830 -1.1913  0.5142 -0.3205
  205MOL    H5437182   1.364   5.438   1.029 -0.1830  1.5426  0.5146
  205MOL    H5537183   1.104   5.633   1.156 -1.9013 -0.8771 -0.5353
  205MOL    C5637184   1.358   5.522   0.828 -0.3298  0.2552  0.0092
  205MOL    C5737185   1.460   5.408   0.777  0.2587  0.1380 -0.1742
  205MOL    C5837186   1.581   5.407   0.874  0.7172 -0.5806  0.4007
  205MOL    O5937187   1.645   5.503   0.897  0.6182 -0.4546  0.2387
  205MOL    O6037188   1.614   5.281   0.910  0.2290  0.1279 -0.0671
  205MOL    H6137189   1.411   5.616   0.838 -1.0459  0.4966  1.8774
  205MOL    H6237190   1.273   5.537   0.762 -2.0997 -0.3900  2.0629
  205MOL    H6337191   1.406   5.314   0.772  0.5320 -0.1925  2.6345
  205MOL    H6437192   1.668   5.266   0.986 -1.3417 -0.7201  0.9114
  205MOL    C6537193   1.522   5.422   0.635  0.3389 -0.1398  0.2870
  205MOL    C6637194   1.550   5.286   0.569  0.2705 -0.0717  0.0754
  205MOL    C6737195   1.675   5.284   0.481  0.6047  0.0525  1.0978
  205MOL    O6837196   1.743   5.385   0.455 -0.2750  0.0481 -0.0042
  205MOL    O6937197   1.700   5.158   0.439 -0.0379 -0.3864 -0.3306
  205MOL    H7037198   1.616   5.477   0.638 -0.5438  1.4641 -0.6047
  205MOL    H7137199   1.462   5.482   0.566  0.7782 -0.7121 -0.6101
  205MOL    H7237200   1.580   5.222   0.652 -1.6610 -0.2274  0.6732
  205MOL    H7337201   1.753   5.155   0.361  1.0620  1.6766  0.2799
  205MOL    C7437202   1.431   5.217   0.495 -0.3614  0.0244  0.2103
  205MOL    C7537203   1.374   5.093   0.564 -0.1278  0.6260 -0.9919
  205MOL    C7637204   1.484   4.982   0.593 -0.0837 -0.3531  0.1597
  205MOL    O7737205   1.531   4.911   0.509 -0.0411 -0.4746 -0.0176
  205MOL    O7837206   1.529   4.988   0.717  0.2482 -0.1667  0.3976
  205MOL    H7937207   1.465   5.203   0.393  3.0439 -2.8214  1.6240
  205MOL    H8037208   1.357   5.297   0.487  2.1594  2.3453 -0.6560
  205MOL    H8137209   1.334   5.110   0.664  0.2192 -0.0074 -0.7384
  205MOL    H8237210   1.586   4.913   0.725  2.4381  1.7722  4.0123
  205MOL    C8337211   1.256   5.023   0.485  0.3449 -0.3469 -0.2277
  205MOL    C8437212   1.123   5.104   0.467 -0.0515 -0.2978 -0.4051
  205MOL    C8537213   1.070   5.156   0.600  0.1084 -0.2633 -0.1894
  205MOL    O8637214   1.041   5.278   0.615 -0.3928 -0.2246 -0.1288
  205MOL    O8737215   1.050   5.059   0.691 -0.0935  0.3203 -0.1136
  205MOL    H8837216   1.245   4.919   0.518  0.8027  0.1485  1.5182
  205MOL    H8937217   1.298   4.998   0.387 -1.6676 -1.0975 -0.9214
  205MOL    H9037218   1.150   5.197   0.417 -0.1202 -0.1724 -0.2081
  205MOL    H9137219   1.028   5.093   0.776 -0.4004 -2.2605  0.8802
  205MOL    C9237220   1.017   5.030   0.378 -0.1329 -0.4222  0.0081
  205MOL    C9337221   0.905   5.128   0.340 -0.1273 -1.0308 -0.1682
  205MOL    C9437222   0.793   5.053   0.264  0.0314 -0.1242 -0.6885
  205MOL    O9537223   0.678   5.088   0.271 -0.4064 -0.0737  0.3980
  205MOL    O9637224   0.835   4.934   0.220  0.1814 -0.1906 -0.3576
  205MOL    H9737225   0.977   4.942   0.428  0.7878  0.2218  1.8916
  205MOL    H9837226   1.068   4.987   0.292 -1.4914  2.1973 -2.1986
  205MOL    H9937227   0.862   5.154   0.436  1.7088 -0.2856  0.4769
  205MOL   H10037228   0.763   4.896   0.171  0.0781  0.0384 -0.3832
  205MOL   C10137229   0.947   5.261   0.264 -0.2442 -0.1362 -0.1541
  205MOL   C10237230   1.059   5.236   0.150  0.1826  0.0968 -1.4058
  205MOL   C10337231   1.133   5.372   0.124 -0.5615 -0.0563 -0.2041
  205MOL   O10437232   1.177   5.403   0.009 -0.3003  0.1456  0.4000
  205MOL   O10537233   1.141   5.464   0.226  0.0318  0.2056 -0.4310
  205MOL   H10637234   0.979   5.331   0.341 -0.6046 -2.9661  2.6784
  205MOL   H10737235   0.862   5.313   0.220 -1.8869 -2.3513  0.2942
  205MOL   H10837236   1.138   5.180   0.199 -0.7970  0.9573  1.2733
  205MOL   H10937237   1.182   5.543   0.194 -0.5481 -0.1427 -2.0774
  205MOL   C11037238   1.000   5.181   0.017 -0.3273  0.0440  0.2313
  205MOL   C11137239   1.064   5.051   7.810  0.2713  0.6155 -0.6219
  205MOL   C11237240   1.190   5.095   7.734 -0.5805 -0.5343  0.5565
  205MOL   O11337241   1.182   5.150   7.627  0.2359  0.1476 -0.0901
  205MOL   O11437242   1.307   5.092   7.805  0.3526 -0.4326 -0.2154
  205MOL   H11537243   0.993   5.260   7.795  1.1330  0.7757  0.8514
  205MOL   H11637244   0.893   5.171   0.040 -0.6914  1.1904 -0.9438
  205MOL   H11737245   1.079   4.993   0.048 -1.9329 -1.7373 -1.6777
  205MOL   H11837246   1.316   5.039   0.030  2.2528  3.2210  2.2076
  205MOL   C11937247   0.968   4.981   7.704  0.1727  0.7154  0.4049
  205MOL   C12037248   0.994   4.834   7.654  0.0074  0.1664  0.1221
  205MOL   C12137249   1.038   4.735   7.764 -0.2684 -0.0125  0.2370
  205MOL   O12237250   1.006   4.743   0.026 -0.1462  0.2169 -0.0098
  205MOL   O12337251   1.105   4.625   7.724 -0.4588 -0.9108  0.6350
  205MOL   H12437252   0.944   5.048   7.622 -1.8783  0.5592  0.8525
  205MOL   H12537253   0.876   4.975   7.762  0.8690 -0.1807  1.4506
  205MOL   H12637254   0.898   4.795   7.622  0.2737 -0.1917 -0.2560
  205MOL   H12737255   1.107   4.556   7.788  2.3966 -0.0954  1.5071
  205MOL   C12837256   1.085   4.820   7.525 -0.0095  0.4243 -0.1594
  205MOL   C12937257   1.049   4.909   7.404  0.9176  0.2619 -0.0848
  205MOL   C13037258   0.895   4.897   7.367  0.0568  0.0501  0.2944
  205MOL   O13137259   0.829   4.997   7.343  0.8669 -0.0728  0.1549
  205MOL   O13237260   0.855   4.766   7.352 -0.0558 -0.4154 -0.4721
  205MOL   H13337261   1.085   4.716   7.494 -3.7955 -0.7345  3.3519
  205MOL   H13437262   1.188   4.848   7.551 -0.5294 -0.6226  3.2608
  205MOL   H13537263   1.059   5.016   7.425  1.4344  0.0725  0.6383
  205MOL   H13637264   0.761   4.757   7.347 -0.3285  0.6841  2.3177
  205MOL   C13737265   1.146   4.870   7.283  0.0616 -0.4062  0.0541
  205MOL   C13837266   1.165   4.992   7.188  0.0322  0.1154  0.1512
  205MOL   C13937267   1.086   4.960   7.061 -0.4768 -1.1803  0.3973
  205MOL   O14037268   1.138   4.925   6.952 -0.3674  0.0256 -0.2707
  205MOL   O14137269   0.950   4.967   7.078  0.5152 -0.3762 -0.5334
  205MOL   H14237270   1.099   4.780   7.243 -2.0440  0.6876  0.0206
  205MOL   H14337271   1.245   4.839   7.318  0.9893 -0.7582 -2.7692
  205MOL   H14437272   1.132   5.090   7.223 -0.4531  1.4652 -3.8849
  205MOL   H14537273   0.908   4.928   7.003  1.4330 -0.7786 -0.8526
  205MOL   C14637274   1.317   5.013   7.159  0.8719  0.1977  0.3310
  205MOL   C14737275   1.365   5.117   7.054  0.1051 -0.6766 -0.3642
  205MOL   C14837276   1.471   5.049   6.959  0.0828  0.3938 -0.3296
  205MOL   O14937277   1.478   4.925   6.945 -0.4977 -0.2194  0.4150
  205MOL   O15037278   1.565   5.128   6.916 -0.0967  0.0299  0.1462
  205MOL   H15137279   1.349   4.911   7.140 -1.3531 -0.4239 -0.2539
  205MOL   H15237280   1.371   5.044   7.248  2.2476  0.1048 -0.4589
  205MOL   H15337281   1.288   5.149   6.984 -0.2407  2.1415  1.2386
  205MOL   H15437282   1.635   5.077   6.877 -1.6399 -1.4103 -0.8022
  205MOL   C15537283   1.412   5.246   7.130  1.1772  0.1492 -0.0750
  205MOL   C15637284   1.305   5.336   7.190  0.0088 -0.5350 -0.7448
  205MOL   C15737285   1.212   5.398   7.087 -0.3331  0.1009  0.0046
  205MOL   O15837286   1.233   5.409   6.965 -0.0162  0.0437 -0.0912
  205MOL   O15937287   1.097   5.451   7.137 -0.2506  0.4420  0.3691
  205MOL   H16037288   1.470   5.309   7.062  0.4904  0.7082 -0.1487
  205MOL   H16137289   1.491   5.219   7.200  3.5470  1.9830 -1.9544
  205MOL   H16237290   1.240   5.281   7.258 -1.0991  0.8513 -0.6456
  205MOL   H16337291   1.032   5.478   7.074  1.1716  2.3354 -0.3280
  205MOL   C16437292   1.357   5.448   7.285 -0.0325 -0.0391  0.6632
  205MOL   C16537293   1.420   5.585   7.239  0.6766 -0.5023  0.4623
  205MOL   C16637294   1.561   5.547   7.191 -0.4372  0.1176 -0.0630
  205MOL   O16737295   1.647   5.504   7.263 -0.6659  0.8783 -0.2908
  205MOL   O16837296   1.558   5.547   7.054 -0.5891  0.6679 -0.5935
  205MOL   H16937297   1.401   5.411   7.378  0.7082  0.1839  0.4076
  205MOL   H17037298   1.262   5.478   7.329  0.6546  0.0602  2.1296
  205MOL   H17137299   1.365   5.636   7.160  0.1541 -0.6378  0.7348
  205MOL   H17237300   1.629   5.491   7.026 -0.9570 -0.6543  1.0578
  205MOL   C17337301   1.427   5.699   7.350 -0.1058 -0.2422 -0.1166
  205MOL   C17437302   1.303   5.790   7.372  0.6441 -0.0637 -0.2447
  205MOL   C17537303   1.295   5.922   7.287 -0.0335  0.2378 -0.4674
  205MOL   O17637304   1.359   5.932   7.188  0.2949 -0.4905 -0.4124
  205MOL   O17737305   1.235   6.023   7.344 -0.5464 -0.5150  0.2660
  205MOL   H17837306   1.516   5.759   7.331 -0.7905  0.6426 -0.5461
  205MOL   H17937307   1.466   5.655   7.442  2.5314  1.4539 -0.3518
  205MOL   H18037308   1.215   5.729   7.351  0.7945 -0.2893 -0.2192
  205MOL   H18137309   1.250   6.100   7.291  0.5267 -0.2460  0.9377
  205MOL   H18237310   1.296   5.818   7.478  0.2898 -1.9279  0.2371
  206MOL     C137311   0.944   3.371   1.888 -0.8876 -0.0443 -0.3298
  206MOL     C237312   0.793   3.348   1.900  0.2824 -0.6207 -1.3230
  206MOL     C337313   0.784   3.235   2.007 -0.0936 -0.4944  0.1175
  206MOL     O437314   0.841   3.129   2.011 -1.0936  0.6523 -0.2835
  206MOL     O537315   0.696   3.270   2.102 -0.5651 -0.0779  0.4616
  206MOL     H637316   0.994   3.428   1.966 -0.3217 -0.9394 -0.0356
  206MOL     H737317   1.005   3.282   1.876  1.8852  1.7592 -0.1131
  206MOL     H837318   0.755   3.441   1.942  0.2405 -2.1334  2.2287
  206MOL     H937319   0.675   3.203   2.165 -0.9987  0.3365  0.7712
  206MOL    H1037320   0.951   3.440   1.804  1.1354  1.1686  0.7895
  206MOL    C1137321   0.721   3.307   1.765  0.3961 -0.8729 -0.0612
  206MOL    C1237322   0.569   3.340   1.783  0.4298  0.1230 -0.9849
  206MOL    C1337323   0.482   3.244   1.869  0.5847 -0.0419  0.2412
  206MOL    O1437324   0.468   3.125   1.845 -0.1407 -0.2694 -0.0085
  206MOL    O1537325   0.419   3.312   1.967  0.3261 -0.3591 -0.0105
  206MOL    H1637326   0.737   3.203   1.735  1.5107 -0.9958  0.9490
  206MOL    H1737327   0.751   3.372   1.683  0.6299  2.3935  2.5174
  206MOL    H1837328   0.558   3.431   1.843  2.7072 -1.3224  1.7607
  206MOL    H1937329   0.350   3.262   2.007 -2.2950 -0.5460 -4.4438
  206MOL    C2037330   0.505   3.373   1.642  0.5839 -0.2218 -0.4275
  206MOL    C2137331   0.352   3.414   1.642  0.3793 -0.5540  0.4297
  206MOL    C2237332   0.281   3.385   1.512 -0.0526 -0.2745  0.6300
  206MOL    O2337333   0.295   3.447   1.407 -0.0846  0.4596 -0.2103
  206MOL    O2437334   0.228   3.262   1.515 -0.1613 -0.4114 -0.0358
  206MOL    H2537335   0.508   3.281   1.583 -1.7420 -1.2015  0.9148
  206MOL    H2637336   0.561   3.450   1.589 -0.1589 -0.0931 -1.0308
  206MOL    H2737337   0.296   3.366   1.722  1.1662 -1.5184  0.4146
  206MOL    H2837338   0.191   3.246   1.430 -1.0772  0.3942  0.2048
  206MOL    C2937339   0.326   3.559   1.696  0.4353 -0.5021  0.0009
  206MOL    C3037340   0.189   3.621   1.674 -0.8458 -0.9390 -0.3093
  206MOL    C3137341   0.072   3.535   1.714 -0.4383  0.0194 -0.0264
  206MOL    O3237342   0.053   3.502   1.835  0.3749  0.4027  0.0554
  206MOL    O3337343   0.000   3.500   1.610  0.2331  0.1947  0.0949
  206MOL    H3437344   0.400   3.628   1.654  0.7629 -1.1482 -0.4869
  206MOL    H3537345   0.345   3.567   1.803 -4.4569 -0.7583  0.9978
  206MOL    H3637346   0.197   3.702   1.746 -0.1283 -2.4535  1.3444
  206MOL    H3737347   7.780   3.448   1.638  0.4300  0.1495  0.5289
  206MOL    C3837348   0.163   3.702   1.544 -0.6030  0.2334  0.1642
  206MOL    C3937349   0.135   3.853   1.558 -0.1858 -0.5494  0.3591
  206MOL    C4037350   0.021   3.895   1.653  0.2700  0.2028  0.2232
  206MOL    O4137351   7.852   4.011   1.683  0.3295  0.3621  0.6066
  206MOL    O4237352   7.789   3.787   1.672  0.1766 -0.0569 -0.4369
  206MOL    H4337353   0.101   3.650   1.470 -0.0977 -1.4110  0.8771
  206MOL    H4437354   0.257   3.694   1.490 -0.9699 -0.9969 -0.3097
  206MOL    H4537355   0.225   3.894   1.604  1.0996 -0.4057 -2.1598
  206MOL    H4637356   7.714   3.822   1.718  0.9971  0.5862  0.4197
  206MOL    C4737357   0.137   3.934   1.425  0.4223  0.2106  0.5125
  206MOL    C4837358   0.247   4.035   1.407 -1.0143  0.5356 -0.4508
  206MOL    C4937359   0.387   3.970   1.383  0.0469  0.0436  0.2560
  206MOL    O5037360   0.420   3.864   1.434  0.1325 -0.0420 -0.2600
  206MOL    O5137361   0.456   4.028   1.281 -0.1433 -0.1887  0.0828
  206MOL    H5237362   0.042   3.985   1.408 -0.1576 -1.4214 -1.2761
  206MOL    H5337363   0.144   3.870   1.337  0.1879  0.3042  0.4263
  206MOL    H5437364   0.235   4.089   1.313  0.9393  1.5141 -0.1631
  206MOL    H5537365   0.542   3.988   1.277 -0.0980 -0.1165  0.2851
  206MOL    C5637366   0.247   4.143   1.518 -0.2034  0.1670  0.0744
  206MOL    C5737367   0.336   4.267   1.513  0.5819  0.1325 -0.1402
  206MOL    C5837368   0.320   4.348   1.640  0.7192  0.3771 -0.1566
  206MOL    O5937369   0.228   4.426   1.656  0.0067  0.1475  0.6790
  206MOL    O6037370   0.398   4.311   1.745  0.4555  0.4835 -0.1708
  206MOL    H6137371   0.282   4.095   1.610 -0.5488 -1.1863 -0.4858
  206MOL    H6237372   0.143   4.167   1.540  0.1618  0.4614  1.5004
  206MOL    H6337373   0.439   4.230   1.519  0.5263  0.0484  0.2518
  206MOL    H6437374   0.372   4.359   1.821  3.1869  0.1461  1.0311
  206MOL    C6537375   0.306   4.352   1.388  0.7035  0.4280  0.3596
  206MOL    C6637376   0.394   4.481   1.370  0.0754 -0.5540  0.1299
  206MOL    C6737377   0.325   4.575   1.262 -0.5458 -0.6906 -0.2950
  206MOL    O6837378   0.232   4.533   1.186 -0.1594 -0.8084  0.0904
  206MOL    O6937379   0.370   4.700   1.259  0.2425 -0.6658  0.1237
  206MOL    H7037380   0.202   4.383   1.391  0.9072  1.4803 -2.0539
  206MOL    H7137381   0.310   4.287   1.300 -2.3921 -1.2139  1.3483
  206MOL    H7237382   0.388   4.548   1.456  1.4253  0.3224 -0.4568
  206MOL    H7337383   0.316   4.758   1.208  0.8541 -0.0055  0.2272
  206MOL    C7437384   0.545   4.450   1.340 -0.1617 -0.4323  0.0869
  206MOL    C7537385   0.636   4.455   1.468  0.5000 -0.0909  0.0675
  206MOL    C7637386   0.676   4.599   1.508  0.0766  0.0616 -0.1383
  206MOL    O7737387   0.686   4.697   1.430 -0.7912  0.6353  0.2297
  206MOL    O7837388   0.708   4.611   1.640 -0.7927 -0.7022 -0.1561
  206MOL    H7937389   0.580   4.514   1.260  0.6330 -1.1313 -0.1425
  206MOL    H8037390   0.551   4.352   1.291 -1.1220 -0.2940 -0.3212
  206MOL    H8137391   0.592   4.411   1.557  1.4640 -0.9157  0.1473
  206MOL    H8237392   0.755   4.692   1.657  1.4488 -1.8216 -0.9454
  206MOL    C8337393   0.758   4.366   1.436 -0.2207 -0.9414 -0.3478
  206MOL    C8437394   0.743   4.215   1.442 -0.5568 -0.8214 -0.1134
  206MOL    C8537395   0.702   4.147   1.575  0.3813  0.3674  0.4634
  206MOL    O8637396   0.716   4.200   1.681 -0.1650 -0.0490  0.1859
  206MOL    O8737397   0.659   4.021   1.555  0.2136  0.3846  0.3943
  206MOL    H8837398   0.842   4.384   1.503 -0.1713 -1.2584 -0.3274
  206MOL    H8937399   0.792   4.401   1.338  0.2232  0.7351  0.3880
  206MOL    H9037400   0.653   4.186   1.389 -1.0486  1.1992 -0.3979
  206MOL    H9137401   0.638   3.976   1.636 -4.2053  0.8406 -0.3444
  206MOL    C9237402   0.871   4.149   1.376  0.0002  1.0903 -0.0576
  206MOL    C9337403   0.867   4.133   1.217  0.4402  0.5269  0.2503
  206MOL    C9437404   0.750   4.064   1.173 -0.2909  0.0500  0.2538
  206MOL    O9537405   0.705   3.970   1.232  0.2707 -0.2987  0.5303
  206MOL    O9637406   0.688   4.127   1.075  0.0252  0.1949  0.1546
  206MOL    H9737407   0.891   4.048   1.413 -0.5687  0.8231 -0.4697
  206MOL    H9837408   0.963   4.195   1.411 -0.7836  1.6235  1.3459
  206MOL    H9937409   0.867   4.234   1.177  0.3670  0.7901  0.9083
  206MOL   H10037410   0.602   4.091   1.056  0.8074 -0.9639 -1.2945
  206MOL   C10137411   1.006   4.078   1.158  0.0188 -0.7472 -0.7957
  206MOL   C10237412   1.071   3.948   1.206 -0.2082  0.5150 -0.2710
  206MOL   C10337413   1.207   3.918   1.147  0.0355  0.0808 -0.6669
  206MOL   O10437414   1.231   3.950   1.033  0.1657  0.0581  0.3986
  206MOL   O10537415   1.292   3.857   1.233 -0.4534 -0.0931 -0.0381
  206MOL   H10637416   1.074   4.162   1.176 -0.6613 -0.0015 -1.6656
  206MOL   H10737417   0.987   4.068   1.052  1.8653  2.7541 -1.5347
  206MOL   H10837418   1.084   3.958   1.314 -1.3565  0.8320 -0.1526
  206MOL   H10937419   1.353   3.801   1.188  0.9788  0.7506  0.7989
  206MOL   C11037420   0.985   3.824   1.179 -0.7384 -0.0801 -0.7323
  206MOL   C11137421   0.948   3.739   1.303  0.6907 -0.1679  0.1217
  206MOL   C11237422   1.066   3.679   1.385 -0.2083  0.3543 -0.5145
  206MOL   O11337423   1.077   3.691   1.510 -0.1838 -0.3509 -0.2279
  206MOL   O11437424   1.158   3.608   1.307  0.1303 -0.3646 -0.4254
  206MOL   H11537425   1.034   3.757   1.108  2.4687  2.9265 -1.5063
  206MOL   H11637426   0.893   3.832   1.122 -1.4030 -3.3006 -0.2108
  206MOL   H11737427   0.904   3.814   1.370  0.2144  0.2277 -0.6329
  206MOL   H11837428   1.232   3.572   1.353  1.8394  0.8681 -2.1234
  206MOL   C11937429   0.825   3.640   1.262  0.5572 -0.0258  0.1076
  206MOL   C12037430   0.695   3.644   1.357 -0.2498 -0.0268 -0.6095
  206MOL   C12137431   0.723   3.650   1.504  0.3226  0.5443  0.4438
  206MOL   O12237432   0.821   3.583   1.553  0.2091 -0.3275  0.5763
  206MOL   O12337433   0.623   3.713   1.576  0.2358  0.1219 -0.2510
  206MOL   H12437434   0.873   3.543   1.250  2.7376  1.0060  0.2259
  206MOL   H12537435   0.793   3.672   1.163 -0.3315 -0.0637  0.3806
  206MOL   H12637436   0.656   3.745   1.345  0.6464  0.7820  2.7514
  206MOL   H12737437   0.547   3.756   1.539  0.9002  1.1988 -0.3963
  206MOL   C12837438   0.586   3.543   1.319 -0.0065 -0.4200  0.2260
  206MOL   C12937439   0.535   3.549   1.168 -1.5596  0.5754  0.4713
  206MOL   C13037440   0.437   3.669   1.151  0.5230 -0.7494 -0.6409
  206MOL   O13137441   0.470   3.764   1.079 -0.4838 -0.5574 -0.5533
  206MOL   O13237442   0.324   3.663   1.226  0.3346  0.1538 -0.0159
  206MOL   H13337443   0.505   3.572   1.385  0.3132  0.8918  0.0495
  206MOL   H13437444   0.622   3.443   1.345  1.3452  0.2111  0.8355
  206MOL   H13537445   0.615   3.567   1.096 -0.3871 -1.4599  1.2073
  206MOL   H13637446   0.339   3.590   1.284 -1.8865  1.2249  2.0505
  206MOL   C13737447   0.468   3.416   1.120  0.2990 -0.1562 -0.4893
  206MOL   C13837448   0.555   3.284   1.118 -0.1748  0.5889  0.4878
  206MOL   C13937449   0.655   3.289   0.996  0.1796 -0.2107 -0.0765
  206MOL   O14037450   0.622   3.283   0.878  0.5919  0.1317  0.3400
  206MOL   O14137451   0.783   3.314   1.034  0.1854 -0.3930  0.4233
  206MOL   H14237452   0.436   3.429   1.017 -0.9019 -1.5655 -0.3105
  206MOL   H14337453   0.374   3.396   1.172 -0.1465  0.4782 -1.0447
  206MOL   H14437454   0.625   3.276   1.202  0.6719  1.7457 -0.0981
  206MOL   H14537455   0.833   3.344   0.960  0.3601  0.3443  0.8395
  206MOL   C14637456   0.478   3.146   1.111  1.1624  0.7176  0.3710
  206MOL   C14737457   0.422   3.080   1.241  0.2492  0.3630  0.1399
  206MOL   C14837458   0.541   3.048   1.334 -0.3418  0.3450  0.1427
  206MOL   O14937459   0.646   2.989   1.305 -0.1645 -0.6506  0.3655
  206MOL   O15037460   0.509   3.068   1.460 -0.1685 -0.4198 -0.6256
  206MOL   H15137461   0.540   3.074   1.059  0.1877  0.3777 -0.3294
  206MOL   H15237462   0.396   3.173   1.044  1.8818  0.5213 -0.6033
  206MOL   H15337463   0.356   3.153   1.288 -1.5240  0.0777 -1.8287
  206MOL   H15437464   0.580   3.044   1.517 -0.8638  1.6066  1.1994
  206MOL   C15537465   0.323   2.970   1.193  0.0860 -0.2752  0.5606
  206MOL   C15637466   0.288   2.836   1.273 -0.1773 -0.2344 -0.6610
  206MOL   C15737467   0.226   2.871   1.410 -0.2203 -0.1097  1.4057
  206MOL   O15837468   0.253   2.811   1.513 -0.1066 -0.1272  0.3173
  206MOL   O15937469   0.133   2.966   1.399 -0.7960 -0.2980  0.3065
  206MOL   H16037470   0.356   2.939   1.094  1.9659 -1.4052  1.5112
  206MOL   H16137471   0.233   3.018   1.155  1.1299  2.1352  1.0544
  206MOL   H16237472   0.202   2.789   1.225 -1.4386  0.7466  0.6092
  206MOL   H16337473   0.091   2.971   1.483  0.7524  3.0037  0.9684
  206MOL   C16437474   0.402   2.730   1.282 -0.1757 -0.2470 -0.1298
  206MOL   C16537475   0.371   2.587   1.332 -0.3137 -0.2797  0.2055
  206MOL   C16637476   0.506   2.514   1.366  0.0074  0.4169 -0.7757
  206MOL   O16737477   0.522   2.459   1.476  0.1517 -0.6018 -0.1853
  206MOL   O16837478   0.602   2.539   1.283 -0.1295 -0.0152  0.7242
  206MOL   H16937479   0.466   2.774   1.359  0.3685  0.3265 -0.9050
  206MOL   H17037480   0.449   2.730   1.184 -0.1947  0.9350 -0.1389
  206MOL   H17137481   0.306   2.601   1.418  1.4861 -1.5532  1.8349
  206MOL   H17237482   0.690   2.510   1.303 -0.1602  0.3563  1.4316
  206MOL   C17337483   0.296   2.515   1.220  0.5356 -0.8301  0.4291
  206MOL   C17437484   0.221   2.388   1.265  0.6719 -0.0601 -0.1193
  206MOL   C17537485   0.133   2.333   1.153 -0.0113 -0.8209  0.6234
  206MOL   O17637486   0.085   2.402   1.057  0.3881  0.4317  0.1833
  206MOL   O17737487   0.096   2.208   1.177  0.2044  0.9680 -0.1626
  206MOL   H17837488   0.361   2.481   1.139  1.0043 -0.2061  0.5411
  206MOL   H17937489   0.221   2.580   1.175  1.2408 -0.9287 -0.9195
  206MOL   H18037490   0.291   2.309   1.294 -0.2419 -0.2351  1.6634
  206MOL   H18137491   0.019   2.176   1.133  0.2811 -1.1000  1.1126
  206MOL   H18237492   0.164   2.407   1.356 -1.0113 -0.4048 -1.0840
  207MOL     C137493   3.762   2.818   2.228  0.5866  0.0508  0.0656
  207MOL     C237494   3.691   2.858   2.361  0.9660 -0.4550  0.6346
  207MOL     C337495   3.803   2.909   2.459 -0.0105  0.1663 -0.3890
  207MOL     O437496   3.920   2.879   2.450 -0.4762 -0.1352 -0.6228
  207MOL     O537497   3.744   2.988   2.559 -0.0729  0.1314 -0.2248
  207MOL     H637498   3.694   2.794   2.147 -0.1009  1.2746  0.2657
  207MOL     H737499   3.813   2.905   2.186  0.5480  0.1277  0.1790
  207MOL     H837500   3.621   2.939   2.342  2.1537  0.9681  2.1955
  207MOL     H937501   3.790   3.026   2.632  1.1779 -0.3897 -0.7331
  207MOL    H1037502   3.841   2.742   2.234  0.2819 -0.2341  0.4730
  207MOL    C1137503   3.625   2.737   2.421 -0.4866  0.5200  0.4263
  207MOL    C1237504   3.471   2.727   2.406  0.1598  0.7561  0.2697
  207MOL    C1337505   3.424   2.729   2.257 -0.0269 -0.3127  0.1481
  207MOL    O1437506   3.325   2.785   2.218  0.1417 -0.0961 -0.4100
  207MOL    O1537507   3.501   2.662   2.173  0.1386 -0.0685  0.1340
  207MOL    H1637508   3.647   2.727   2.528 -0.2296 -0.3509  0.2955
  207MOL    H1737509   3.667   2.649   2.371 -3.4132 -0.1032 -1.0010
  207MOL    H1837510   3.443   2.629   2.444  3.0167 -0.5057 -0.7801
  207MOL    H1937511   3.459   2.677   2.090 -0.6536 -0.6979  0.4143
  207MOL    C2037512   3.403   2.830   2.496  0.2287 -0.1843 -0.2793
  207MOL    C2137513   3.252   2.803   2.537 -0.5462 -0.4213  0.3397
  207MOL    C2237514   3.207   2.942   2.608  0.8843  0.7489 -0.1454
  207MOL    O2337515   3.187   2.958   2.729  0.8817 -0.1949  0.0867
  207MOL    O2437516   3.182   3.033   2.504 -0.0445  0.5026 -0.1470
  207MOL    H2537517   3.423   2.928   2.452  0.7487  0.0095  0.3915
  207MOL    H2637518   3.460   2.834   2.589  0.0201  1.4603 -0.2144
  207MOL    H2737519   3.192   2.785   2.448 -0.0409 -0.4144 -0.0048
  207MOL    H2837520   3.155   3.116   2.539 -0.8433  0.6740 -1.1637
  207MOL    C2937521   3.245   2.682   2.639 -0.0178 -0.0483  0.3227
  207MOL    C3037522   3.098   2.627   2.648  0.3711  0.2355 -0.3619
  207MOL    C3137523   3.054   2.621   2.798  0.8599  0.5331  0.4532
  207MOL    O3237524   3.087   2.530   2.869 -0.2267  0.0636  0.4710
  207MOL    O3337525   2.987   2.729   2.841 -0.6928 -0.1511  0.2036
  207MOL    H3437526   3.295   2.705   2.733 -0.6141  0.5551  0.5003
  207MOL    H3537527   3.313   2.610   2.594  1.0312  0.4358  1.1225
  207MOL    H3637528   3.029   2.693   2.596  0.3137  1.3939  1.1660
  207MOL    H3737529   2.992   2.732   2.935  0.7366  0.4824  0.1179
  207MOL    C3837530   3.073   2.502   2.570  0.4066 -0.0026 -0.2386
  207MOL    C3937531   2.931   2.446   2.536 -0.1651  0.0257  0.3264
  207MOL    C4037532   2.920   2.319   2.615  0.1223 -0.0213  0.3198
  207MOL    O4137533   2.898   2.211   2.563 -0.0042  0.0995 -0.4832
  207MOL    O4237534   2.942   2.334   2.746  0.1646  0.3755 -0.0108
  207MOL    H4337535   3.148   2.430   2.604  1.8962  0.7485 -1.8423
  207MOL    H4437536   3.121   2.520   2.473 -0.3763  2.8326 -0.1497
  207MOL    H4537537   2.857   2.511   2.582  0.7312  0.2879  1.4322
  207MOL    H4637538   2.960   2.247   2.777  4.1380 -0.0560 -3.1436
  207MOL    C4737539   2.906   2.429   2.383  0.2458 -0.1265  0.2957
  207MOL    C4837540   2.897   2.561   2.303 -0.2564 -0.4780  0.1867
  207MOL    C4937541   2.790   2.661   2.356  0.8210  0.4280  0.7374
  207MOL    O5037542   2.821   2.747   2.440  0.0511  0.0179  0.2546
  207MOL    O5137543   2.674   2.645   2.294  0.1035  0.0174  0.4876
  207MOL    H5237544   2.815   2.371   2.371 -0.1966 -0.1918  3.5369
  207MOL    H5337545   2.994   2.375   2.348 -0.0749  0.6985 -1.8596
  207MOL    H5437546   2.990   2.615   2.321 -1.3637  2.7122 -3.0260
  207MOL    H5537547   2.608   2.704   2.327 -0.4756 -1.2050  1.5452
  207MOL    C5637548   2.879   2.530   2.153 -0.1559  0.0486 -0.0196
  207MOL    C5737549   2.889   2.655   2.063 -0.6208  0.2209 -0.3925
  207MOL    C5837550   2.827   2.621   1.933 -0.5352 -0.2439 -0.6401
  207MOL    O5937551   2.763   2.703   1.875  0.0379 -0.7550 -0.1905
  207MOL    O6037552   2.859   2.495   1.886  0.4410 -0.4818 -0.4548
  207MOL    H6137553   2.786   2.476   2.140 -1.0716  2.1726 -2.6776
  207MOL    H6237554   2.959   2.461   2.125  0.1678  0.8232 -1.0285
  207MOL    H6337555   2.816   2.727   2.098  0.5846  0.2234  2.2660
  207MOL    H6437556   2.796   2.477   1.819 -0.3422  2.3922 -0.5375
  207MOL    C6537557   3.025   2.724   2.054 -0.4418 -0.9947  0.1657
  207MOL    C6637558   3.024   2.871   2.020 -0.1115 -0.6632 -0.1145
  207MOL    C6737559   3.145   2.908   1.934  0.4328 -0.7416  0.2393
  207MOL    O6837560   3.216   2.823   1.889 -0.0366  0.2135  0.0574
  207MOL    O6937561   3.157   3.046   1.915 -0.5732 -0.1976 -0.1792
  207MOL    H7037562   3.090   2.668   1.988 -0.6234 -0.8848 -0.1098
  207MOL    H7137563   3.086   2.716   2.144  1.0419  0.8574 -0.6449
  207MOL    H7237564   2.940   2.890   1.954  0.6978  2.2812 -0.3906
  207MOL    H7337565   3.229   3.065   1.857 -1.6737  0.8666 -1.2101
  207MOL    C7437566   3.004   2.944   2.148  0.0495 -0.7542 -0.6199
  207MOL    C7537567   2.922   3.079   2.137  0.9658  0.6629 -0.3359
  207MOL    C7637568   3.002   3.206   2.185  0.0969 -0.2590  0.5647
  207MOL    O7737569   3.058   3.281   2.107  0.2680  0.1872 -0.0210
  207MOL    O7837570   3.002   3.223   2.320  0.6810  0.2719  0.0519
  207MOL    H7937571   3.092   2.961   2.210 -0.5983 -0.2329  0.1830
  207MOL    H8037572   2.947   2.881   2.217 -1.7108  1.6144  0.1670
  207MOL    H8137573   2.900   3.104   2.033  3.2647  1.4353 -0.6443
  207MOL    H8237574   3.056   3.292   2.356  0.0853  0.8734 -0.1820
  207MOL    C8337575   2.783   3.071   2.202  0.0802  0.0945  0.2264
  207MOL    C8437576   2.684   3.182   2.170  0.4215  0.4913  0.8291
  207MOL    C8537577   2.578   3.210   2.280  0.3808  0.5059 -0.1843
  207MOL    O8637578   2.565   3.133   2.369 -0.2247  0.4682 -0.2255
  207MOL    O8737579   2.523   3.330   2.280 -0.2644 -0.1968 -0.0031
  207MOL    H8837580   2.787   3.051   2.309 -0.0793  1.6863  0.5395
  207MOL    H8937581   2.750   2.972   2.170  0.5130 -0.9787  2.9896
  207MOL    H9037582   2.730   3.280   2.178 -1.1433  1.3617 -0.4834
  207MOL    H9137583   2.491   3.354   2.366 -0.6013 -1.5510  0.2686
  207MOL    C9237584   2.624   3.164   2.032  0.6370  0.3851  0.4286
  207MOL    C9337585   2.510   3.258   1.970  0.6094  0.2952  0.2899
  207MOL    C9437586   2.556   3.403   1.972 -0.1822  0.9343  0.4982
  207MOL    O9537587   2.675   3.435   1.972  0.2354  0.0413  0.5141
  207MOL    O9637588   2.456   3.490   1.945 -0.1416 -0.0344  0.4705
  207MOL    H9737589   2.581   3.064   2.028 -2.3899  1.5946  1.4629
  207MOL    H9837590   2.700   3.163   1.954 -0.2899 -2.8193 -0.5072
  207MOL    H9937591   2.515   3.231   1.864  1.3807  2.6488 -0.3045
  207MOL   H10037592   2.493   3.574   1.922 -1.0977  0.6732  1.4321
  207MOL   C10137593   2.371   3.226   2.019 -0.2549  0.5217  0.0192
  207MOL   C10237594   2.277   3.140   1.923  0.2960  0.1588  0.4928
  207MOL   C10337595   2.171   3.234   1.861  0.1832  0.0431  0.0493
  207MOL   O10437596   2.184   3.272   1.746  0.0156 -0.2510  1.0135
  207MOL   O10537597   2.069   3.253   1.947  0.6086 -0.0282  0.0272
  207MOL   H10637598   2.325   3.314   2.064 -0.6757  0.1625  0.2995
  207MOL   H10737599   2.387   3.169   2.110  1.0686 -0.9435 -1.1072
  207MOL   H10837600   2.336   3.108   1.837 -2.4077 -2.0365 -0.6342
  207MOL   H10937601   2.007   3.322   1.930 -0.4970 -0.6438  1.4619
  207MOL   C11037602   2.208   3.023   1.998 -0.0441 -0.9113  0.5778
  207MOL   C11137603   2.302   2.897   2.030  0.6329 -0.1787 -0.7526
  207MOL   C11237604   2.361   2.832   1.906  0.9427 -0.5096  0.1672
  207MOL   O11337605   2.316   2.847   1.793  0.3785 -0.0853  0.3377
  207MOL   O11437606   2.472   2.765   1.932 -0.1331  0.3291  0.2725
  207MOL   H11537607   2.125   2.981   1.941  0.2346 -0.5521 -0.1050
  207MOL   H11637608   2.163   3.063   2.089 -2.2613  1.1188 -1.3270
  207MOL   H11737609   2.391   2.940   2.076 -0.7312  0.5964  1.2398
  207MOL   H11837610   2.527   2.748   1.857 -0.2556  2.3756 -0.3285
  207MOL   C11937611   2.232   2.793   2.124 -0.2825 -0.5538 -0.1213
  207MOL   C12037612   2.212   2.838   2.272 -0.0130 -0.8902 -0.0020
  207MOL   C12137613   2.347   2.862   2.339  0.4640  0.6062  0.2258
  207MOL   O12237614   2.446   2.799   2.307 -0.3840 -0.2807  0.4265
  207MOL   O12337615   2.347   2.959   2.438  0.2625  0.5694  0.3060
  207MOL   H12437616   2.289   2.699   2.119  0.8466  0.1368 -0.4299
  207MOL   H12537617   2.136   2.772   2.078 -1.3729  1.8449  0.9782
  207MOL   H12637618   2.155   2.929   2.288  0.0591 -0.6234 -1.2369
  207MOL   H12737619   2.433   2.958   2.478 -0.0458  1.1652  0.9805
  207MOL   C12837620   2.124   2.730   2.345 -0.5259 -1.3376  0.0919
  207MOL   C12937621   1.981   2.716   2.281 -0.1289 -0.3165 -0.1201
  207MOL   C13037622   1.906   2.847   2.295 -0.2631 -0.3695  0.5021
  207MOL   O13137623   1.879   2.924   2.201 -0.1147  0.0569  0.0838
  207MOL   O13237624   1.890   2.881   2.427 -0.0104 -0.0862 -0.2980
  207MOL   H13337625   2.120   2.753   2.451  1.0129 -0.8149  0.0491
  207MOL   H13437626   2.187   2.641   2.344  4.0493  1.6940 -1.5464
  207MOL   H13537627   1.978   2.683   2.178 -1.5589  2.1578 -0.9253
  207MOL   H13637628   1.869   2.972   2.433 -1.1767 -0.1621 -2.6327
  207MOL   C13737629   1.900   2.597   2.349  0.4325 -0.7997 -0.7756
  207MOL   C13837630   1.858   2.477   2.255 -0.3732  0.0726  0.1840
  207MOL   C13937631   1.739   2.402   2.318 -0.2070  1.1029  0.2291
  207MOL   O14037632   1.694   2.429   2.433 -0.0252 -0.2636 -0.2768
  207MOL   O14137633   1.697   2.299   2.240  0.3786 -0.5443 -0.5586
  207MOL   H14237634   1.815   2.638   2.405  1.8128 -0.6316  1.2663
  207MOL   H14337635   1.963   2.557   2.428 -0.1639 -0.0349  0.1129
  207MOL   H14437636   1.817   2.532   2.170  1.2906  0.3728 -0.4436
  207MOL   H14537637   1.632   2.236   2.266 -0.9372  1.1771  0.4778
  207MOL   C14637638   1.980   2.387   2.222  0.1438 -0.9186  0.4086
  207MOL   C14737639   2.078   2.444   2.122  0.7302 -0.3348 -0.4006
  207MOL   C14837640   2.000   2.460   1.983 -0.0007 -0.2931 -0.5873
  207MOL   O14937641   1.989   2.363   1.911  0.2192  0.2369  0.4658
  207MOL   O15037642   1.950   2.586   1.958  0.6630 -0.6766  0.1803
  207MOL   H15137643   1.958   2.288   2.183 -1.4603 -0.6364  0.5594
  207MOL   H15237644   2.036   2.371   2.314 -0.7778 -1.6491  0.8560
  207MOL   H15337645   2.130   2.531   2.161 -0.4013  0.0955  0.1808
  207MOL   H15437646   1.909   2.591   1.873  3.4975  1.3576 -1.1431
  207MOL   C15537647   2.199   2.339   2.102 -0.0786  0.4972 -0.3061
  207MOL   C15637648   2.336   2.376   2.034 -0.3448 -0.1402 -1.1078
  207MOL   C15737649   2.418   2.459   2.137  0.0363  0.3409  0.1238
  207MOL   O15837650   2.375   2.484   2.248  0.2277 -0.1132  0.1108
  207MOL   O15937651   2.543   2.494   2.095 -0.6116  0.0070  0.3304
  207MOL   H16037652   2.165   2.249   2.050  0.5036  1.3038 -2.1331
  207MOL   H16137653   2.221   2.291   2.198 -0.2132  0.2034 -0.4225
  207MOL   H16237654   2.381   2.276   2.034  0.5264  0.2382  0.8726
  207MOL   H16337655   2.582   2.543   2.165  0.8548 -0.4082 -0.1711
  207MOL   C16437656   2.339   2.420   1.886  0.1177 -0.1381 -0.7947
  207MOL   C16537657   2.423   2.340   1.786  0.2264  0.8840 -0.4953
  207MOL   C16637658   2.575   2.344   1.809 -0.8046 -0.0151  0.2683
  207MOL   O16737659   2.658   2.409   1.746 -0.5912  0.2454 -0.2636
  207MOL   O16837660   2.602   2.267   1.916 -0.0575  0.7637 -0.6043
  207MOL   H16937661   2.383   2.520   1.878 -0.6600  0.2810  0.1028
  207MOL   H17037662   2.246   2.453   1.840  0.2000  2.3015  0.6718
  207MOL   H17137663   2.401   2.234   1.797  1.4614  0.3408 -3.0371
  207MOL   H17237664   2.695   2.256   1.924 -0.0939  0.8990  0.0212
  207MOL   C17337665   2.370   2.380   1.646  0.0673  0.6397  0.2481
  207MOL   C17437666   2.438   2.289   1.538 -0.2390  0.6591  0.0636
  207MOL   C17537667   2.369   2.300   1.400 -0.6059  0.0309 -0.1495
  207MOL   O17637668   2.414   2.381   1.323 -0.1865 -0.1669  0.7592
  207MOL   O17737669   2.264   2.211   1.389 -0.1657  0.2029 -0.0094
  207MOL   H17837670   2.396   2.486   1.635 -1.6267  1.3060  2.2195
  207MOL   H17937671   2.262   2.371   1.635  0.1532  0.3819 -0.3711
  207MOL   H18037672   2.543   2.314   1.525 -0.4288 -0.3318 -4.0974
  207MOL   H18137673   2.230   2.225   1.302 -0.6006  2.3838  0.4590
  207MOL   H18237674   2.432   2.185   1.570  0.5760  0.7121  0.3993
  208MOL     C137675   5.793   2.333   4.782 -0.0413  0.4141  0.2173
  208MOL     C237676   5.846   2.310   4.924 -0.2851 -0.1148  0.2251
  208MOL     C337677   5.818   2.162   4.965 -0.6948  0.1920 -0.5174
  208MOL     O437678   5.702   2.123   4.948 -0.1496 -0.0701 -0.2367
  208MOL     O537679   5.922   2.085   5.012 -0.2171 -0.3733 -0.2022
  208MOL     H637680   5.687   2.354   4.796  0.0879  0.5757  0.9763
  208MOL     H737681   5.829   2.432   4.753 -2.7799  1.9491  1.8989
  208MOL     H837682   5.955   2.314   4.919 -0.2586 -0.2199  0.6758
  208MOL     H937683   5.898   1.994   5.020  1.1506 -0.7783 -0.6712
  208MOL    H1037684   5.815   2.263   4.702  2.6056  0.0326  1.2140
  208MOL    C1137685   5.800   2.404   5.033 -0.3981 -0.1827  0.6561
  208MOL    C1237686   5.912   2.455   5.129  0.5615  0.6346 -0.3147
  208MOL    C1337687   5.958   2.331   5.206  0.2597  0.4743  0.6439
  208MOL    O1437688   5.885   2.272   5.283  0.5834  0.0466  0.1336
  208MOL    O1537689   6.086   2.292   5.188 -0.2604  0.5697 -0.2700
  208MOL    H1637690   5.719   2.375   5.100  0.0731  0.3679  1.4744
  208MOL    H1737691   5.754   2.487   4.979  1.1351  0.3846  0.2088
  208MOL    H1837692   5.996   2.480   5.065  0.3087 -2.5579 -2.0284
  208MOL    H1937693   6.097   2.217   5.245 -2.3322  0.3787 -0.0979
  208MOL    C2037694   5.859   2.571   5.218 -0.4989  0.0939 -0.0123
  208MOL    C2137695   5.960   2.665   5.298 -0.3114  0.0925  0.2107
  208MOL    C2237696   6.053   2.736   5.200 -0.4197  0.0320 -0.0265
  208MOL    O2337697   6.017   2.833   5.133  0.3222 -0.0917 -0.1548
  208MOL    O2437698   6.171   2.676   5.187 -0.4275  0.1224 -0.1200
  208MOL    H2537699   5.777   2.541   5.283  0.0420  2.7103  2.0038
  208MOL    H2637700   5.806   2.640   5.153 -0.4676  0.1607  0.0328
  208MOL    H2737701   5.907   2.748   5.343 -1.1506 -2.2161  3.6941
  208MOL    H2837702   6.223   2.717   5.119 -1.3891  1.4074 -0.0892
  208MOL    C2937703   6.032   2.588   5.408 -0.2576  0.1457  0.0751
  208MOL    C3037704   5.954   2.510   5.519 -0.4873  0.6882 -0.0665
  208MOL    C3137705   5.879   2.598   5.624  0.3766  0.4102  0.3068
  208MOL    O3237706   5.890   2.722   5.621 -0.9025 -0.2121 -0.8179
  208MOL    O3337707   5.810   2.524   5.712  0.8277 -0.2549 -0.0782
  208MOL    H3437708   6.099   2.660   5.454 -1.5146  1.3839 -0.0232
  208MOL    H3537709   6.096   2.515   5.357  1.4116  1.4310  0.2983
  208MOL    H3637710   5.873   2.456   5.469  0.4605  1.1420 -2.1282
  208MOL    H3737711   5.768   2.578   5.777 -1.4232 -0.7163 -1.0835
  208MOL    C3837712   6.043   2.403   5.583  0.0384 -0.1369 -0.9941
  208MOL    C3937713   6.192   2.454   5.625  0.3255 -0.0852  0.6376
  208MOL    C4037714   6.308   2.375   5.558 -0.2216 -0.2085 -0.2730
  208MOL    O4137715   6.357   2.270   5.604  0.0151 -0.1494  0.3481
  208MOL    O4237716   6.352   2.433   5.442  0.3769  0.3215 -0.2454
  208MOL    H4337717   6.052   2.325   5.507  1.4839 -1.2137  0.2519
  208MOL    H4437718   5.989   2.343   5.656 -0.0118 -0.4963 -1.3245
  208MOL    H4537719   6.210   2.561   5.613  0.5991 -0.3332 -1.3883
  208MOL    H4637720   6.416   2.385   5.392 -0.6169 -1.5795  0.2767
  208MOL    C4737721   6.197   2.433   5.773  0.1525 -1.0652  0.2000
  208MOL    C4837722   6.318   2.490   5.857 -0.6361  0.6755 -0.3155
  208MOL    C4937723   6.287   2.462   6.001 -0.3432 -0.1856  0.2443
  208MOL    O5037724   6.174   2.426   6.043 -0.1181  0.6213 -0.3164
  208MOL    O5137725   6.382   2.503   6.089  0.0334 -0.7282  0.1528
  208MOL    H5237726   6.208   2.326   5.793  3.1503 -0.5869  1.3992
  208MOL    H5337727   6.104   2.463   5.821 -0.9566 -1.8834 -1.3999
  208MOL    H5437728   6.414   2.446   5.832  0.5728  2.4635  1.0248
  208MOL    H5537729   6.357   2.497   6.180 -1.6309  0.8724 -0.1612
  208MOL    C5637730   6.330   2.644   5.848 -0.2363 -0.3685  0.1764
  208MOL    C5737731   6.464   2.707   5.786 -0.6633  0.8590  0.8926
  208MOL    C5837732   6.587   2.703   5.884  0.3620  0.1563 -0.2470
  208MOL    O5937733   6.695   2.653   5.847  0.2490  0.1311 -0.1925
  208MOL    O6037734   6.558   2.744   6.009 -0.0973 -0.3960 -0.5372
  208MOL    H6137735   6.319   2.701   5.941  0.2648 -0.5577  0.3563
  208MOL    H6237736   6.244   2.672   5.787 -0.3397 -0.9526  0.0583
  208MOL    H6337737   6.484   2.660   5.690 -2.7821  0.2201  0.7411
  208MOL    H6437738   6.634   2.753   6.065 -0.6069 -1.9082  0.4320
  208MOL    C6537739   6.425   2.854   5.746 -0.1567 -0.3947  0.2585
  208MOL    C6637740   6.500   2.913   5.622  0.1659  0.2174  0.1031
  208MOL    C6737741   6.647   2.925   5.643  0.9782 -0.3998  0.0646
  208MOL    O6837742   6.740   2.873   5.577  0.0214  0.1307 -0.1612
  208MOL    O6937743   6.669   3.006   5.748 -0.0242 -0.0248 -0.3287
  208MOL    H7037744   6.434   2.918   5.833 -1.3054 -0.8312  0.7075
  208MOL    H7137745   6.321   2.855   5.714 -0.1896  3.4816  0.2774
  208MOL    H7237746   6.497   2.840   5.541  0.0170  1.1826 -0.7682
  208MOL    H7337747   6.762   3.017   5.764 -0.1104 -1.6459  1.4345
  208MOL    C7437748   6.437   3.041   5.562 -0.2269  0.5288  0.0475
  208MOL    C7537749   6.335   3.010   5.452 -0.7637  0.0203  0.1660
  208MOL    C7637750   6.392   2.971   5.311 -0.0456 -0.0315  0.2870
  208MOL    O7737751   6.317   2.964   5.216 -0.4838 -0.0615  0.4400
  208MOL    O7837752   6.523   2.942   5.302  0.6879 -0.1275 -0.2959
  208MOL    H7937753   6.502   3.120   5.526 -0.9362  0.1820 -2.0287
  208MOL    H8037754   6.390   3.094   5.645  0.3177  1.8037 -0.4553
  208MOL    H8137755   6.269   2.927   5.478 -0.5451 -0.4532 -0.7424
  208MOL    H8237756   6.559   2.918   5.218 -0.8513 -0.8133 -0.7720
  208MOL    C8337757   6.243   3.135   5.438 -0.1601  0.9346  0.1814
  208MOL    C8437758   6.134   3.151   5.545  0.6135  0.1166 -0.7031
  208MOL    C8537759   6.028   3.042   5.517 -0.2041 -0.5366 -0.3025
  208MOL    O8637760   5.974   3.022   5.410  0.2875  0.1542 -0.1561
  208MOL    O8737761   5.995   2.984   5.635  0.4679 -0.5741  0.2374
  208MOL    H8837762   6.211   3.140   5.334  0.8366 -0.3941 -0.2003
  208MOL    H8937763   6.307   3.222   5.452 -0.8454  1.2170  1.6923
  208MOL    H9037764   6.177   3.129   5.643 -1.2935  0.6714  0.2840
  208MOL    H9137765   5.932   2.914   5.627  0.6111 -0.7518  0.6829
  208MOL    C9237766   6.083   3.296   5.550  0.1918  0.3607 -0.5272
  208MOL    C9337767   6.001   3.360   5.434  0.1578  0.6667 -0.8106
  208MOL    C9437768   6.051   3.333   5.288 -0.2329 -0.3712 -0.2149
  208MOL    O9537769   6.149   3.389   5.238  0.1627 -0.3076 -0.3400
  208MOL    O9637770   5.967   3.257   5.213 -0.1249  0.6082 -0.4604
  208MOL    H9737771   6.163   3.365   5.575 -0.3481  1.8243 -2.7270
  208MOL    H9837772   6.023   3.301   5.641  0.7430  0.3795 -0.1649
  208MOL    H9937773   5.903   3.313   5.439  0.9601 -0.9538  0.4386
  208MOL   H10037774   6.009   3.248   5.129 -0.9547  0.3258 -0.8544
  208MOL   C10137775   5.991   3.509   5.471 -0.0546 -0.0160 -0.7723
  208MOL   C10237776   5.876   3.586   5.413 -0.0529 -0.3159 -0.0398
  208MOL   C10337777   5.879   3.591   5.259 -0.1476 -0.6304 -0.1390
  208MOL   O10437778   5.970   3.637   5.192  0.3736 -0.3667  0.2601
  208MOL   O10537779   5.761   3.552   5.214 -0.2788  0.0119 -0.0680
  208MOL   H10637780   6.090   3.551   5.451  0.2716 -0.2759  0.2432
  208MOL   H10737781   5.988   3.523   5.579 -0.2039 -1.9207 -0.5198
  208MOL   H10837782   5.783   3.540   5.448 -0.0338  1.8787  3.1349
  208MOL   H10937783   5.760   3.536   5.121 -1.0789 -1.5969  0.1908
  208MOL   C11037784   5.884   3.737   5.460 -0.3181 -0.3030 -0.5199
  208MOL   C11137785   5.750   3.796   5.515  0.5149 -0.1470 -0.2994
  208MOL   C11237786   5.698   3.729   5.636 -0.5194 -0.0973  0.2505
  208MOL   O11337787   5.738   3.619   5.673  0.0932 -0.4485 -0.4569
  208MOL   O11437788   5.593   3.789   5.697  0.0066 -0.0684 -0.0916
  208MOL   H11537789   5.925   3.803   5.384  0.8519 -1.0738 -0.5685
  208MOL   H11637790   5.951   3.735   5.546 -0.8669  1.5184 -0.0257
  208MOL   H11737791   5.764   3.891   5.566  2.3444  0.4962 -1.9182
  208MOL   H11837792   5.584   3.753   5.784 -0.7026 -1.6113 -0.7891
  208MOL   C11937793   5.630   3.808   5.413  0.1074 -0.3278 -0.3100
  208MOL   C12037794   5.618   3.947   5.338 -0.2794 -0.1577 -0.0023
  208MOL   C12137795   5.759   3.992   5.277  0.8494 -0.5119 -0.1127
  208MOL   O12237796   5.816   4.098   5.313  0.0417 -0.1110  0.1875
  208MOL   O12337797   5.806   3.906   5.185 -0.0247 -0.4362  0.2259
  208MOL   H12437798   5.530   3.787   5.451  0.4429  0.6544  1.1501
  208MOL   H12537799   5.654   3.732   5.339  0.7517 -0.7186  0.2874
  208MOL   H12637800   5.558   3.930   5.249 -1.1552 -4.2498  1.2713
  208MOL   H12737801   5.875   3.953   5.141  0.4022 -0.0780  1.2582
  208MOL   C12837802   5.543   4.054   5.425  0.4563 -0.1541  0.2332
  208MOL   C12937803   5.496   4.177   5.342  0.2320 -0.1077 -0.2318
  208MOL   C13037804   5.535   4.307   5.411 -0.2977  0.0671  0.0602
  208MOL   O13137805   5.454   4.381   5.461 -0.2025  0.5740 -0.0319
  208MOL   O13237806   5.670   4.330   5.410  0.7209 -0.0298 -0.3805
  208MOL   H13337807   5.607   4.075   5.510 -0.8260  0.6596  1.0103
  208MOL   H13437808   5.454   4.009   5.469  1.7507 -1.4231  1.6051
  208MOL   H13537809   5.559   4.196   5.256 -1.1252  0.5515 -1.0899
  208MOL   H13637810   5.719   4.262   5.367  2.4071 -0.0723  1.5239
  208MOL   C13737811   5.346   4.170   5.297  0.2891  0.2255 -0.1571
  208MOL   C13837812   5.310   4.244   5.164 -0.3214  0.0725  0.0530
  208MOL   C13937813   5.201   4.348   5.189  0.5175  0.1018 -0.9267
  208MOL   O14037814   5.088   4.343   5.147  0.0389 -0.6179  0.4818
  208MOL   O14137815   5.255   4.445   5.266 -0.2456  0.4113 -0.1970
  208MOL   H14237816   5.289   4.205   5.383 -0.8776  1.7055 -1.5102
  208MOL   H14337817   5.317   4.065   5.283  1.8063  0.0264 -2.0237
  208MOL   H14437818   5.389   4.305   5.120 -1.9319  2.0175 -0.2491
  208MOL   H14537819   5.203   4.522   5.280 -1.0286  0.3172 -2.2914
  208MOL   C14637820   5.265   4.154   5.044  0.4848  0.5782  0.2370
  208MOL   C14737821   5.381   4.059   5.001  0.4231 -0.1105 -0.3260
  208MOL   C14837822   5.501   4.136   4.939 -0.0855 -0.3829  0.2676
  208MOL   O14937823   5.601   4.145   5.006 -0.3768  0.2973  0.0323
  208MOL   O15037824   5.482   4.194   4.817 -0.3560 -0.1444  0.1361
  208MOL   H15137825   5.212   4.206   4.964 -3.5087 -2.5643  0.6598
  208MOL   H15237826   5.183   4.095   5.084 -0.2246  1.8727  0.7053
  208MOL   H15337827   5.421   4.018   5.093  0.1182  0.3924  0.0301
  208MOL   H15437828   5.400   4.174   4.775 -1.2874  0.4077  1.6370
  208MOL   C15537829   5.340   3.937   4.919  0.3778  0.4428  0.7048
  208MOL   C15637830   5.425   3.814   4.947 -0.1896  0.4264 -0.3176
  208MOL   C15737831   5.412   3.748   5.089 -0.5259 -0.8958  0.3703
  208MOL   O15837832   5.498   3.681   5.135  0.5457  0.5078 -0.6436
  208MOL   O15937833   5.294   3.770   5.145 -0.0639 -0.5619  0.2450
  208MOL   H16037834   5.332   3.951   4.811 -1.5198 -0.2187  0.7326
  208MOL   H16137835   5.236   3.919   4.949  0.1884  0.0887 -0.1394
  208MOL   H16237836   5.377   3.736   4.887 -1.2237  0.8597 -0.0559
  208MOL   H16337837   5.279   3.718   5.222 -1.1119 -0.2490  0.2518
  208MOL   C16437838   5.567   3.817   4.891  0.7531  0.1878 -0.5623
  208MOL   C16537839   5.620   3.678   4.858 -0.4514  0.4675 -0.5852
  208MOL   C16637840   5.774   3.672   4.871  0.4142 -0.2216  0.3605
  208MOL   O16737841   5.847   3.764   4.838  0.2399 -0.0634  0.0683
  208MOL   O16837842   5.819   3.547   4.902  0.0902  0.3546  0.1493
  208MOL   H16937843   5.636   3.866   4.960 -2.9219  1.9200  2.0344
  208MOL   H17037844   5.575   3.877   4.801 -0.6210  3.0293  1.1414
  208MOL   H17137845   5.582   3.603   4.928  1.3273  0.1798  0.1070
  208MOL   H17237846   5.914   3.546   4.908  0.0897  2.6434  1.1577
  208MOL   C17337847   5.579   3.629   4.712 -0.1347 -0.5179  0.7647
  208MOL   C17437848   5.568   3.478   4.688  0.2186  0.0912 -0.0667
  208MOL   C17537849   5.448   3.409   4.759 -0.0756 -0.6880 -0.0731
  208MOL   O17637850   5.358   3.462   4.828  0.2847 -0.0251  0.1316
  208MOL   O17737851   5.478   3.278   4.757  0.4525 -0.1196 -0.8415
  208MOL   H17837852   5.652   3.661   4.638 -0.9435 -0.7767 -0.1617
  208MOL   H17937853   5.485   3.677   4.683  0.2506 -1.3658 -2.0450
  208MOL   H18037854   5.539   3.469   4.584 -1.9168  1.6549  0.3678
  208MOL   H18137855   5.405   3.228   4.789  0.6282  0.4294  0.4512
  208MOL   H18237856   5.665   3.433   4.708 -0.0111 -0.6582 -0.6275
  209MOL     C137857   1.143   6.769   4.866 -0.2726 -0.0144 -0.1420
  209MOL     C237858   1.269   6.724   4.934 -0.2625 -1.0149 -0.3532
  209MOL     C337859   1.316   6.597   4.866 -0.0890 -0.4483  0.7822
  209MOL     O437860   1.237   6.506   4.834 -0.0365  0.0226  0.6954
  209MOL     O537861   1.456   6.593   4.859 -0.0960 -0.0032  0.0562
  209MOL     H637862   1.109   6.869   4.893  2.1365  1.2964 -1.7470
  209MOL     H737863   1.154   6.789   4.759  1.9610 -0.0084  0.0690
  209MOL     H837864   1.346   6.801   4.929 -2.4343  1.2792  0.3946
  209MOL     H937865   1.486   6.506   4.836  1.4071  0.6624 -0.5788
  209MOL    H1037866   1.061   6.698   4.879  0.1618 -0.1966  1.6306
  209MOL    C1137867   1.251   6.695   5.084  0.0459  0.4817 -0.7854
  209MOL    C1237868   1.189   6.813   5.170  0.0497 -0.5830  0.5736
  209MOL    C1337869   1.295   6.928   5.179  0.6960 -0.5413 -0.1646
  209MOL    O1437870   1.403   6.930   5.126  0.0786  0.6895  0.1917
  209MOL    O1537871   1.254   7.035   5.259  0.1312 -0.0947 -0.2454
  209MOL    H1637872   1.357   6.677   5.101 -0.1860  0.2269  0.4335
  209MOL    H1737873   1.205   6.600   5.111 -3.1660  1.7803 -1.3717
  209MOL    H1837874   1.096   6.850   5.126 -0.2557  1.4674  2.8270
  209MOL    H1937875   1.161   7.043   5.277  0.2083 -1.6675  0.9377
  209MOL    C2037876   1.160   6.763   5.308  0.5228 -0.5822 -0.8082
  209MOL    C2137877   1.039   6.674   5.323 -0.1695  0.2173  0.6481
  209MOL    C2237878   0.902   6.741   5.314 -0.1618 -0.0198  0.0497
  209MOL    O2337879   0.894   6.860   5.282  0.3452 -0.4487  0.5750
  209MOL    O2437880   0.800   6.657   5.345  0.1422  0.0292  0.2417
  209MOL    H2537881   1.145   6.851   5.371 -0.9866 -0.3487 -1.4659
  209MOL    H2637882   1.251   6.723   5.354 -0.4300 -1.1935  0.6007
  209MOL    H2737883   1.037   6.614   5.232  3.2392  0.3155  0.4488
  209MOL    H2837884   0.723   6.708   5.328  0.9253  1.4883  0.9672
  209MOL    C2937885   1.060   6.587   5.452  0.6218 -0.4880 -0.5219
  209MOL    C3037886   1.028   6.648   5.594  0.0924 -0.4354  0.2973
  209MOL    C3137887   1.116   6.775   5.624 -0.2790 -0.4669 -0.0041
  209MOL    O3237888   1.235   6.765   5.657  0.0006  0.1286  0.4286
  209MOL    O3337889   1.042   6.891   5.611  0.5320 -0.4936 -0.2314
  209MOL    H3437890   1.158   6.541   5.453  1.2285  0.7730 -1.0339
  209MOL    H3537891   0.998   6.497   5.453 -2.3845  1.5085  0.9693
  209MOL    H3637892   0.924   6.676   5.577 -0.0735 -0.3618  1.4298
  209MOL    H3737893   1.092   6.969   5.625 -0.3081  0.3452 -1.8599
  209MOL    C3837894   1.020   6.540   5.701  0.1421 -0.1075 -0.6621
  209MOL    C3937895   0.942   6.588   5.820  0.1902  0.2572  0.0997
  209MOL    C4037896   0.989   6.521   5.947 -0.1809  0.1366  0.1482
  209MOL    O4137897   1.030   6.587   6.039  0.1064  0.3680  0.5139
  209MOL    O4237898   0.987   6.384   5.938 -0.0975  0.2060 -0.0583
  209MOL    H4337899   1.122   6.506   5.717 -0.3716 -1.1520  0.4204
  209MOL    H4437900   0.969   6.456   5.653 -0.6403 -0.1365  0.2070
  209MOL    H4537901   0.953   6.695   5.838 -1.3881  0.3193  0.8231
  209MOL    H4637902   1.006   6.338   6.018  0.2675 -0.1104 -0.3273
  209MOL    C4737903   0.798   6.561   5.809 -0.0454 -0.1975  0.3657
  209MOL    C4837904   0.698   6.672   5.865  0.0880 -0.0633  0.6102
  209MOL    C4937905   0.719   6.810   5.797  0.2842  0.1549 -0.2623
  209MOL    O5037906   0.767   6.904   5.862  0.4918 -0.4699  0.2526
  209MOL    O5137907   0.700   6.806   5.663 -0.3112  0.4409 -0.2495
  209MOL    H5237908   0.780   6.456   5.835 -0.7307  0.2694  1.7830
  209MOL    H5337909   0.781   6.569   5.702  1.9627 -1.2300 -0.0594
  209MOL    H5437910   0.596   6.644   5.836  0.2100  0.9062 -0.8333
  209MOL    H5537911   0.735   6.885   5.624  3.8876 -1.6224 -0.8966
  209MOL    C5637912   0.695   6.678   6.020 -0.1558  0.0370 -0.0073
  209MOL    C5737913   0.622   6.553   6.072 -0.2218 -0.2092 -0.6047
  209MOL    C5837914   0.478   6.592   6.119  0.3364  0.3434 -0.0839
  209MOL    O5937915   0.438   6.568   6.231 -0.0215 -0.6517 -0.0363
  209MOL    O6037916   0.396   6.633   6.015  0.6957  0.2463 -0.4777
  209MOL    H6137917   0.636   6.763   6.054 -0.2523  0.3497 -0.9462
  209MOL    H6237918   0.793   6.681   6.067  0.7753  1.4429 -1.9888
  209MOL    H6337919   0.607   6.486   5.988 -2.0295  2.1721 -2.2475
  209MOL    H6437920   0.319   6.667   6.057  0.9213  1.0919 -0.7279
  209MOL    C6537921   0.705   6.475   6.180 -0.2409  0.7359  0.0913
  209MOL    C6637922   0.663   6.326   6.189  0.7877 -0.3776  0.2340
  209MOL    C6737923   0.686   6.281   6.331 -0.3054  0.7238  0.6898
  209MOL    O6837924   0.795   6.290   6.370 -0.7010  0.6810 -0.4136
  209MOL    O6937925   0.581   6.235   6.398 -0.7489 -0.3010 -0.6952
  209MOL    H7037926   0.692   6.520   6.278 -2.3888 -3.2357  1.7521
  209MOL    H7137927   0.810   6.487   6.153  0.4742 -2.3081  1.3582
  209MOL    H7237928   0.554   6.322   6.184  0.7832  0.5852 -0.6048
  209MOL    H7337929   0.505   6.221   6.345  0.1130 -0.7977 -1.8328
  209MOL    C7437930   0.731   6.239   6.082  0.6029  0.0751 -0.6089
  209MOL    C7537931   0.673   6.096   6.055  0.7420  0.4100 -0.7203
  209MOL    C7637932   0.537   6.095   5.972  1.0312  0.4765  0.1973
  209MOL    O7737933   0.459   6.189   5.971  0.3333  0.6103 -0.1990
  209MOL    O7837934   0.510   5.974   5.925 -0.0762 -0.0296 -0.4566
  209MOL    H7937935   0.837   6.220   6.100  1.0595  1.3630 -1.8909
  209MOL    H8037936   0.730   6.293   5.987  1.3600 -0.5182 -0.9681
  209MOL    H8137937   0.738   6.044   5.985  1.0655  0.5174 -0.5020
  209MOL    H8237938   0.427   5.972   5.879  0.5069 -2.2305 -1.4452
  209MOL    C8337939   0.670   5.992   6.172  0.8239  0.1532  0.1660
  209MOL    C8437940   0.800   5.974   6.248 -0.2841  0.0154 -0.0926
  209MOL    C8537941   0.889   5.875   6.176 -0.1439 -0.0822 -0.1829
  209MOL    O8637942   0.972   5.908   6.088  0.2387 -0.0064 -0.1566
  209MOL    O8737943   0.858   5.744   6.215  0.2948 -0.7331 -0.8835
  209MOL    H8837944   0.634   5.896   6.137  1.9630 -0.6868  1.2425
  209MOL    H8937945   0.598   6.028   6.246  0.9169 -0.9446  0.8044
  209MOL    H9037946   0.851   6.070   6.240  1.1002 -0.7489 -0.4999
  209MOL    H9137947   0.912   5.687   6.162 -1.2968 -3.8703  0.7156
  209MOL    C9237948   0.765   5.944   6.399 -0.0293  0.3815 -0.8183
  209MOL    C9337949   0.879   5.918   6.508  0.4653  0.4408  0.1613
  209MOL    C9437950   0.925   5.772   6.511  0.2879  0.5814  0.4263
  209MOL    O9537951   0.848   5.684   6.541 -0.0531  0.2719  0.2967
  209MOL    O9637952   1.050   5.756   6.465  0.1379  0.2342  0.1787
  209MOL    H9737953   0.694   5.862   6.412 -0.9187  1.2354 -0.3266
  209MOL    H9837954   0.717   6.035   6.434  0.9140  0.6008 -0.0837
  209MOL    H9937955   0.965   5.976   6.472 -0.6066  1.5104 -0.7509
  209MOL   H10037956   1.093   5.673   6.460 -1.2495 -0.5671  1.1866
  209MOL   C10137957   0.830   5.973   6.648 -0.2534 -0.4869 -0.5161
  209MOL   C10237958   0.937   6.001   6.755 -0.1011  0.7180 -0.0579
  209MOL   C10337959   0.885   5.989   6.894  0.1440  0.1470 -0.5095
  209MOL   O10437960   0.904   5.885   6.960  0.2181 -0.0485  0.4123
  209MOL   O10537961   0.810   6.094   6.935  0.0445 -0.1549  0.3436
  209MOL   H10637962   0.758   5.900   6.686 -0.2134  0.1521  0.8337
  209MOL   H10737963   0.774   6.065   6.637  0.6714  0.0808 -0.5296
  209MOL   H10837964   1.002   5.915   6.736 -0.0274  0.6303  0.5990
  209MOL   H10937965   0.787   6.078   7.025  1.6095 -1.6522  0.4975
  209MOL   C11037966   1.020   6.126   6.725 -0.1541 -0.0398  0.0885
  209MOL   C11137967   1.128   6.165   6.825  0.5064 -0.4551 -0.4833
  209MOL   C11237968   1.239   6.062   6.849  0.1292 -0.3108 -0.1700
  209MOL   O11337969   1.336   6.052   6.776  0.2343 -0.2355  0.1668
  209MOL   O11437970   1.209   5.982   6.958 -0.5866 -0.2460  0.5778
  209MOL   H11537971   0.953   6.212   6.722 -0.7458 -0.3792  2.2853
  209MOL   H11637972   1.067   6.126   6.627 -0.5080  2.7944 -0.1390
  209MOL   H11737973   1.171   6.239   6.757 -0.1643  1.4829  1.1825
  209MOL   H11837974   1.264   5.907   6.974  1.6715  1.1509 -0.3020
  209MOL   C11937975   1.071   6.243   6.948  0.3750  0.2331  0.3289
  209MOL   C12037976   1.172   6.355   6.996  0.6247  0.2648 -0.3819
  209MOL   C12137977   1.301   6.297   7.067  0.2155  0.3980 -0.1110
  209MOL   O12237978   1.296   6.259   7.184 -0.0006 -0.1182 -0.1932
  209MOL   O12337979   1.419   6.300   6.992 -0.2474 -0.2175 -0.0838
  209MOL   H12437980   1.067   6.165   7.024 -1.9095 -0.7157 -0.7167
  209MOL   H12537981   0.975   6.295   6.937  0.9516  1.5356  1.3457
  209MOL   H12637982   1.202   6.406   6.905 -0.6299  0.8808 -0.4594
  209MOL   H12737983   1.407   6.327   6.902  1.0010  0.0722 -0.1767
  209MOL   C12837984   1.107   6.455   7.090  0.5298  0.0376  0.1471
  209MOL   C12937985   1.196   6.575   7.139 -0.1488  0.1761  0.0751
  209MOL   C13037986   1.135   6.645   7.266 -0.6002 -0.2628 -1.0553
  209MOL   O13137987   1.199   6.698   7.354  0.1680  0.0527  0.8011
  209MOL   O13237988   1.001   6.632   7.273 -0.4694  0.2650  0.1227
  209MOL   H13337989   1.083   6.396   7.179  1.2548  1.3715  1.2641
  209MOL   H13437990   1.010   6.489   7.054  0.9632  1.4578  0.2704
  209MOL   H13537991   1.292   6.541   7.177  0.0744  0.4722 -0.2250
  209MOL   H13637992   0.980   6.687   7.347  0.7455  1.0529 -0.0937
  209MOL   C13737993   1.213   6.672   7.019 -0.2172 -0.3235  0.4915
  209MOL   C13837994   1.343   6.759   7.027 -0.9142 -0.0458 -0.7232
  209MOL   C13937995   1.331   6.888   6.941 -0.6971 -0.0827 -0.8453
  209MOL   O14037996   1.239   6.917   6.860  0.4957  0.1845  0.0632
  209MOL   O14137997   1.431   6.979   6.965  0.0164  1.1323 -0.5760
  209MOL   H14237998   1.125   6.737   7.010  0.8083  0.9750 -0.3143
  209MOL   H14337999   1.212   6.613   6.928  1.0662 -0.5671  0.6368
  209MOL   H14438000   1.337   6.803   7.127  0.2237  1.7258 -1.4089
  209MOL   H14538001   1.398   7.049   6.911  1.0728  2.1533  0.0941
  209MOL   C14638002   1.481   6.685   7.026 -0.4874  0.2831  0.1692
  209MOL   C14738003   1.558   6.682   6.887 -0.9041  0.1909  0.2108
  209MOL   C14838004   1.479   6.607   6.784  0.1625 -0.5884 -0.8818
  209MOL   O14938005   1.451   6.487   6.796 -0.0073  0.6406  0.1330
  209MOL   O15038006   1.444   6.685   6.680 -0.4489  0.3462 -0.6955
  209MOL   H15138007   1.473   6.578   7.047 -1.0773  0.3152  0.0944
  209MOL   H15238008   1.542   6.738   7.099 -1.1255 -0.3712  1.1838
  209MOL   H15338009   1.570   6.783   6.849  0.9901 -0.7598 -1.8161
  209MOL   H15438010   1.396   6.638   6.614 -1.8281  0.0476  0.5010
  209MOL   C15538011   1.703   6.620   6.907  0.2766 -0.5990 -0.4628
  209MOL   C15638012   1.783   6.580   6.782  0.5636  0.1686 -0.0975
  209MOL   C15738013   1.760   6.436   6.739  0.5454 -0.0987 -0.5067
  209MOL   O15838014   1.786   6.395   6.630 -0.3216  0.1055  0.4105
  209MOL   O15938015   1.723   6.351   6.835  0.4244 -0.2937  0.1882
  209MOL   H16038016   1.712   6.539   6.979  1.9340 -0.2207 -0.2403
  209MOL   H16138017   1.756   6.700   6.957 -0.6046  0.2424 -0.8650
  209MOL   H16238018   1.742   6.640   6.701 -1.6524 -1.7458 -0.4740
  209MOL   H16338019   1.726   6.262   6.803  2.4371 -0.8892  1.8392
  209MOL   C16438020   1.929   6.618   6.797  0.0008  0.1111 -0.4186
  209MOL   C16538021   2.024   6.603   6.681 -0.2488 -0.1783 -0.1028
  209MOL   C16638022   2.170   6.613   6.728  0.1467  0.3936 -0.8762
  209MOL   O16738023   2.207   6.685   6.820 -0.0579  0.8328 -0.1790
  209MOL   O16838024   2.238   6.518   6.665 -0.1181 -0.4560  0.3703
  209MOL   H16938025   1.965   6.578   6.892  2.5783  0.1681 -1.3269
  209MOL   H17038026   1.926   6.725   6.818  0.6305  0.2275 -0.9165
  209MOL   H17138027   2.018   6.505   6.634  0.7741  0.0324 -0.6887
  209MOL   H17238028   2.324   6.503   6.701 -0.7359 -2.4899  1.0734
  209MOL   C17338029   2.011   6.701   6.563 -0.3240  0.2988 -1.1189
  209MOL   C17438030   2.037   6.630   6.429  0.2891 -0.1909  0.0982
  209MOL   C17538031   2.074   6.724   6.323  0.4269 -0.3875  0.5095
  209MOL   O17638032   2.061   6.847   6.335 -0.0142  0.6083  0.5363
  209MOL   O17738033   2.121   6.658   6.209  0.1290  0.6624  0.2809
  209MOL   H17838034   2.079   6.786   6.577 -0.3661  0.4899 -2.0890
  209MOL   H17938035   1.913   6.750   6.561 -0.9301 -0.8770 -0.9790
  209MOL   H18038036   2.118   6.558   6.435  1.4691  1.1780  1.1529
  209MOL   H18138037   2.133   6.722   6.141  0.5154  0.2927  0.0021
  209MOL   H18238038   1.942   6.583   6.400 -0.1128  0.7738 -0.1771
  210MOL     C138039   5.872   3.476   6.213  0.2726 -0.2332  0.4462
  210MOL     C238040   5.771   3.395   6.291 -0.0686  0.2351 -0.5722
  210MOL     C338041   5.832   3.263   6.346 -0.0579 -0.2838 -0.3155
  210MOL     O438042   5.783   3.148   6.336  0.1430  0.3228 -0.4245
  210MOL     O538043   5.943   3.290   6.417 -0.3369 -0.0262  0.1447
  210MOL     H638044   5.970   3.485   6.259 -0.2727  0.4938  1.4843
  210MOL     H738045   5.879   3.438   6.111 -3.1711 -0.7433  0.3181
  210MOL     H838046   5.743   3.446   6.383 -0.6768  0.7280 -1.0263
  210MOL     H938047   5.981   3.218   6.466  2.5504  1.5609  0.3920
  210MOL    H1038048   5.823   3.573   6.210  0.4023 -0.1941 -0.6097
  210MOL    C1138049   5.644   3.368   6.225  0.4469  0.3832 -0.1279
  210MOL    C1238050   5.540   3.482   6.214  0.0253  0.4521  0.5908
  210MOL    C1338051   5.468   3.501   6.347 -0.4207  0.0529 -0.5347
  210MOL    O1438052   5.450   3.608   6.401  0.3025 -0.3135  0.1588
  210MOL    O1538053   5.408   3.381   6.382 -0.0237  0.1595  0.5053
  210MOL    H1638054   5.598   3.278   6.267  2.0111  0.3808  1.6255
  210MOL    H1738055   5.670   3.341   6.122  2.3463  2.3025 -0.1791
  210MOL    H1838056   5.594   3.574   6.194  0.6319 -0.1420 -0.5355
  210MOL    H1938057   5.364   3.397   6.464  1.9924  0.3094  1.6018
  210MOL    C2038058   5.432   3.444   6.106  0.2057  0.1964 -0.2076
  210MOL    C2138059   5.310   3.540   6.078  0.0821 -0.0118  0.5839
  210MOL    C2238060   5.352   3.689   6.075 -0.6322 -0.5593  0.3077
  210MOL    O2338061   5.328   3.758   6.173  0.7166  0.0595 -0.5337
  210MOL    O2438062   5.435   3.732   5.973 -0.1873  0.5343  0.2074
  210MOL    H2538063   5.383   3.351   6.134 -0.1125  0.0260 -1.2934
  210MOL    H2638064   5.493   3.423   6.018  0.0057 -0.1392 -0.2657
  210MOL    H2738065   5.287   3.525   5.973  3.7731 -3.6690  0.1370
  210MOL    H2838066   5.442   3.826   5.978 -0.0774  0.6187 -1.3115
  210MOL    C2938067   5.185   3.512   6.156 -0.3281  0.4678 -0.1950
  210MOL    C3038068   5.109   3.376   6.123 -0.0907 -0.2324 -0.0966
  210MOL    C3138069   5.024   3.384   5.996 -0.3025  0.4477 -0.3383
  210MOL    O3238070   5.073   3.427   5.890 -0.1275  0.2299 -1.2982
  210MOL    O3338071   4.902   3.329   6.001 -0.0400 -0.0382 -0.0541
  210MOL    H3438072   5.118   3.587   6.116  1.8533  2.0432 -1.0156
  210MOL    H3538073   5.204   3.529   6.262 -2.1408 -1.2714  0.4296
  210MOL    H3638074   5.181   3.295   6.114 -1.7056 -1.5824 -1.0752
  210MOL    H3738075   4.876   3.320   5.910 -0.0126  2.6575 -0.3745
  210MOL    C3838076   5.029   3.331   6.252  0.2918  0.4749  0.3737
  210MOL    C3938077   5.051   3.188   6.301 -0.2636 -0.0486 -0.3199
  210MOL    C4038078   4.955   3.093   6.222  0.1365 -0.3580  0.2480
  210MOL    O4138079   4.990   3.012   6.140 -0.3218  0.1546  0.2984
  210MOL    O4238080   4.824   3.124   6.244 -0.1747  0.1633 -0.2381
  210MOL    H4338081   4.923   3.357   6.240 -0.0084 -1.1586 -0.6177
  210MOL    H4438082   5.054   3.395   6.337  0.5967 -1.3226  1.6753
  210MOL    H4538083   5.154   3.160   6.276 -0.6089 -0.2347 -1.5749
  210MOL    H4638084   4.774   3.051   6.210 -1.6429  0.0813  1.9538
  210MOL    C4738085   5.027   3.194   6.455 -0.6431 -0.1106  0.5704
  210MOL    C4838086   5.025   3.067   6.541  0.6404 -0.0518 -0.0101
  210MOL    C4938087   4.896   2.986   6.539  0.0012  0.3249 -0.0367
  210MOL    O5038088   4.795   3.031   6.579 -0.1334  0.4927  0.0091
  210MOL    O5138089   4.906   2.854   6.491  0.1727  0.2470  0.4387
  210MOL    H5238090   4.934   3.242   6.482 -1.0460 -0.5112 -0.0959
  210MOL    H5338091   5.096   3.268   6.496  1.1516 -0.5458 -1.5651
  210MOL    H5438092   5.096   3.005   6.487  0.3573 -1.3660  1.1016
  210MOL    H5538093   4.822   2.818   6.515  0.7638 -0.9567  0.7322
  210MOL    C5638094   5.073   3.090   6.686 -0.6197  0.7211  0.7681
  210MOL    C5738095   5.218   3.077   6.721 -0.1805 -0.2162 -0.3010
  210MOL    C5838096   5.315   3.059   6.607 -0.0009 -0.1377  0.1496
  210MOL    O5938097   5.325   3.144   6.519  0.4600  0.0151  0.6609
  210MOL    O6038098   5.379   2.940   6.597 -0.0709 -0.2871  0.4830
  210MOL    H6138099   5.018   3.013   6.740 -2.1778  1.0017 -0.3929
  210MOL    H6238100   5.034   3.180   6.734  0.0148  1.7023 -0.5152
  210MOL    H6338101   5.246   3.170   6.769  0.2394 -0.0215 -0.9161
  210MOL    H6438102   5.441   2.942   6.526 -1.5589  0.6133 -0.8320
  210MOL    C6538103   5.230   2.963   6.832 -0.4388 -0.2759 -0.8577
  210MOL    C6638104   5.363   2.963   6.921 -0.0771  0.0973 -0.2565
  210MOL    C6738105   5.375   2.832   6.987 -0.2897 -0.7171 -0.0860
  210MOL    O6838106   5.281   2.771   7.034  0.2791  0.4472  0.2826
  210MOL    O6938107   5.508   2.796   6.995  0.0051  0.2758 -0.2028
  210MOL    H7038108   5.210   2.868   6.783  0.8729 -1.2525  0.4907
  210MOL    H7138109   5.147   2.961   6.903  1.8669 -0.3196  1.9026
  210MOL    H7238110   5.444   2.975   6.849  1.7529 -0.4276  1.6817
  210MOL    H7338111   5.525   2.725   7.055 -1.2337 -0.7584 -1.0577
  210MOL    C7438112   5.387   3.087   7.015  0.3125  0.1002 -0.2343
  210MOL    C7538113   5.538   3.124   7.040  0.2009  0.1607 -0.0789
  210MOL    C7638114   5.565   3.145   7.185  0.7087  0.2698  0.2634
  210MOL    O7738115   5.476   3.156   7.263  0.0586  0.5426  0.0512
  210MOL    O7838116   5.694   3.152   7.219 -0.2849  0.2588  0.0126
  210MOL    H7938117   5.335   3.064   7.109  2.7528 -3.0616  0.3840
  210MOL    H8038118   5.337   3.176   6.976  1.0337  0.1918 -0.9460
  210MOL    H8138119   5.597   3.040   7.005  0.8591  0.8658 -0.6737
  210MOL    H8238120   5.704   3.136   7.312 -0.8808 -1.4529 -0.1918
  210MOL    C8338121   5.588   3.248   6.965 -0.0021  0.5060  0.1227
  210MOL    C8438122   5.562   3.253   6.810  0.3152  0.1527  0.3082
  210MOL    C8538123   5.669   3.172   6.727 -0.0289  0.5593  0.1714
  210MOL    O8638124   5.761   3.105   6.775  0.1367  0.2567 -0.2193
  210MOL    O8738125   5.638   3.176   6.595  0.3043 -0.4583 -0.0935
  210MOL    H8838126   5.690   3.270   6.997  0.1892 -1.6111  1.0756
  210MOL    H8938127   5.534   3.327   7.017  2.3686  1.3174  1.4770
  210MOL    H9038128   5.463   3.213   6.790  1.0568 -1.5573  0.0232
  210MOL    H9138129   5.690   3.122   6.538  0.1526 -1.4967  0.7356
  210MOL    C9238130   5.560   3.400   6.749 -0.2149 -0.1568 -0.5009
  210MOL    C9338131   5.446   3.488   6.806 -0.8444  0.6529 -0.3384
  210MOL    C9438132   5.313   3.452   6.750  0.0612  0.1730  0.5508
  210MOL    O9538133   5.293   3.397   6.647 -0.0057  0.5041  0.1929
  210MOL    O9638134   5.209   3.490   6.830  0.5640  0.3387 -0.1277
  210MOL    H9738135   5.532   3.395   6.643 -2.4121 -1.6571  0.1035
  210MOL    H9838136   5.656   3.448   6.767 -1.1125  1.4349  0.0792
  210MOL    H9938137   5.440   3.483   6.915  0.7147 -1.8869 -0.3453
  210MOL   H10038138   5.127   3.486   6.784  0.1043  1.3148  0.5999
  210MOL   C10138139   5.470   3.642   6.785 -0.3467  0.0700  0.4386
  210MOL   C10238140   5.593   3.694   6.873  0.2988  0.9086 -0.4842
  210MOL   C10338141   5.535   3.740   7.009 -0.4341 -0.7935 -0.1552
  210MOL   O10438142   5.411   3.740   7.035 -0.0510 -0.7108 -0.3490
  210MOL   O10538143   5.637   3.764   7.093  0.4921 -0.2770 -0.1269
  210MOL   H10638144   5.381   3.703   6.800 -1.4906 -0.8550 -2.2462
  210MOL   H10738145   5.491   3.667   6.681  1.2403 -0.7347  0.5449
  210MOL   H10838146   5.656   3.607   6.892  0.6251  0.8698 -1.6916
  210MOL   H10938147   5.593   3.770   7.177  0.1605 -0.6833 -0.2687
  210MOL   C11038148   5.675   3.802   6.810  0.6759 -0.0233  0.1968
  210MOL   C11138149   5.743   3.770   6.675  0.1569  0.6825 -0.5443
  210MOL   C11238150   5.880   3.705   6.686 -0.5100  0.0984  0.0891
  210MOL   O11338151   5.962   3.731   6.771  0.5670  0.1012 -0.5733
  210MOL   O11438152   5.910   3.619   6.589  0.3721  0.1089 -0.5435
  210MOL   H11538153   5.743   3.853   6.878  0.1477 -0.1528  0.8281
  210MOL   H11638154   5.594   3.876   6.801  0.5470 -0.2106 -0.2142
  210MOL   H11738155   5.686   3.694   6.621 -0.1920  0.5402  0.0207
  210MOL   H11838156   5.856   3.640   6.514 -0.0314  0.5699 -0.1279
  210MOL   C11938157   5.756   3.888   6.586 -0.2940  0.2280  0.7840
  210MOL   C12038158   5.638   3.917   6.494  0.5897 -0.5736  0.3116
  210MOL   C12138159   5.664   3.841   6.363  0.1016 -0.0757 -0.7097
  210MOL   O12238160   5.737   3.741   6.356  0.2099  0.4327 -0.0347
  210MOL   O12338161   5.587   3.890   6.263  0.5636  0.5049 -0.4171
  210MOL   H12438162   5.852   3.903   6.536  0.3200 -0.7337  1.6685
  210MOL   H12538163   5.751   3.968   6.660 -1.4839  0.3159  0.6214
  210MOL   H12638164   5.550   3.878   6.545  0.0175  1.5383  0.9979
  210MOL   H12738165   5.595   3.852   6.176 -1.6646 -0.4008 -0.2687
  210MOL   C12838166   5.603   4.072   6.487  0.2517 -0.3129 -0.1334
  210MOL   C12938167   5.701   4.176   6.432 -0.0019 -0.1686 -0.4171
  210MOL   C13038168   5.830   4.194   6.519 -0.8118 -0.6035 -0.0145
  210MOL   O13138169   5.837   4.247   6.631  0.2010 -0.0986  0.4727
  210MOL   O13238170   5.931   4.149   6.446  0.3586 -0.7054 -0.4301
  210MOL   H13338171   5.569   4.093   6.588 -0.5441 -0.3145 -0.4006
  210MOL   H13438172   5.507   4.085   6.437  0.8795 -3.8838 -2.4251
  210MOL   H13538173   5.733   4.138   6.335 -0.9291 -0.4382 -0.6175
  210MOL   H13638174   6.010   4.174   6.491  0.1745 -0.9316  0.0293
  210MOL   C13738175   5.634   4.312   6.408  0.1744  0.1313 -0.1096
  210MOL   C13838176   5.735   4.423   6.352 -0.2347 -0.1449 -0.1492
  210MOL   C13938177   5.696   4.561   6.407  0.2572 -0.0993  0.2327
  210MOL   O14038178   5.686   4.664   6.338 -0.3927 -1.2221 -0.5404
  210MOL   O14138179   5.686   4.556   6.540  0.0695 -0.5082  0.9026
  210MOL   H14238180   5.574   4.349   6.491  0.0181  2.1697 -1.1029
  210MOL   H14338181   5.552   4.302   6.337  1.7380  0.0491 -1.9555
  210MOL   H14438182   5.830   4.414   6.404 -1.1868 -0.0969  1.6506
  210MOL   H14538183   5.674   4.646   6.565 -1.4189 -0.5192  0.2741
  210MOL   C14638184   5.747   4.418   6.199  0.0115 -0.9454  0.2511
  210MOL   C14738185   5.846   4.315   6.131  0.1622  0.3078  0.0292
  210MOL   C14838186   5.992   4.358   6.160 -0.2823  0.3869  0.1625
  210MOL   O14938187   6.032   4.471   6.196 -0.2634  0.7368 -0.3361
  210MOL   O15038188   6.080   4.250   6.143 -0.0358 -0.3119 -0.3409
  210MOL   H15138189   5.763   4.520   6.163  0.8080 -0.3575  2.1899
  210MOL   H15238190   5.649   4.403   6.153 -0.3974 -1.0759  1.1562
  210MOL   H15338191   5.831   4.222   6.185  3.8593 -1.3004 -1.5337
  210MOL   H15438192   6.170   4.276   6.160  0.0357 -0.2333 -0.8178
  210MOL   C15538193   5.804   4.284   5.980 -0.0249  0.3834  0.8556
  210MOL   C15638194   5.876   4.168   5.905 -0.6084 -0.2617 -0.2819
  210MOL   C15738195   5.863   4.189   5.752  0.1865  0.2342  0.0701
  210MOL   O15838196   5.808   4.110   5.676 -0.6043  0.1094  0.5594
  210MOL   O15938197   5.920   4.307   5.719  0.3158  0.4350 -0.5338
  210MOL   H16038198   5.815   4.383   5.934 -1.3916  0.4696  0.6878
  210MOL   H16138199   5.697   4.273   5.992 -0.2761 -0.3545 -1.7043
  210MOL   H16238200   5.984   4.175   5.921 -0.7210  0.0731  0.3352
  210MOL   H16338201   5.924   4.327   5.627 -0.6565 -0.2964 -0.7375
  210MOL   C16438202   5.826   4.036   5.967 -0.3147  0.5113  0.2591
  210MOL   C16538203   5.915   3.918   5.945 -0.3063  0.7960 -0.8443
  210MOL   C16638204   5.838   3.782   5.941 -0.3505 -0.0293 -0.3114
  210MOL   O16738205   5.724   3.772   5.979 -0.0246 -0.5391 -0.0935
  210MOL   O16838206   5.917   3.695   5.881  0.5391 -0.3587  0.5056
  210MOL   H16938207   5.732   4.002   5.925 -0.1630 -1.3628  1.3994
  210MOL   H17038208   5.793   4.044   6.070 -2.2866 -1.3375 -0.1974
  210MOL   H17138209   5.947   3.927   5.841 -2.2118 -1.7207 -1.6992
  210MOL   H17238210   5.855   3.629   5.852 -1.9320  1.9059  0.4941
  210MOL   C17338211   6.045   3.909   6.033  0.7064  0.2530  0.0851
  210MOL   C17438212   6.025   3.889   6.183 -0.9397  0.1700 -0.0735
  210MOL   C17538213   6.157   3.896   6.256  0.0690 -0.1702 -0.5705
  210MOL   O17638214   6.237   3.991   6.234 -0.3364  0.0274 -0.3998
  210MOL   O17738215   6.180   3.791   6.337  1.0135  1.0629 -0.5412
  210MOL   H17838216   6.106   3.998   6.016  0.5550  0.4858  0.7665
  210MOL   H17938217   6.106   3.822   6.009  0.1412 -0.1857  0.2455
  210MOL   H18038218   5.970   3.975   6.222  0.1891  0.5289  0.7524
  210MOL   H18138219   6.265   3.795   6.377  0.7120 -2.3786  0.5694
  210MOL   H18238220   5.976   3.794   6.207 -1.2065 -0.1431 -1.7879
  211MOL     C138221   3.001   2.926   5.706 -0.1501 -0.3142  0.2663
  211MOL     C238222   3.149   2.871   5.705  0.2226  0.3073 -0.2930
  211MOL     C338223   3.238   2.996   5.713  0.8318  0.0664  0.1806
  211MOL     O438224   3.328   3.026   5.637 -0.3440 -0.3269 -0.2630
  211MOL     O538225   3.221   3.055   5.833  0.8139  0.2905 -0.6289
  211MOL     H638226   2.939   2.842   5.675  0.0378 -0.5878  0.6252
  211MOL     H738227   2.977   2.957   5.807  0.1432 -1.6891  0.7681
  211MOL     H838228   3.170   2.803   5.788  3.1185  3.4274  1.6404
  211MOL     H938229   3.250   3.144   5.844 -0.1666  0.4387  0.8228
  211MOL    H1038230   2.986   3.011   5.639  0.7444 -0.9487 -0.7584
  211MOL    C1138231   3.170   2.789   5.569 -0.4645 -0.4322  0.2152
  211MOL    C1238232   3.286   2.684   5.551  0.2563  0.5602  0.2976
  211MOL    C1338233   3.338   2.694   5.405  0.2731 -0.6661 -0.1046
  211MOL    O1438234   3.455   2.699   5.378 -0.0772  0.1892 -0.1551
  211MOL    O1538235   3.239   2.712   5.312  0.1644 -0.0107  0.0875
  211MOL    H1638236   3.170   2.866   5.492 -0.9488  2.7197  3.2369
  211MOL    H1738237   3.074   2.742   5.546 -2.1909  1.8209  2.3899
  211MOL    H1838238   3.370   2.718   5.611 -0.3369  1.7862  0.4417
  211MOL    H1938239   3.291   2.740   5.238 -2.8728 -0.4439 -2.3066
  211MOL    C2038240   3.253   2.535   5.584  0.4695 -0.1782 -0.6229
  211MOL    C2138241   3.376   2.457   5.632 -0.4149  0.5499 -0.4999
  211MOL    C2238242   3.463   2.413   5.514  0.1550 -0.8682 -0.1230
  211MOL    O2338243   3.583   2.417   5.533  0.1741 -0.1671  0.0188
  211MOL    O2438244   3.397   2.362   5.408  0.7304  0.4780 -0.5844
  211MOL    H2538245   3.206   2.498   5.493 -1.3197  1.2148 -0.2959
  211MOL    H2638246   3.178   2.535   5.663 -0.5098 -1.0907 -1.5280
  211MOL    H2738247   3.430   2.523   5.700  0.4764  0.6156 -1.2613
  211MOL    H2838248   3.447   2.325   5.337 -0.0769 -1.2392 -0.2818
  211MOL    C2938249   3.333   2.326   5.709 -0.1329 -0.1085  0.3409
  211MOL    C3038250   3.276   2.335   5.852  0.5377 -0.3777 -0.1991
  211MOL    C3138251   3.374   2.404   5.946  0.1162 -0.1539 -0.0352
  211MOL    O3238252   3.377   2.527   5.950  0.5305 -0.3230 -0.1144
  211MOL    O3338253   3.465   2.323   6.006 -0.0215 -0.1225 -0.1322
  211MOL    H3438254   3.421   2.264   5.719 -1.3805 -1.9792 -0.1523
  211MOL    H3538255   3.266   2.271   5.643 -2.0835  1.3489  1.0364
  211MOL    H3638256   3.188   2.398   5.841  1.3339  0.5240 -1.5739
  211MOL    H3738257   3.531   2.371   6.054  0.8844 -0.8757 -0.6181
  211MOL    C3838258   3.223   2.187   5.892  0.8330 -0.0540 -0.6572
  211MOL    C3938259   3.146   2.188   6.034  0.1891  0.3620  0.3493
  211MOL    C4038260   3.152   2.047   6.099  0.3722  0.1632 -0.7511
  211MOL    O4138261   3.095   1.949   6.051  0.5965 -0.1843  0.0477
  211MOL    O4238262   3.220   2.042   6.217 -0.8675 -0.1414  0.6302
  211MOL    H4338263   3.308   2.118   5.882 -1.1363 -2.7100  0.3810
  211MOL    H4438264   3.164   2.149   5.808  0.0685 -0.6560  0.1488
  211MOL    H4538265   3.204   2.251   6.102 -0.0577  0.6154  0.3275
  211MOL    H4638266   3.261   2.118   6.254  1.7737 -0.7999 -0.7927
  211MOL    C4738267   3.002   2.250   6.037 -0.2187  0.1942  1.0773
  211MOL    C4838268   2.931   2.281   6.174  0.0558  0.2326 -0.1864
  211MOL    C4938269   2.871   2.156   6.238  0.5923  1.1901  0.5815
  211MOL    O5038270   2.881   2.129   6.356  0.6172 -0.3568 -0.2994
  211MOL    O5138271   2.816   2.079   6.143  0.6505 -0.1325 -0.4012
  211MOL    H5238272   2.937   2.188   5.975  0.7128  0.5519 -0.2698
  211MOL    H5338273   3.011   2.337   5.971  0.8981  0.2065  1.2440
  211MOL    H5438274   2.997   2.310   6.255 -2.2854  1.3300  1.3639
  211MOL    H5538275   2.765   2.008   6.180  1.7552 -0.2710  0.8977
  211MOL    C5638276   2.809   2.380   6.165 -0.6311  0.2252 -0.0835
  211MOL    C5738277   2.851   2.533   6.182 -0.4423 -0.6199 -0.0541
  211MOL    C5838278   2.853   2.573   6.333 -0.4527 -0.2820  0.3214
  211MOL    O5938279   2.807   2.674   6.385  0.2624  0.8711 -0.1263
  211MOL    O6038280   2.907   2.472   6.405 -0.4089  0.1008  0.0831
  211MOL    H6138281   2.729   2.348   6.232  1.6403 -2.7775  1.3504
  211MOL    H6238282   2.771   2.363   6.064 -1.7685 -1.2240  0.5628
  211MOL    H6338283   2.951   2.531   6.139 -0.9515 -3.1562 -1.2011
  211MOL    H6438284   2.891   2.491   6.497 -0.2954  1.8963 -0.2432
  211MOL    C6538285   2.766   2.633   6.099 -0.0310 -0.2900  1.0137
  211MOL    C6638286   2.759   2.596   5.944 -0.0227  0.3199 -0.6504
  211MOL    C6738287   2.901   2.601   5.879  0.1381  0.7425  0.6088
  211MOL    O6838288   2.994   2.663   5.920  0.5179  0.3491  0.1489
  211MOL    O6938289   2.903   2.519   5.761 -0.1026  0.6560  0.3454
  211MOL    H7038290   2.804   2.733   6.119  1.6288 -0.5695 -0.5824
  211MOL    H7138291   2.664   2.632   6.137 -0.4709 -0.3951 -0.1438
  211MOL    H7238292   2.722   2.497   5.921 -0.1797  0.7656 -2.3895
  211MOL    H7338293   2.824   2.473   5.738  0.2977  0.4081 -0.5435
  211MOL    C7438294   2.676   2.700   5.862 -0.5404  0.4721  0.7336
  211MOL    C7538295   2.536   2.744   5.907  0.7700  0.3977 -0.1282
  211MOL    C7638296   2.420   2.654   5.858 -0.3860  0.5076 -0.0096
  211MOL    O7738297   2.343   2.684   5.768  0.0920 -0.0237 -0.6104
  211MOL    O7838298   2.421   2.532   5.920  0.3527  0.1825  0.1780
  211MOL    H7938299   2.667   2.663   5.760 -1.1308 -1.0220  1.3005
  211MOL    H8038300   2.724   2.797   5.854  2.3273 -0.9852 -0.0471
  211MOL    H8138301   2.539   2.742   6.016  1.8230 -1.9820 -0.1659
  211MOL    H8238302   2.362   2.481   5.867 -0.1195  0.0702  0.8106
  211MOL    C8338303   2.501   2.890   5.862 -0.1220  0.3099  0.3393
  211MOL    C8438304   2.579   3.004   5.933 -0.1614 -0.3553 -0.3842
  211MOL    C8538305   2.542   3.025   6.080 -1.3175  0.2974  0.1288
  211MOL    O8638306   2.432   2.996   6.127  0.1910 -0.2482 -0.7367
  211MOL    O8738307   2.643   3.083   6.144  0.2847  0.0364  0.2904
  211MOL    H8838308   2.398   2.916   5.886 -0.7206 -0.7642 -0.9863
  211MOL    H8938309   2.509   2.898   5.753 -0.1929  2.3943  0.4652
  211MOL    H9038310   2.687   2.985   5.927 -0.0577  0.6008 -1.6427
  211MOL    H9138311   2.642   3.075   6.239 -0.7751  1.6458  0.4255
  211MOL    C9238312   2.542   3.137   5.856 -0.0436  0.1143 -0.0522
  211MOL    C9338313   2.631   3.260   5.893  0.2804 -0.5868 -0.1921
  211MOL    C9438314   2.553   3.390   5.871  0.1306  0.1408  0.1387
  211MOL    O9538315   2.496   3.413   5.761  0.7253  0.0327 -0.1011
  211MOL    O9638316   2.560   3.484   5.967 -0.2540  0.2704 -0.1507
  211MOL    H9738317   2.443   3.157   5.896 -0.3066 -2.2585  0.5784
  211MOL    H9838318   2.523   3.126   5.750  0.1701 -2.4442  0.1416
  211MOL    H9938319   2.666   3.264   5.996 -0.3922  1.1194 -0.0077
  211MOL   H10038320   2.514   3.562   5.939 -1.1970  0.1286  0.9737
  211MOL   C10138321   2.761   3.258   5.809  0.1280 -0.2628  0.1582
  211MOL   C10238322   2.882   3.340   5.877 -0.5089  0.8837 -0.2834
  211MOL   C10338323   2.973   3.394   5.771 -0.2307 -0.2549  0.1212
  211MOL   O10438324   3.079   3.346   5.738  0.0760  0.1730 -0.2662
  211MOL   O10538325   2.919   3.494   5.695 -0.5286  0.3699  0.3581
  211MOL   H10638326   2.731   3.296   5.711 -0.6564 -0.1274  0.4544
  211MOL   H10738327   2.801   3.157   5.798 -1.2904 -0.6287 -1.8713
  211MOL   H10838328   2.844   3.422   5.937  2.1413  2.2327 -0.4007
  211MOL   H10938329   2.981   3.539   5.640  0.2755 -1.5968 -0.3849
  211MOL   C11038330   2.956   3.240   5.971 -0.1817  0.3053  0.1123
  211MOL   C11138331   3.046   3.271   6.097 -0.1636  0.2332  0.2120
  211MOL   C11238332   3.182   3.331   6.062  0.0521 -0.0877 -0.1046
  211MOL   O11338333   3.254   3.286   5.978 -0.8834  0.0568  0.5135
  211MOL   O11438334   3.220   3.431   6.150  0.3605 -0.2561  0.0594
  211MOL   H11538335   3.014   3.164   5.919 -0.9989 -1.9196  2.3451
  211MOL   H11638336   2.875   3.182   6.016 -0.6144  1.1137  0.3893
  211MOL   H11738337   2.992   3.342   6.160 -0.0279 -0.7900  1.5103
  211MOL   H11838338   3.309   3.460   6.138 -0.0821  1.6957  1.1889
  211MOL   C11938339   3.062   3.153   6.205  0.6427  0.0687 -0.4819
  211MOL   C12038340   3.147   3.033   6.164  0.5948 -0.2048  0.1227
  211MOL   C12138341   3.070   2.924   6.088 -0.2704 -0.1584  0.7297
  211MOL   O12238342   2.950   2.932   6.063 -0.1485  0.0177 -0.4095
  211MOL   O12338343   3.158   2.832   6.045 -0.7277  0.2751  0.1223
  211MOL   H12438344   2.964   3.114   6.235 -0.4849  1.5381 -2.1271
  211MOL   H12538345   3.110   3.203   6.290  1.1016 -2.6313  0.9006
  211MOL   H12638346   3.233   3.064   6.104  0.5943 -1.1774 -0.3815
  211MOL   H12738347   3.114   2.769   5.990 -0.6240  1.0864 -0.8969
  211MOL   C12838348   3.206   2.963   6.294 -0.2088 -0.2629 -0.7003
  211MOL   C12938349   3.112   2.874   6.386  0.0487  0.4075  0.2917
  211MOL   C13038350   3.004   2.954   6.469 -0.8559 -0.7526  0.2807
  211MOL   O13138351   2.885   2.925   6.469 -0.0525  0.0827  0.5420
  211MOL   O13238352   3.069   3.055   6.529 -0.1026  0.3216 -0.5160
  211MOL   H13338353   3.255   3.030   6.365  0.3441 -0.3235 -1.0245
  211MOL   H13438354   3.286   2.898   6.260 -1.6153 -1.6531 -1.4107
  211MOL   H13538355   3.053   2.803   6.328  2.1302 -1.6930  0.6956
  211MOL   H13638356   3.001   3.097   6.580 -0.7281 -1.0572 -0.1849
  211MOL   C13738357   3.187   2.779   6.482 -0.2725 -0.1949  0.2376
  211MOL   C13838358   3.291   2.675   6.429 -0.3816 -0.3967 -0.3136
  211MOL   C13938359   3.273   2.635   6.281 -0.2973  0.3778  0.5566
  211MOL   O14038360   3.177   2.581   6.232 -0.2881 -0.3994 -0.4822
  211MOL   O14138361   3.389   2.667   6.214  0.5050 -0.0808  0.0512
  211MOL   H14238362   3.114   2.728   6.545 -0.7745 -0.6541 -0.7095
  211MOL   H14338363   3.238   2.838   6.558 -2.6165  0.5594  1.2731
  211MOL   H14438364   3.393   2.711   6.442  0.2087 -1.7162 -1.2136
  211MOL   H14538365   3.387   2.645   6.122  2.2923  0.5265 -0.1479
  211MOL   C14638366   3.283   2.535   6.507  0.0372  0.0625 -0.2970
  211MOL   C14738367   3.390   2.432   6.477 -0.0118  0.1546 -0.2021
  211MOL   C14838368   3.340   2.291   6.499 -0.3717  0.3467  0.1670
  211MOL   O14938369   3.323   2.220   6.401  1.2367  0.2251  0.8015
  211MOL   O15038370   3.319   2.259   6.628  0.4205  0.3712 -0.0359
  211MOL   H15138371   3.181   2.503   6.485  0.5392 -1.7101 -0.0693
  211MOL   H15238372   3.277   2.560   6.613 -3.9746 -1.8463  0.0036
  211MOL   H15338373   3.418   2.437   6.371  4.2493  1.1213  0.8416
  211MOL   H15438374   3.288   2.170   6.633  1.0751  0.2028  1.1617
  211MOL   C15538375   3.517   2.457   6.566  0.3317 -0.3882  0.6860
  211MOL   C15638376   3.646   2.388   6.521  0.7491 -0.1569 -0.0290
  211MOL   C15738377   3.701   2.452   6.396 -0.0227 -0.5479  0.0653
  211MOL   O15838378   3.704   2.397   6.289 -0.4668  0.5783 -0.2910
  211MOL   O15938379   3.741   2.581   6.419 -0.1519 -0.0995 -0.1946
  211MOL   H16038380   3.505   2.425   6.669  0.3006 -1.3990  0.3725
  211MOL   H16138381   3.537   2.564   6.557 -0.3323 -0.4409 -2.0677
  211MOL   H16238382   3.718   2.415   6.598 -0.3145 -0.2552  1.0176
  211MOL   H16338383   3.751   2.628   6.337  2.9375 -0.4264 -0.0506
  211MOL   C16438384   3.642   2.233   6.513 -0.1226  0.3359  0.4540
  211MOL   C16538385   3.760   2.149   6.567  0.3322  0.4865  0.0400
  211MOL   C16638386   3.756   2.150   6.715 -0.1684 -0.4256 -0.3710
  211MOL   O16738387   3.676   2.213   6.778 -0.4560 -0.4816  0.3088
  211MOL   O16838388   3.852   2.074   6.767 -0.2263  0.3516  0.0204
  211MOL   H16938389   3.618   2.199   6.413 -0.9812 -2.4690  1.5476
  211MOL   H17038390   3.554   2.187   6.560  0.2522 -2.7774 -1.7411
  211MOL   H17138391   3.740   2.046   6.536 -0.1818  0.2740  1.0601
  211MOL   H17238392   3.866   2.083   6.860  0.2786  1.5250 -0.1613
  211MOL   C17338393   3.892   2.189   6.512  0.3764 -1.1396 -0.2926
  211MOL   C17438394   4.021   2.104   6.533  0.3488  0.1101  0.0464
  211MOL   C17538395   4.137   2.143   6.435  0.3371 -0.5298 -0.0406
  211MOL   O17638396   4.226   2.214   6.473  0.0103  0.5970 -0.3220
  211MOL   O17738397   4.118   2.090   6.314 -0.4538  0.6737  0.0220
  211MOL   H17838398   3.918   2.286   6.555 -2.2774  0.8531 -2.9496
  211MOL   H17938399   3.878   2.205   6.405 -0.7729  0.2425  0.0562
  211MOL   H18038400   4.053   2.126   6.635  2.1087  0.6121 -0.5927
  211MOL   H18138401   4.046   2.030   6.301  1.5376 -2.2678  1.9890
  211MOL   H18238402   3.995   2.000   6.513  0.4441  0.0467  0.2538
  212MOL     C138403   6.662   3.044   6.325  0.2403 -0.2500 -0.3591
  212MOL     C238404   6.578   2.969   6.432 -0.7333  0.3994  0.3998
  212MOL     C338405   6.509   2.845   6.372 -0.3333  0.1375  0.7848
  212MOL     O438406   6.523   2.731   6.420  0.3015 -0.6192 -0.1477
  212MOL     O538407   6.447   2.863   6.256  0.0622  0.3211 -0.2798
  212MOL     H638408   6.749   3.085   6.377  1.3680 -2.3233 -0.5529
  212MOL     H738409   6.691   2.974   6.246  0.2277 -0.9199  0.2243
  212MOL     H838410   6.651   2.937   6.505 -1.1067 -1.1113  0.1264
  212MOL     H938411   6.395   2.788   6.231 -0.7514  0.9653 -0.5720
  212MOL    H1038412   6.606   3.120   6.271 -0.7184  0.9935  2.2954
  212MOL    C1138413   6.474   3.050   6.509 -1.7143 -0.4741  0.3701
  212MOL    C1238414   6.529   3.184   6.567 -0.4025  0.4216  0.0760
  212MOL    C1338415   6.644   3.164   6.667 -0.3108 -0.5000 -0.0369
  212MOL    O1438416   6.739   3.236   6.674  0.2160  0.5282  0.0160
  212MOL    O1538417   6.620   3.064   6.749  0.5291 -0.1729 -0.0485
  212MOL    H1638418   6.419   2.988   6.580 -1.6645 -1.4625 -0.4478
  212MOL    H1738419   6.399   3.086   6.439 -1.9467  0.7771  1.2242
  212MOL    H1838420   6.571   3.238   6.482 -2.0684  0.8554 -0.5020
  212MOL    H1938421   6.697   3.031   6.793  0.8228  1.1926  0.4766
  212MOL    C2038422   6.408   3.258   6.634 -0.9474 -0.3856  0.3391
  212MOL    C2138423   6.370   3.401   6.590 -0.3295  0.1825 -0.0992
  212MOL    C2238424   6.338   3.426   6.443  0.0643  0.1318 -0.1233
  212MOL    O2338425   6.380   3.510   6.369  0.1322  0.0121  0.0074
  212MOL    O2438426   6.250   3.329   6.401  0.1921  0.2152 -0.0603
  212MOL    H2538427   6.427   3.263   6.741  1.5291  1.3805 -0.1222
  212MOL    H2638428   6.314   3.205   6.625 -2.1246  1.9612 -2.0693
  212MOL    H2738429   6.269   3.412   6.631 -0.5441 -1.6086 -0.1120
  212MOL    H2838430   6.220   3.343   6.313 -0.7526  1.3980  0.4186
  212MOL    C2938431   6.471   3.509   6.649  0.2355  0.2386  0.3761
  212MOL    C3038432   6.422   3.585   6.772  0.2297  0.4020  0.5675
  212MOL    C3138433   6.319   3.675   6.725  0.5027 -0.2303  0.2508
  212MOL    O3238434   6.335   3.751   6.631  0.3567  0.1565 -0.1910
  212MOL    O3338435   6.206   3.655   6.791 -0.2693 -0.6319  0.4130
  212MOL    H3438436   6.508   3.584   6.579  0.0068  0.2017  0.2126
  212MOL    H3538437   6.569   3.465   6.664  0.3786 -0.0115 -1.2322
  212MOL    H3638438   6.380   3.514   6.843  0.3566 -0.3089 -0.0623
  212MOL    H3738439   6.136   3.716   6.775  1.2501  0.8358 -0.7624
  212MOL    C3838440   6.530   3.673   6.845  0.7242 -0.5182 -0.6807
  212MOL    C3938441   6.657   3.610   6.902  0.3617  0.4565 -0.6588
  212MOL    C4038442   6.635   3.548   7.041 -0.8915  0.1481 -0.8084
  212MOL    O4138443   6.682   3.594   7.145  0.0566 -0.1433 -0.5992
  212MOL    O4238444   6.544   3.456   7.043 -0.3572  0.8556 -0.1358
  212MOL    H4338445   6.493   3.735   6.927  1.0514  2.5575 -2.7689
  212MOL    H4438446   6.561   3.758   6.783 -1.9745  0.5792 -0.6178
  212MOL    H4538447   6.680   3.515   6.852 -0.6476 -0.1082 -0.0791
  212MOL    H4638448   6.513   3.438   7.130  0.9825  0.7203  0.3182
  212MOL    C4738449   6.777   3.715   6.899  0.5801  0.4065  0.0876
  212MOL    C4838450   6.834   3.733   6.756  0.5308  0.0433  0.2636
  212MOL    C4938451   6.945   3.629   6.735  0.3350 -0.8086  0.3573
  212MOL    O5038452   7.059   3.644   6.689  0.5263  0.1208 -1.0281
  212MOL    O5138453   6.914   3.510   6.793  0.4684 -0.4505  0.3681
  212MOL    H5238454   6.861   3.696   6.966  1.1671  0.9299 -0.4934
  212MOL    H5338455   6.733   3.806   6.939  0.4086  0.7219 -0.8104
  212MOL    H5438456   6.748   3.713   6.693  0.0311  1.3433  0.5046
  212MOL    H5538457   6.985   3.452   6.816 -0.2342 -1.2082  0.6562
  212MOL    C5638458   6.887   3.878   6.730  0.0685 -0.3655  0.4661
  212MOL    C5738459   6.900   3.922   6.579  0.6467 -0.1144  0.5568
  212MOL    C5838460   7.038   3.983   6.546  0.1726  0.6714  0.0867
  212MOL    O5938461   7.115   3.918   6.483  0.1122  0.0759  0.0414
  212MOL    O6038462   7.062   4.114   6.589  0.0965 -0.2234  0.1481
  212MOL    H6138463   6.976   3.903   6.787 -0.0312 -0.4787  0.6739
  212MOL    H6238464   6.824   3.950   6.783  0.5096 -0.1392  0.6814
  212MOL    H6338465   6.892   3.836   6.513  0.4577  1.1994 -1.1482
  212MOL    H6438466   7.155   4.121   6.575  0.3026  1.0763  1.9693
  212MOL    C6538467   6.775   4.011   6.534 -0.3694  0.1231 -0.3068
  212MOL    C6638468   6.743   4.034   6.387  0.3085  0.5328  0.0808
  212MOL    C6738469   6.702   3.906   6.319 -0.0420 -0.1270 -0.3259
  212MOL    O6838470   6.772   3.838   6.243 -0.5982  0.2743  0.1454
  212MOL    O6938471   6.575   3.866   6.353 -0.1779 -0.2840 -0.4185
  212MOL    H7038472   6.785   4.113   6.571 -0.4176  0.2771 -0.7178
  212MOL    H7138473   6.691   3.968   6.589 -0.2703  0.5927  0.2222
  212MOL    H7238474   6.657   4.097   6.407 -0.6536 -0.6048 -0.4016
  212MOL    H7338475   6.554   3.798   6.292 -0.8892  0.4336 -0.9915
  212MOL    C7438476   6.837   4.131   6.309  0.0929 -0.0350  0.0272
  212MOL    C7538477   6.772   4.213   6.195  1.4276  0.1702  0.6260
  212MOL    C7638478   6.888   4.249   6.101 -0.0591 -0.4739 -0.3028
  212MOL    O7738479   6.891   4.237   5.975  0.1218  0.1170  0.2509
  212MOL    O7838480   7.001   4.299   6.161  0.1171  0.2930  0.4718
  212MOL    H7938481   6.915   4.067   6.266 -1.2189 -0.8292 -1.2340
  212MOL    H8038482   6.884   4.197   6.382 -0.4869  1.8951 -1.3039
  212MOL    H8138483   6.703   4.151   6.137  1.7358 -0.3516  0.8164
  212MOL    H8238484   7.063   4.301   6.090 -1.5519  0.5497 -1.0119
  212MOL    C8338485   6.691   4.334   6.245 -0.6847  0.2958 -1.1767
  212MOL    C8438486   6.554   4.359   6.189 -0.1425 -0.0331 -0.1313
  212MOL    C8538487   6.444   4.263   6.239 -0.1513  0.2748 -0.4078
  212MOL    O8638488   6.338   4.306   6.281 -0.0395 -0.0217 -0.6058
  212MOL    O8738489   6.472   4.129   6.222 -0.2649  0.4915  0.1522
  212MOL    H8838490   6.763   4.416   6.246 -0.5999  0.2997  2.8018
  212MOL    H8938491   6.672   4.316   6.351  1.3011  1.6173 -0.5726
  212MOL    H9038492   6.524   4.453   6.234 -2.6128 -1.4693  1.3619
  212MOL    H9138493   6.389   4.086   6.234  0.5841 -1.6595 -1.3342
  212MOL    C9238494   6.545   4.384   6.039  0.0163 -0.0811  0.3244
  212MOL    C9338495   6.576   4.533   6.004  0.5009 -0.0294 -0.2577
  212MOL    C9438496   6.450   4.613   6.022 -0.1301  0.2982 -0.2753
  212MOL    O9538497   6.357   4.611   5.940 -0.4930 -0.4921 -0.1419
  212MOL    O9638498   6.446   4.675   6.142 -0.0192 -0.2818  0.1442
  212MOL    H9738499   6.442   4.362   6.011  0.0965 -2.2115  1.5998
  212MOL    H9838500   6.600   4.311   5.980 -3.1911 -2.0340 -0.3776
  212MOL    H9938501   6.645   4.571   6.079  0.1166 -0.6222  0.3969
  212MOL   H10038502   6.360   4.713   6.149  0.4302  0.6725  0.5855
  212MOL   C10138503   6.624   4.554   5.850  0.0134  0.1158 -0.8842
  212MOL   C10238504   6.774   4.559   5.827 -0.1364  0.2174 -0.3138
  212MOL   C10338505   6.828   4.676   5.914  0.1043 -0.5386 -0.1340
  212MOL   O10438506   6.901   4.655   6.011  0.1588  0.0631 -0.1113
  212MOL   O10538507   6.775   4.792   5.868  0.2627  0.2583  0.7910
  212MOL   H10638508   6.579   4.645   5.811  2.4509  1.5622 -0.4431
  212MOL   H10738509   6.580   4.477   5.788  0.0234 -0.5960 -0.0148
  212MOL   H10838510   6.819   4.466   5.863  2.5994  2.0296  1.1635
  212MOL   H10938511   6.809   4.869   5.910  2.4854 -0.6811  0.8217
  212MOL   C11038512   6.802   4.575   5.674 -0.0017  0.0376  0.6688
  212MOL   C11138513   6.792   4.442   5.599 -0.5521  0.4304  0.5190
  212MOL   C11238514   6.890   4.343   5.651  0.2780  1.0423  1.1412
  212MOL   O11338515   7.010   4.362   5.668  0.1900 -0.6033  0.1223
  212MOL   O11438516   6.838   4.213   5.656  0.2813 -0.0456  0.2258
  212MOL   H11538517   6.884   4.645   5.657  0.7579 -0.7854  0.8839
  212MOL   H11638518   6.722   4.639   5.638  0.4622 -0.6266 -1.6578
  212MOL   H11738519   6.690   4.407   5.615 -0.5555  0.1352 -0.1434
  212MOL   H11838520   6.900   4.146   5.678  2.2417  1.7496  0.3599
  212MOL   C11938521   6.792   4.467   5.449 -0.6148 -0.3676 -0.0226
  212MOL   C12038522   6.708   4.360   5.357 -0.3020  0.0213 -0.1994
  212MOL   C12138523   6.565   4.347   5.413 -0.2204  0.8497  0.2557
  212MOL   O12238524   6.510   4.236   5.407  0.2219  0.1594 -0.3324
  212MOL   O12338525   6.502   4.454   5.463  0.4227  0.5549  0.3836
  212MOL   H12438526   6.896   4.469   5.416 -0.3794  1.9076  0.7965
  212MOL   H12538527   6.762   4.569   5.429 -1.1724 -0.5719 -0.2413
  212MOL   H12638528   6.703   4.392   5.253  0.4275 -0.8299 -0.5024
  212MOL   H12738529   6.412   4.431   5.482  0.2928  0.3851 -0.4127
  212MOL   C12838530   6.785   4.225   5.338  0.0383  1.2532 -0.8422
  212MOL   C12938531   6.910   4.229   5.245 -0.7792  0.5452  0.1583
  212MOL   C13038532   6.874   4.227   5.095 -0.1500  0.5110  0.8679
  212MOL   O13138533   6.786   4.161   5.046  1.0427 -0.3225  0.6602
  212MOL   O13238534   6.946   4.313   5.025  0.1876  0.1134 -0.0940
  212MOL   H13338535   6.713   4.153   5.299 -1.1253  2.1755 -0.4270
  212MOL   H13438536   6.802   4.187   5.439 -0.1003  1.8064 -0.6070
  212MOL   H13538537   6.959   4.321   5.274 -1.3151  0.8383  0.1439
  212MOL   H13638538   6.930   4.317   4.932  1.5772 -0.5480 -0.3678
  212MOL   C13738539   7.001   4.112   5.278  0.0121 -0.2787 -1.1297
  212MOL   C13838540   7.153   4.132   5.246 -0.1301 -0.6023 -0.5211
  212MOL   C13938541   7.194   4.131   5.099 -0.0001 -0.3272  0.1443
  212MOL   O14038542   7.247   4.217   5.031 -0.3499 -0.2989 -0.3330
  212MOL   O14138543   7.153   4.010   5.050 -0.2535  0.0928  0.4446
  212MOL   H14238544   6.970   4.018   5.231 -2.4240  1.6039 -3.4232
  212MOL   H14338545   6.985   4.091   5.383  0.4356 -3.1941 -1.6031
  212MOL   H14438546   7.161   4.232   5.287 -0.6165 -0.6349 -0.3420
  212MOL   H14538547   7.148   4.014   4.956 -0.8928  0.2962  0.4857
  212MOL   C14638548   7.245   4.037   5.328 -0.0398  0.1415  0.2474
  212MOL   C14738549   7.356   4.094   5.417 -0.7003  0.2659  0.2169
  212MOL   C14838550   7.306   4.183   5.535  0.0835  0.2761  0.8342
  212MOL   O14938551   7.379   4.210   5.630  0.9361 -0.2208 -0.2071
  212MOL   O15038552   7.174   4.208   5.526  0.4014 -0.3985  0.3016
  212MOL   H15138553   7.281   3.947   5.277  1.3797 -0.3793  2.0851
  212MOL   H15238554   7.180   3.986   5.399  0.1366 -0.9127 -0.3341
  212MOL   H15338555   7.405   4.010   5.466 -2.5710 -0.2231  1.3050
  212MOL   H15438556   7.154   4.251   5.607  0.2229 -2.0781  1.1709
  212MOL   C15538557   7.452   4.179   5.333  0.4811 -0.2105 -0.5033
  212MOL   C15638558   7.557   4.100   5.254 -0.9008  0.1784  0.5515
  212MOL   C15738559   7.641   4.006   5.339  0.4242  0.3117 -0.7128
  212MOL   O15838560   7.648   4.008   5.464 -0.1757 -0.1748  0.2415
  212MOL   O15938561   7.713   3.921   5.260 -0.1491  0.0947 -0.4692
  212MOL   H16038562   7.510   4.236   5.406  1.3713 -1.7125 -0.0199
  212MOL   H16138563   7.398   4.260   5.283  0.4422  0.8594  1.2429
  212MOL   H16238564   7.505   4.030   5.188 -0.0564  2.1308 -2.3114
  212MOL   H16338565   7.748   3.854   5.316 -1.0952 -0.5337 -0.6224
  212MOL   C16438566   7.633   4.203   5.168  0.1109  0.2149  0.5209
  212MOL   C16538567   7.677   4.167   5.018 -0.7556  0.1953  0.5257
  212MOL   C16638568   7.830   4.134   5.008  0.1471  0.2170  0.3436
  212MOL   O16738569   0.063   4.168   5.092  0.3207 -0.4287  0.4357
  212MOL   O16838570   7.852   4.071   4.890  0.0923 -0.0364  0.2167
  212MOL   H16938571   7.700   4.255   5.236  1.2350 -1.8306  1.0286
  212MOL   H17038572   7.569   4.291   5.165  2.7605  2.2133  0.7686
  212MOL   H17138573   7.620   4.084   4.978  0.5149 -0.7180  0.5739
  212MOL   H17238574   0.090   4.066   4.864  0.5597  1.9390  1.3295
  212MOL   C17338575   7.652   4.290   4.926 -0.2504 -0.1330 -0.2653
  212MOL   C17438576   7.749   4.409   4.924 -0.4717  0.7663  0.0808
  212MOL   C17538577   7.696   4.551   4.891 -0.0145  0.2831 -0.4518
  212MOL   O17638578   7.778   4.643   4.893 -0.1114 -0.5506  0.1981
  212MOL   O17738579   7.566   4.556   4.860 -0.3918 -0.0868  0.6300
  212MOL   H17838580   7.557   4.336   4.954  0.7479  2.4650 -0.9237
  212MOL   H17938581   7.643   4.256   4.823  0.4121 -0.6803 -0.1377
  212MOL   H18038582   7.804   4.407   5.018 -1.9938 -0.9699  0.9637
  212MOL   H18138583   7.536   4.645   4.860 -1.6318 -0.4822 -0.8394
  212MOL   H18238584   7.815   4.376   4.844 -0.6835 -0.1379  0.2748
  213MOL     C138585   6.060   1.787   3.779  0.1767 -0.2190 -0.4956
  213MOL     C238586   6.162   1.853   3.694 -0.3287 -0.9791  0.0540
  213MOL     C338587   6.204   1.753   3.581  0.0441 -0.4446 -0.0536
  213MOL     O438588   6.168   1.635   3.579  0.0655  0.0076 -0.6228
  213MOL     O538589   6.291   1.804   3.492  0.0528  0.8156  0.0499
  213MOL     H638590   6.103   1.708   3.841 -0.7154 -0.1421  0.2349
  213MOL     H738591   6.005   1.851   3.847  0.3826  0.2139 -0.7341
  213MOL     H838592   6.121   1.942   3.646 -0.7351 -1.2220 -0.0446
  213MOL     H938593   6.311   1.734   3.432 -0.3458  1.5629 -0.9611
  213MOL    H1038594   5.977   1.741   3.725  1.7762 -1.4046 -2.0166
  213MOL    C1138595   6.283   1.905   3.771 -0.0445 -0.0913  0.1260
  213MOL    C1238596   6.375   2.016   3.706 -0.0044  0.2604  0.2075
  213MOL    C1338597   6.522   1.964   3.709 -0.2462 -0.6832  0.4230
  213MOL    O1438598   6.597   1.949   3.612  0.2585 -0.3249 -0.2532
  213MOL    O1538599   6.564   1.956   3.834  0.1097 -0.0186 -0.1563
  213MOL    H1638600   6.340   1.820   3.808  0.5638  0.0091 -0.5604
  213MOL    H1738601   6.244   1.946   3.864  0.9422 -0.2247  0.6039
  213MOL    H1838602   6.343   2.014   3.602  0.4597 -0.1910  0.0696
  213MOL    H1938603   6.657   1.943   3.834 -0.1176 -1.8009  1.4234
  213MOL    C2038604   6.347   2.157   3.768 -0.6484 -0.4121  0.2691
  213MOL    C2138605   6.451   2.267   3.748  0.2107 -0.0133 -0.6361
  213MOL    C2238606   6.400   2.403   3.800  0.0310  0.5952  0.4870
  213MOL    O2338607   6.315   2.470   3.743  0.0812 -0.1370 -0.3263
  213MOL    O2438608   6.440   2.422   3.927  0.1257 -0.4086 -0.7687
  213MOL    H2538609   6.329   2.132   3.873  0.6092 -0.5422  0.4580
  213MOL    H2638610   6.256   2.194   3.721  0.7939  1.5025 -1.1134
  213MOL    H2738611   6.546   2.236   3.793 -0.1572  2.1822  1.7898
  213MOL    H2838612   6.390   2.488   3.974 -1.4186 -0.5374 -2.1628
  213MOL    C2938613   6.480   2.282   3.596  0.3508  0.4714  0.1982
  213MOL    C3038614   6.613   2.342   3.558  0.8391 -0.1719  0.5509
  213MOL    C3138615   6.617   2.352   3.404  0.1626  0.1689  0.3342
  213MOL    O3238616   6.530   2.305   3.329 -0.1513 -0.1721  0.0566
  213MOL    O3338617   6.715   2.430   3.349 -0.0150  0.1415  0.3282
  213MOL    H3438618   6.400   2.339   3.549  0.9458  1.4604  0.3737
  213MOL    H3538619   6.463   2.187   3.545 -0.0956  0.1793  0.8769
  213MOL    H3638620   6.613   2.445   3.594 -0.7843 -0.6646  2.0390
  213MOL    H3738621   6.704   2.437   3.255 -2.9750 -0.0221  0.6100
  213MOL    C3838622   6.741   2.280   3.608  0.3152  0.5848  0.2249
  213MOL    C3938623   6.808   2.343   3.735  0.2363 -0.1786  0.1420
  213MOL    C4038624   6.880   2.470   3.695  0.3280  0.0055  0.6418
  213MOL    O4138625   6.945   2.473   3.589  0.0644  0.1106 -0.9499
  213MOL    O4238626   6.876   2.560   3.795  0.5069 -0.0077 -0.2540
  213MOL    H4338627   6.819   2.286   3.532  0.2083  1.8894  0.1927
  213MOL    H4438628   6.712   2.178   3.635 -0.4765  0.4091 -1.2420
  213MOL    H4538629   6.722   2.370   3.797 -0.4181  3.0562 -2.0292
  213MOL    H4638630   6.934   2.633   3.779  0.6602  0.1905  1.1029
  213MOL    C4738631   6.899   2.249   3.816 -0.3529  0.1805 -0.1819
  213MOL    C4838632   6.910   2.260   3.967  0.1444  0.3437 -0.1343
  213MOL    C4938633   6.778   2.247   4.045  0.1692 -0.2443 -0.0527
  213MOL    O5038634   6.736   2.339   4.109  0.0088  0.2496 -0.1611
  213MOL    O5138635   6.711   2.130   4.039  0.1142  0.0763  0.2279
  213MOL    H5238636   7.001   2.251   3.777  0.2823 -1.8367  1.2535
  213MOL    H5338637   6.867   2.146   3.799  0.3158 -0.6269  3.0577
  213MOL    H5438638   6.959   2.168   4.001 -1.4728 -1.2478 -1.9865
  213MOL    H5538639   6.629   2.140   4.085 -0.3793 -2.8098  0.0782
  213MOL    C5638640   7.004   2.379   4.022  0.1608  0.0678  0.3389
  213MOL    C5738641   7.104   2.332   4.138  0.2194  0.4382  0.2606
  213MOL    C5838642   7.161   2.441   4.227  0.0307 -0.0103  0.8987
  213MOL    O5938643   7.143   2.560   4.196  0.3417  0.7877  0.0755
  213MOL    O6038644   7.243   2.402   4.333  0.2692  0.0137 -0.0518
  213MOL    H6138645   6.934   2.459   4.044 -1.4735 -0.9287 -1.0549
  213MOL    H6238646   7.055   2.420   3.935  0.9324 -1.2669  0.1494
  213MOL    H6338647   7.033   2.281   4.204  1.3413 -1.3374  0.1253
  213MOL    H6438648   7.292   2.478   4.360  1.9502 -1.7936  2.2549
  213MOL    C6538649   7.213   2.239   4.091 -0.2106 -0.3550 -0.0955
  213MOL    C6638650   7.353   2.283   4.034  0.0606  0.0466 -0.2897
  213MOL    C6738651   7.324   2.351   3.896  0.5622  0.1098 -0.0170
  213MOL    O6838652   7.248   2.309   3.808  0.0259  0.1883  0.0325
  213MOL    O6938653   7.408   2.459   3.878 -0.0248  0.3067  0.2158
  213MOL    H7038654   7.168   2.155   4.038  0.3333 -1.4304  1.1265
  213MOL    H7138655   7.241   2.188   4.183  1.7695  0.8073 -0.0053
  213MOL    H7238656   7.395   2.355   4.104 -2.7935  0.6659  0.8675
  213MOL    H7338657   7.392   2.483   3.788  2.8264 -1.5654 -0.8441
  213MOL    C7438658   7.448   2.165   4.004  0.0162 -0.0613 -0.1382
  213MOL    C7538659   7.596   2.185   3.982  0.9681  0.2791 -0.8372
  213MOL    C7638660   7.650   2.054   3.912 -0.0263  0.0213  0.5655
  213MOL    O7738661   7.709   1.964   3.970  0.9577 -0.4478  0.4354
  213MOL    O7838662   7.630   2.057   3.774 -0.3295 -0.6005  0.3054
  213MOL    H7938663   7.405   2.105   3.924  0.2152  0.6151 -0.7577
  213MOL    H8038664   7.426   2.103   4.091  1.0676 -2.2589 -1.3824
  213MOL    H8138665   7.613   2.266   3.911 -2.4377  2.8976  1.2167
  213MOL    H8238666   7.652   1.971   3.743 -1.1527 -1.3067  1.6584
  213MOL    C8338667   7.672   2.218   4.113  0.3654  0.5443  0.4903
  213MOL    C8438668   7.785   2.313   4.084  0.0582  0.3751  0.2073
  213MOL    C8538669   7.732   2.464   4.067 -0.3917 -0.0488 -0.4466
  213MOL    O8638670   7.744   2.525   3.964  0.4423 -0.0201 -0.2679
  213MOL    O8738671   7.663   2.512   4.175  0.5643 -0.4670  0.4641
  213MOL    H8838672   7.724   2.130   4.150 -0.1194 -0.7644 -1.8726
  213MOL    H8938673   7.612   2.259   4.194 -0.9693  0.0086 -0.2255
  213MOL    H9038674   7.833   2.323   4.181 -1.4248  0.7017  0.9262
  213MOL    H9138675   7.636   2.599   4.149  2.0422  0.2593  1.2618
  213MOL    C9238676   0.025   2.274   3.965 -0.6843  0.8744  0.4030
  213MOL    C9338677   0.168   2.340   3.966 -0.3587 -0.0529  0.3512
  213MOL    C9438678   0.240   2.304   3.829 -0.4833  0.2364  0.3508
  213MOL    O9538679   0.221   2.205   3.756 -0.4401 -0.2538 -0.0502
  213MOL    O9638680   0.316   2.412   3.790  0.0216 -0.4451  0.6222
  213MOL    H9738681   7.831   2.303   3.871  0.2395  0.7009 -0.1199
  213MOL    H9838682   0.035   2.165   3.965 -3.3883  0.6010  0.3198
  213MOL    H9938683   0.159   2.449   3.966 -1.5961 -0.1571 -0.2433
  213MOL   H10038684   0.377   2.404   3.718 -1.6025 -1.8234 -0.6380
  213MOL   C10138685   0.257   2.299   4.088 -0.1816 -0.2841 -0.1599
  213MOL   C10238686   0.335   2.419   4.150  0.5164  0.1984 -0.2400
  213MOL   C10338687   0.471   2.437   4.085  0.3992  0.0336  0.3673
  213MOL   O10438688   0.571   2.365   4.100  0.5880  0.7773 -0.3383
  213MOL   O10538689   0.473   2.537   3.988 -0.0776  0.2085 -0.1384
  213MOL   H10638690   0.320   2.214   4.061  2.7034  0.5791  3.3495
  213MOL   H10738691   0.190   2.263   4.165  0.5421  0.8544  1.0313
  213MOL   H10838692   0.269   2.506   4.140 -2.1067 -1.3332  3.0195
  213MOL   H10938693   0.560   2.538   3.952 -0.3312 -1.1036 -0.8358
  213MOL   C11038694   0.358   2.404   4.305 -0.8506  0.1800 -0.3274
  213MOL   C11138695   0.238   2.414   4.394 -0.1317  0.3892 -0.1908
  213MOL   C11238696   0.181   2.554   4.391  0.1154 -0.3247 -0.8161
  213MOL   O11338697   0.235   2.651   4.345 -0.1077  0.0895 -0.3775
  213MOL   O11438698   0.053   2.558   4.433 -0.0412  0.3489 -0.2180
  213MOL   H11538699   0.424   2.483   4.340  0.4940 -0.9786 -0.1997
  213MOL   H11638700   0.414   2.311   4.318 -0.3270  0.2428 -1.9446
  213MOL   H11738701   0.165   2.342   4.355 -0.3347  1.1319 -1.1723
  213MOL   H11838702   0.013   2.644   4.428 -0.5652  0.2853  2.5032
  213MOL   C11938703   0.257   2.354   4.535  0.4865  0.0024  0.2629
  213MOL   C12038704   0.371   2.406   4.618  0.3449  0.4275  0.3962
  213MOL   C12138705   0.505   2.349   4.587 -0.4103  0.5287 -0.3523
  213MOL   O12238706   0.519   2.243   4.523 -0.3765  0.3224 -0.5837
  213MOL   O12338707   0.612   2.425   4.624 -1.0459  0.1071 -0.6405
  213MOL   H12438708   0.242   2.246   4.538 -1.5693  0.2556 -0.3648
  213MOL   H12538709   0.173   2.397   4.589  0.8938 -2.3651  2.9633
  213MOL   H12638710   0.392   2.510   4.593  3.5598 -0.6878 -1.8358
  213MOL   H12738711   0.687   2.369   4.607 -1.5198 -1.6060  2.4750
  213MOL   C12838712   0.350   2.416   4.772 -0.7614  0.5845 -0.2198
  213MOL   C12938713   0.236   2.504   4.819 -0.1056 -0.3069 -0.3229
  213MOL   C13038714   0.251   2.652   4.779  0.8966  0.0574  0.1805
  213MOL   O13138715   0.156   2.718   4.734  0.2358 -0.5278 -0.3098
  213MOL   O13238716   0.377   2.693   4.792  0.4751  0.3236  0.0009
  213MOL   H13338717   0.445   2.446   4.815 -1.5849 -0.9615  2.8546
  213MOL   H13438718   0.339   2.315   4.810 -1.4495  0.8258  0.2414
  213MOL   H13538719   0.142   2.464   4.781  0.4222 -0.5994 -1.3201
  213MOL   H13638720   0.374   2.786   4.777 -0.7186  0.2298 -0.4502
  213MOL   C13738721   0.223   2.512   4.972  0.6000 -0.5296 -0.5665
  213MOL   C13838722   0.142   2.397   5.042 -0.4310  0.1223  0.3773
  213MOL   C13938723   7.845   2.413   5.007 -0.3658 -0.2698 -0.3057
  213MOL   O14038724   7.774   2.505   5.054 -0.2925 -0.2664 -0.9245
  213MOL   O14138725   7.811   2.305   4.931 -0.2627  0.1462  0.1964
  213MOL   H14238726   0.175   2.602   5.011 -0.2876 -1.6238  0.9022
  213MOL   H14338727   0.326   2.522   5.008  1.4107  0.1747 -3.0394
  213MOL   H14438728   0.188   2.306   5.004  0.2566  0.9657 -0.8302
  213MOL   H14538729   7.717   2.310   4.922 -0.1529  0.8150 -0.6659
  213MOL   C14638730   0.164   2.398   5.191  0.0677 -0.5203 -0.5255
  213MOL   C14738731   0.306   2.339   5.232  0.0566 -0.1000 -0.2160
  213MOL   C14838732   0.305   2.182   5.226  0.0723 -0.3645  0.6002
  213MOL   O14938733   0.202   2.121   5.184 -0.0699  0.2057  0.3982
  213MOL   O15038734   0.416   2.122   5.272  0.1840 -0.0634  0.5792
  213MOL   H15138735   0.086   2.330   5.227 -1.0594  0.6473 -0.7066
  213MOL   H15238736   0.134   2.495   5.232 -0.3689 -0.3809 -1.1633
  213MOL   H15338737   0.381   2.382   5.166  0.2984  1.5466  1.0992
  213MOL   H15438738   0.410   2.029   5.257 -2.3986  0.3743 -1.4574
  213MOL   C15538739   0.351   2.393   5.373 -0.2404  0.5920  0.7503
  213MOL   C15638740   0.405   2.538   5.378 -0.3062 -0.5843  0.3538
  213MOL   C15738741   0.538   2.546   5.301 -0.3956 -0.0800 -0.4576
  213MOL   O15838742   0.648   2.518   5.353  0.1108  0.3975  0.3699
  213MOL   O15938743   0.519   2.599   5.175 -0.2920 -0.1915 -0.0976
  213MOL   H16038744   0.424   2.322   5.413 -0.2510 -1.4413 -2.6511
  213MOL   H16138745   0.273   2.370   5.445 -0.2394  1.2908  0.9781
  213MOL   H16238746   0.327   2.603   5.338  1.1914  0.5833 -0.7238
  213MOL   H16338747   0.599   2.617   5.128  1.3713 -1.6582  2.0589
  213MOL   C16438748   0.409   2.595   5.520  0.0371  0.4441 -0.1402
  213MOL   C16538749   0.417   2.752   5.525  0.5203 -0.1714  0.0177
  213MOL   C16638750   0.523   2.798   5.622  0.3206 -0.1377  1.0088
  213MOL   O16738751   0.541   2.754   5.733 -0.8211  0.1997  0.1462
  213MOL   O16838752   0.614   2.883   5.566 -0.4507 -0.1956 -0.0891
  213MOL   H16938753   0.502   2.553   5.558 -0.0364 -0.0762 -0.5293
  213MOL   H17038754   0.338   2.543   5.584 -0.7384  1.4976 -0.1244
  213MOL   H17138755   0.446   2.798   5.431  0.2728  2.1630  1.0592
  213MOL   H17238756   0.684   2.917   5.619  1.4503 -1.9363 -1.4241
  213MOL   C17338757   0.283   2.807   5.580 -0.5029  0.6288  0.2838
  213MOL   C17438758   0.153   2.760   5.514  0.0168 -0.1449  0.0605
  213MOL   C17538759   0.152   2.819   5.371  0.7146 -0.4155 -0.3817
  213MOL   O17638760   0.225   2.909   5.338  0.3855  0.3929 -0.2947
  213MOL   O17738761   0.069   2.746   5.295 -0.0985  0.5091  0.1290
  213MOL   H17838762   0.283   2.916   5.572  1.0008  0.7464  1.5192
  213MOL   H17938763   0.279   2.795   5.689 -4.3866  3.0147  0.5069
  213MOL   H18038764   0.143   2.652   5.501 -0.7059 -0.2720  1.5965
  213MOL   H18138765   0.052   2.780   5.209 -0.8330 -0.5980 -0.1779
  213MOL   H18238766   0.064   2.797   5.565 -1.3938 -0.7949 -1.8935
  214MOL     C138767   5.292   4.309   0.771 -0.2359  0.2725  0.1274
  214MOL     C238768   5.173   4.285   0.672 -0.3911  0.3628 -0.5921
  214MOL     C338769   5.210   4.304   0.522  1.2736 -0.4890  0.3472
  214MOL     O438770   5.247   4.215   0.452  0.5401 -0.2847  0.4379
  214MOL     O538771   5.205   4.432   0.485 -0.2092 -0.9177  0.3608
  214MOL     H638772   5.303   4.242   0.856  0.1004 -0.8448 -0.7843
  214MOL     H738773   5.393   4.304   0.732 -0.4182 -0.9868 -0.1915
  214MOL     H838774   5.171   4.176   0.678  0.3146  0.2345 -2.5532
  214MOL     H938775   5.241   4.433   0.398 -2.9465  0.5133 -0.8253
  214MOL    H1038776   5.289   4.414   0.800  2.0751  0.2896  0.3774
  214MOL    C1138777   5.036   4.343   0.709  0.5333 -0.2570 -0.3482
  214MOL    C1238778   4.915   4.277   0.633  0.2176 -0.0119  0.1180
  214MOL    C1338779   4.886   4.339   0.490 -0.2507  0.1386  0.0165
  214MOL    O1438780   4.906   4.290   0.378 -0.4334  0.3583  0.4625
  214MOL    O1538781   4.814   4.451   0.504  0.2357  0.3561  0.0917
  214MOL    H1638782   5.038   4.452   0.699 -3.5032  0.1111  1.9268
  214MOL    H1738783   5.027   4.339   0.817 -0.9841  1.1559 -0.3915
  214MOL    H1838784   4.938   4.171   0.626 -1.8605 -0.4983  0.1843
  214MOL    H1938785   4.794   4.483   0.418  0.2210 -0.8528 -0.3694
  214MOL    C2038786   4.786   4.281   0.725 -0.5457  0.5630 -0.5246
  214MOL    C2138787   4.794   4.188   0.853  0.4994 -0.2630  0.3636
  214MOL    C2238788   4.754   4.046   0.817 -0.8911  0.4683 -0.1739
  214MOL    O2338789   4.655   4.013   0.757  0.4070 -0.4615  0.4928
  214MOL    O2438790   4.840   3.955   0.867  0.0411 -0.2395  0.6850
  214MOL    H2538791   4.713   4.244   0.652 -1.1739  0.8846 -0.0620
  214MOL    H2638792   4.756   4.384   0.745  2.6797  1.7493 -1.4400
  214MOL    H2738793   4.898   4.179   0.885  0.4429 -0.6113  0.4557
  214MOL    H2838794   4.817   3.867   0.842  1.6674 -0.2686 -0.8353
  214MOL    C2938795   4.714   4.236   0.975 -0.4559  0.3788  0.0281
  214MOL    C3038796   4.765   4.370   1.040 -0.4453  0.2849 -0.4260
  214MOL    C3138797   4.900   4.348   1.108 -0.0933 -0.3850  0.3386
  214MOL    O3238798   4.947   4.249   1.155  0.1211  0.2533  0.1393
  214MOL    O3338799   4.964   4.469   1.107  0.5395 -0.0669  0.9669
  214MOL    H3438800   4.703   4.156   1.047  0.6519 -1.3920 -1.7254
  214MOL    H3538801   4.614   4.244   0.932 -0.7017  2.0682  0.8829
  214MOL    H3638802   4.785   4.446   0.964  3.1049 -0.4983 -0.3747
  214MOL    H3738803   5.053   4.453   1.134  0.9050 -0.0347 -0.1799
  214MOL    C3838804   4.670   4.435   1.143  0.2378 -0.1003  0.0208
  214MOL    C3938805   4.520   4.469   1.089 -0.7918  0.6258  0.1255
  214MOL    C4038806   4.517   4.540   0.953 -0.3009 -0.3136  0.2116
  214MOL    O4138807   4.586   4.633   0.931 -0.6986 -1.0121 -0.2116
  214MOL    O4238808   4.426   4.492   0.864 -0.3313 -0.2281  0.4033
  214MOL    H4338809   4.706   4.516   1.207  1.5292  0.8213 -1.8190
  214MOL    H4438810   4.660   4.363   1.225 -0.9858 -0.5923 -0.5509
  214MOL    H4538811   4.479   4.370   1.069 -0.6194  0.1764  1.8897
  214MOL    H4638812   4.374   4.426   0.907 -0.8185 -0.7373 -0.9670
  214MOL    C4738813   4.436   4.535   1.203 -0.2506  0.1221  0.7382
  214MOL    C4838814   4.283   4.557   1.167  0.5854 -0.2667 -0.1418
  214MOL    C4938815   4.239   4.692   1.233  0.0790 -0.7456 -0.2668
  214MOL    O5038816   4.201   4.792   1.169  0.8058  0.0716  0.4825
  214MOL    O5138817   4.219   4.674   1.364  0.8765 -0.0302 -0.1561
  214MOL    H5238818   4.481   4.630   1.235 -0.4886  0.7557 -0.7717
  214MOL    H5338819   4.447   4.469   1.289  1.0085 -0.9928 -0.2744
  214MOL    H5438820   4.272   4.576   1.061 -0.7509 -0.4919 -0.0597
  214MOL    H5538821   4.165   4.746   1.392  3.2455  1.4661  0.7209
  214MOL    C5638822   4.197   4.436   1.209  0.7190  0.3050  0.1925
  214MOL    C5738823   4.089   4.395   1.109  0.1083  0.1127  0.2471
  214MOL    C5838824   4.143   4.307   1.000 -0.1804 -0.7899 -0.0908
  214MOL    O5938825   4.267   4.288   0.988 -0.0391 -0.3475 -0.9146
  214MOL    O6038826   4.045   4.264   0.905 -0.1889 -0.5111  0.0047
  214MOL    H6138827   4.148   4.447   1.306 -2.4831 -0.3524 -1.3010
  214MOL    H6238828   4.265   4.354   1.233  0.2453  0.4022  1.9332
  214MOL    H6338829   4.027   4.321   1.159  1.4922  0.0670  1.9431
  214MOL    H6438830   4.092   4.218   0.836  1.1933  0.3564  0.3709
  214MOL    C6538831   3.993   4.507   1.062 -0.4251  0.7578  0.3803
  214MOL    C6638832   3.846   4.499   1.103  0.3149 -0.0152  0.3057
  214MOL    C6738833   3.763   4.599   1.019  0.3383 -0.6178 -0.3802
  214MOL    O6838834   3.689   4.572   0.922 -0.8018  0.9853 -0.5783
  214MOL    O6938835   3.785   4.725   1.068  0.6095 -0.5789  0.4795
  214MOL    H7038836   3.997   4.499   0.954  1.3054  0.7026  0.4372
  214MOL    H7138837   4.029   4.609   1.074  0.7778  0.4461 -0.4579
  214MOL    H7238838   3.800   4.403   1.077 -0.6150  0.2633  0.9164
  214MOL    H7338839   3.764   4.800   1.015  3.0166  0.5148  1.0343
  214MOL    C7438840   3.818   4.523   1.248  0.6241  0.3410 -0.4344
  214MOL    C7538841   3.682   4.475   1.307 -0.9482 -0.0115  0.2735
  214MOL    C7638842   3.682   4.538   1.450  0.4466 -0.5759  0.3900
  214MOL    O7738843   3.739   4.490   1.550 -0.1708  0.3702  0.1627
  214MOL    O7838844   3.616   4.655   1.444  0.1247 -0.3057  0.2056
  214MOL    H7938845   3.821   4.631   1.268  2.8922  0.4503 -1.2349
  214MOL    H8038846   3.891   4.474   1.313 -1.1282 -0.7603  0.7250
  214MOL    H8138847   3.595   4.520   1.261  0.7060  2.8156 -0.2372
  214MOL    H8238848   3.600   4.697   1.528 -1.3360  2.1783 -1.2510
  214MOL    C8338849   3.665   4.321   1.312 -0.2127 -0.3899 -0.1150
  214MOL    C8438850   3.524   4.284   1.377  0.3769  0.2591 -0.5561
  214MOL    C8538851   3.529   4.158   1.459 -0.0628 -0.0057  0.7763
  214MOL    O8638852   3.537   4.151   1.579  0.6719 -0.3126  0.9661
  214MOL    O8738853   3.515   4.056   1.372  0.2052  0.3830 -0.4648
  214MOL    H8838854   3.750   4.276   1.363  0.7521  2.9446  1.3668
  214MOL    H8938855   3.662   4.282   1.210 -0.1363  2.8078 -1.3865
  214MOL    H9038856   3.493   4.355   1.454 -1.4040  1.4375 -2.2859
  214MOL    H9138857   3.527   3.971   1.411  1.0560  0.2125 -1.0925
  214MOL    C9238858   3.403   4.281   1.280 -0.2809 -0.2396  0.1461
  214MOL    C9338859   3.269   4.256   1.344  0.4062  0.2744  0.1629
  214MOL    C9438860   3.212   4.118   1.311 -0.5565  0.2510  0.6438
  214MOL    O9538861   3.202   4.033   1.400 -0.2003 -0.6015  0.3473
  214MOL    O9638862   3.179   4.112   1.178  0.0491 -0.0376  0.6606
  214MOL    H9738863   3.418   4.218   1.192  2.9594 -0.4390  0.8043
  214MOL    H9838864   3.405   4.378   1.230  2.4348 -0.7121 -0.7436
  214MOL    H9938865   3.276   4.261   1.452 -0.8443  1.9344  0.2071
  214MOL   H10038866   3.134   4.036   1.142 -0.8101  0.3571  0.8826
  214MOL   C10138867   3.172   4.374   1.314 -0.1647 -0.0339 -0.2923
  214MOL   C10238868   3.194   4.516   1.381  0.6739  0.3723  0.1185
  214MOL   C10338869   3.143   4.532   1.527  1.2079 -0.5783 -0.3654
  214MOL   O10438870   3.078   4.629   1.578 -0.1636  0.1155 -0.0429
  214MOL   O10538871   3.174   4.422   1.596  0.3347 -0.0903  0.5818
  214MOL   H10638872   3.075   4.336   1.349 -0.4587  1.2470  0.3265
  214MOL   H10738873   3.151   4.393   1.209 -0.7129  1.7679  0.1199
  214MOL   H10838874   3.302   4.523   1.396  0.8768 -0.0823 -1.0430
  214MOL   H10938875   3.163   4.440   1.688 -0.1491  2.9486 -0.0278
  214MOL   C11038876   3.147   4.636   1.289  0.0613  0.2174 -0.2205
  214MOL   C11138877   3.252   4.706   1.199 -0.8929  0.7487 -0.6963
  214MOL   C11238878   3.372   4.766   1.280  0.5434  1.2227 -0.5524
  214MOL   O11338879   3.375   4.790   1.402 -0.1992 -0.2984 -0.2946
  214MOL   O11438880   3.482   4.783   1.202  0.0063  0.4853  0.2797
  214MOL   H11538881   3.117   4.719   1.352  1.0382 -0.1870  0.8032
  214MOL   H11638882   3.062   4.603   1.230 -0.9365  2.0644  0.1697
  214MOL   H11738883   3.292   4.622   1.142 -2.8529 -0.7435  0.0514
  214MOL   H11838884   3.549   4.834   1.246  0.4268 -0.6311  0.9534
  214MOL   C11938885   3.181   4.803   1.093 -0.5302 -0.1081  0.3647
  214MOL   C12038886   3.273   4.852   0.973  0.2583  0.9996  0.5140
  214MOL   C12138887   3.350   4.982   1.005 -1.0262 -0.6904  0.3780
  214MOL   O12238888   3.323   5.056   1.093  0.4576  0.4514 -0.1814
  214MOL   O12338889   3.436   5.016   0.901 -0.4877  0.1132  0.5606
  214MOL   H12438890   3.133   4.886   1.145 -0.3999  0.9351 -1.1401
  214MOL   H12538891   3.101   4.744   1.048 -0.9501 -0.2462  1.2795
  214MOL   H12638892   3.354   4.779   0.981 -0.4654  0.1367 -0.0062
  214MOL   H12738893   3.463   5.106   0.909 -0.9285  0.7022 -3.6695
  214MOL   C12838894   3.208   4.853   0.830 -0.0448 -0.5082  0.0361
  214MOL   C12938895   3.289   4.789   0.720 -0.2493  0.2303  0.5337
  214MOL   C13038896   3.274   4.873   0.590  0.0155  0.2751  1.0248
  214MOL   O13138897   3.214   4.831   0.492  0.3604 -0.3252  0.4001
  214MOL   O13238898   3.323   5.004   0.601  0.2134 -0.1038 -0.7477
  214MOL   H13338899   3.173   4.950   0.795 -2.6340 -1.0834  0.8854
  214MOL   H13438900   3.109   4.806   0.832 -0.3149 -0.0386 -1.6823
  214MOL   H13538901   3.393   4.799   0.748 -0.5656 -0.3627  1.9856
  214MOL   H13638902   3.315   5.039   0.514  0.1807 -2.3259 -1.6909
  214MOL   C13738903   3.254   4.643   0.709  0.6543 -0.4181 -0.0683
  214MOL   C13838904   3.365   4.548   0.660  0.1593  0.0552  0.4547
  214MOL   C13938905   3.365   4.518   0.507  0.0480 -0.1251  0.8939
  214MOL   O14038906   3.280   4.562   0.433  0.3258 -0.1547 -0.0589
  214MOL   O14138907   3.471   4.454   0.457  0.0981 -0.7257 -0.3530
  214MOL   H14238908   3.167   4.624   0.646  0.7443  0.5879 -0.5017
  214MOL   H14338909   3.220   4.614   0.809 -2.6167  3.1292 -0.0438
  214MOL   H14438910   3.462   4.594   0.678  0.5618  0.0043 -1.5012
  214MOL   H14538911   3.453   4.447   0.364  0.4645 -4.4402 -0.2354
  214MOL   C14638912   3.383   4.422   0.750  0.7070  1.0308  0.0113
  214MOL   C14738913   3.283   4.297   0.734 -0.7028 -0.0095  0.4986
  214MOL   C14838914   3.137   4.335   0.735  0.0119 -0.5466 -0.0363
  214MOL   O14938915   3.072   4.369   0.834  0.0434 -0.2987 -0.0452
  214MOL   O15038916   3.083   4.316   0.610  0.2986  0.5462 -0.4364
  214MOL   H15138917   3.381   4.455   0.853  1.2215  0.1637  0.3076
  214MOL   H15238918   3.482   4.386   0.721 -0.2360 -1.5532 -0.1413
  214MOL   H15338919   3.300   4.255   0.635 -0.6984  1.0880  0.0284
  214MOL   H15438920   2.989   4.327   0.606  0.4590  2.5993  0.6947
  214MOL   C15538921   3.307   4.191   0.843 -0.4001  1.0871 -0.1227
  214MOL   C15638922   3.239   4.047   0.821  0.3511  0.2941 -0.0810
  214MOL   C15738923   3.092   4.019   0.870 -0.0533 -0.7628  0.6700
  214MOL   O15838924   3.061   3.976   0.982 -0.3946 -0.2564  0.7458
  214MOL   O15938925   3.006   4.040   0.771  0.2662 -0.4472 -0.1509
  214MOL   H16038926   3.283   4.235   0.940  1.4200  2.5731 -0.3144
  214MOL   H16138927   3.414   4.170   0.843 -0.6996 -0.5928  2.2119
  214MOL   H16238928   3.225   4.035   0.713 -3.4882 -2.0553  0.5950
  214MOL   H16338929   2.924   4.011   0.808  0.3144 -0.8900 -0.3906
  214MOL   C16438930   3.335   3.934   0.871  0.1442  0.5307  0.5375
  214MOL   C16538931   3.285   3.798   0.845 -0.8291  0.4340  0.2391
  214MOL   C16638932   3.375   3.684   0.896  0.1264  0.2849 -0.2982
  214MOL   O16738933   3.495   3.687   0.879 -0.1970 -0.4595  0.4160
  214MOL   O16838934   3.297   3.589   0.960 -0.4950 -0.2028  0.1527
  214MOL   H16938935   3.358   3.951   0.976  1.3378  1.4237  0.1529
  214MOL   H17038936   3.431   3.936   0.819 -0.2964  1.6410 -0.2720
  214MOL   H17138937   3.196   3.781   0.905 -0.5120 -1.4468  0.2004
  214MOL   H17238938   3.360   3.523   0.985  1.2106  1.4306  0.2394
  214MOL   C17338939   3.264   3.764   0.687  0.1801 -0.1757 -0.6940
  214MOL   C17438940   3.380   3.810   0.595 -0.1185  0.2646  0.5328
  214MOL   C17538941   3.361   3.760   0.451 -0.4087 -0.5355 -0.1220
  214MOL   O17638942   3.355   3.835   0.356 -0.0711  0.0626  0.2537
  214MOL   O17738943   3.374   3.623   0.446 -0.0184 -0.0628  0.8735
  214MOL   H17838944   3.168   3.802   0.653 -0.3116  0.9985  1.9411
  214MOL   H17938945   3.255   3.655   0.680  0.2903 -0.2296 -0.0523
  214MOL   H18038946   3.399   3.916   0.585  0.6112 -0.0345 -1.3897
  214MOL   H18138947   3.405   3.603   0.359  0.7829  3.2369  0.3568
  214MOL   H18238948   3.473   3.757   0.617 -0.1170 -0.0963 -0.3344
  215MOL     C138949   3.344   6.039   1.669  0.0611  0.0317 -0.0149
  215MOL     C238950   3.368   6.153   1.769 -0.4064 -0.5407 -0.2311
  215MOL     C338951   3.441   6.270   1.695 -0.4764 -0.0749  0.1739
  215MOL     O438952   3.394   6.385   1.691  0.3859 -0.1059 -0.3574
  215MOL     O538953   3.551   6.230   1.629  0.5158  0.5859  0.0833
  215MOL     H638954   3.412   5.955   1.675  0.5063  0.4512  0.9511
  215MOL     H738955   3.244   6.001   1.687  0.0825 -1.0179 -1.9375
  215MOL     H838956   3.270   6.194   1.791 -0.2532  0.4105 -1.2805
  215MOL     H938957   3.570   6.144   1.661 -2.2805 -0.5999 -1.2571
  215MOL    H1038958   3.346   6.082   1.568 -0.8015 -1.0134 -0.4900
  215MOL    C1138959   3.440   6.120   1.902 -0.6650  0.2466 -0.1233
  215MOL    C1238960   3.443   6.234   2.006 -0.0185 -0.6801 -0.6255
  215MOL    C1338961   3.576   6.315   1.999 -0.2996 -0.0938 -0.2174
  215MOL    O1438962   3.688   6.267   1.984  0.3267  0.1108 -0.5411
  215MOL    O1538963   3.559   6.451   2.002  0.1584 -0.1877  0.0535
  215MOL    H1638964   3.540   6.088   1.873 -0.2385  0.5399  0.9761
  215MOL    H1738965   3.394   6.030   1.945  2.3830 -2.0168 -1.4080
  215MOL    H1838966   3.357   6.301   2.005 -0.2968 -0.9370  1.9881
  215MOL    H1938967   3.469   6.469   2.026  1.2498  2.6144  2.2898
  215MOL    C2038968   3.430   6.157   2.147  0.5645  0.3611 -0.0557
  215MOL    C2138969   3.405   6.245   2.271  0.6729  0.7731  0.1535
  215MOL    C2238970   3.528   6.329   2.316 -0.3069 -0.5469  0.4624
  215MOL    O2338971   3.646   6.286   2.319  0.0455 -0.2580  0.0459
  215MOL    O2438972   3.499   6.461   2.341  0.0651 -0.7436  0.4946
  215MOL    H2538973   3.515   6.092   2.168  2.7733  2.9043 -0.8941
  215MOL    H2638974   3.350   6.083   2.140 -0.0325  1.0115 -0.1504
  215MOL    H2738975   3.320   6.312   2.259 -0.2032 -0.3452 -0.0462
  215MOL    H2838976   3.581   6.499   2.367  0.9263 -0.7872 -2.0208
  215MOL    C2938977   3.373   6.141   2.383  0.2956  0.0614  0.2252
  215MOL    C3038978   3.283   6.189   2.501  0.1075  0.7817 -0.3833
  215MOL    C3138979   3.285   6.084   2.616  0.0744  0.2068 -0.3400
  215MOL    O3238980   3.323   6.115   2.730  0.3808  0.3617  0.0888
  215MOL    O3338981   3.259   5.961   2.573 -0.4709 -0.3659 -0.4791
  215MOL    H3438982   3.466   6.092   2.412 -0.8172 -2.1926  0.0465
  215MOL    H3538983   3.317   6.060   2.337  0.8798  0.3429 -1.0136
  215MOL    H3638984   3.319   6.280   2.550 -0.6918 -0.2462  2.2064
  215MOL    H3738985   3.227   5.899   2.636  0.4554  0.1238  0.4921
  215MOL    C3838986   3.136   6.209   2.447 -0.1001  0.8755  0.1308
  215MOL    C3938987   3.041   6.272   2.553 -0.8563 -0.0356  0.2900
  215MOL    C4038988   2.893   6.236   2.543  0.6595 -0.5248 -0.6465
  215MOL    O4138989   2.839   6.173   2.636  0.9642  0.3609 -0.1845
  215MOL    O4238990   2.830   6.279   2.433  0.2240 -0.0740  0.6908
  215MOL    H4338991   3.095   6.111   2.422  1.2591  0.2404  0.3575
  215MOL    H4438992   3.132   6.257   2.349  2.5651  0.6424 -0.1320
  215MOL    H4538993   3.082   6.266   2.654 -1.2136  0.2681  0.4574
  215MOL    H4638994   2.742   6.246   2.446  0.2460  0.0252  1.1037
  215MOL    C4738995   3.058   6.424   2.536  0.8591 -0.5652 -0.3892
  215MOL    C4838996   3.014   6.510   2.658 -0.0045  0.4166 -0.2694
  215MOL    C4938997   2.995   6.663   2.618  0.0194  0.4276 -0.0730
  215MOL    O5038998   2.911   6.739   2.665 -0.5672  0.0981 -0.4920
  215MOL    O5138999   3.091   6.690   2.525 -0.2334  0.0280  0.4480
  215MOL    H5239000   3.008   6.460   2.446  0.2962  0.5681  0.3600
  215MOL    H5339001   3.165   6.443   2.529  1.2734 -2.9870 -0.9763
  215MOL    H5439002   2.917   6.479   2.695  0.0228 -0.1542 -0.6908
  215MOL    H5539003   3.065   6.774   2.489 -3.6509 -1.1516  0.0141
  215MOL    C5639004   3.123   6.494   2.773  0.4509 -0.2245  0.1229
  215MOL    C5739005   3.077   6.458   2.922 -0.1489  0.8555  0.1250
  215MOL    C5839006   3.013   6.319   2.925 -0.0716 -0.0101  0.6152
  215MOL    O5939007   3.073   6.218   2.963  0.3666 -0.1058  0.2358
  215MOL    O6039008   2.883   6.325   2.889 -0.5628  0.2672 -0.3601
  215MOL    H6139009   3.169   6.593   2.777 -0.2406  0.2361 -2.2713
  215MOL    H6239010   3.209   6.430   2.751  1.5365  1.3863 -0.3912
  215MOL    H6339011   3.166   6.444   2.984 -0.4974  0.3423  0.5186
  215MOL    H6439012   2.850   6.236   2.890 -1.1861  0.4966  0.0727
  215MOL    C6539013   2.989   6.578   2.984 -0.1850  0.3154 -0.9988
  215MOL    C6639014   3.064   6.659   3.093 -0.7563 -0.9592 -0.5968
  215MOL    C6739015   3.062   6.606   3.238 -0.3108  0.1275  0.9004
  215MOL    O6839016   3.162   6.600   3.303 -0.0463  0.2090  0.2963
  215MOL    O6939017   2.940   6.565   3.273 -0.4223  0.2000 -0.3118
  215MOL    H7039018   2.898   6.538   3.029  0.1999 -0.0380 -0.5289
  215MOL    H7139019   2.943   6.636   2.905 -2.2087 -1.0642 -0.8811
  215MOL    H7239020   3.169   6.671   3.065 -0.7517  2.4197  0.6059
  215MOL    H7339021   2.957   6.532   3.360  0.0640  0.0815 -0.4540
  215MOL    C7439022   3.012   6.809   3.089  0.7100 -0.2801  0.1626
  215MOL    C7539023   3.094   6.909   3.176 -0.2306  0.3118 -0.9248
  215MOL    C7639024   3.011   6.962   3.293 -0.1785  0.2351 -0.6714
  215MOL    O7739025   3.051   6.956   3.416 -0.0380  0.3225 -0.0823
  215MOL    O7839026   2.905   7.032   3.247 -0.0888  0.4082  0.4980
  215MOL    H7939027   2.908   6.809   3.120  0.1184  0.8217 -1.7632
  215MOL    H8039028   3.023   6.845   2.987  0.3403  1.4019  0.7147
  215MOL    H8139029   3.162   6.840   3.225 -1.2695  0.6704  1.0452
  215MOL    H8239030   2.857   7.067   3.321 -0.1065  0.7214  0.3416
  215MOL    C8339031   3.173   7.027   3.105 -0.1757  0.6682  0.1069
  215MOL    C8439032   3.319   6.983   3.062 -0.9442 -0.4579 -0.5210
  215MOL    C8539033   3.405   6.953   3.186  0.3283  0.0542  0.0646
  215MOL    O8639034   3.491   6.868   3.189 -0.8336  0.1698  0.0323
  215MOL    O8739035   3.357   7.007   3.301  0.6044  0.3949 -0.2407
  215MOL    H8839036   3.171   7.121   3.159 -0.7353  0.0772  1.1347
  215MOL    H8939037   3.104   7.044   3.022 -0.3637 -0.9031 -0.0833
  215MOL    H9039038   3.301   6.887   3.015  0.0149 -0.2033 -1.4158
  215MOL    H9139039   3.383   6.965   3.382  0.0455 -0.2711 -0.4030
  215MOL    C9239040   3.381   7.089   2.972  0.6261  0.5953  0.4290
  215MOL    C9339041   3.388   7.036   2.820 -0.2607 -0.3641  0.8709
  215MOL    C9439042   3.251   7.055   2.742 -0.0073 -0.8423 -0.8521
  215MOL    O9539043   3.221   7.147   2.664  1.0581  0.4051  0.4337
  215MOL    O9639044   3.163   6.964   2.784 -0.3044  0.0389 -0.8163
  215MOL    H9739045   3.481   7.106   3.011 -0.1488  0.8601  2.3131
  215MOL    H9839046   3.316   7.176   2.981 -0.1736  0.0910 -0.3187
  215MOL    H9939047   3.459   7.110   2.783 -1.2482 -0.2790 -0.9034
  215MOL   H10039048   3.086   6.971   2.730 -0.4472 -1.8652 -0.8929
  215MOL   C10139049   3.463   6.902   2.798  0.1930  0.1471 -0.4950
  215MOL   C10239050   3.502   6.858   2.653 -0.2795  0.3476 -0.0801
  215MOL   C10339051   3.565   6.718   2.648  0.0217  0.4269  0.8374
  215MOL   O10439052   3.684   6.704   2.649 -0.3453  0.9410  0.5301
  215MOL   O10539053   3.477   6.614   2.653 -0.1515  0.4422  0.0144
  215MOL   H10639054   3.406   6.815   2.832 -1.6882  1.6554  0.2690
  215MOL   H10739055   3.556   6.888   2.853  0.1782  2.3838  0.1345
  215MOL   H10839056   3.415   6.847   2.588  0.2135  0.2484 -0.7316
  215MOL   H10939057   3.520   6.530   2.654 -0.1590  0.4290  1.9006
  215MOL   C11039058   3.597   6.961   2.582 -0.0915  0.1874 -0.6523
  215MOL   C11139059   3.589   6.962   2.422 -0.3595  0.0605  0.0073
  215MOL   C11239060   3.667   6.840   2.359  0.3987 -0.1002  0.1322
  215MOL   O11339061   3.793   6.827   2.347  0.1909 -0.1327 -0.0285
  215MOL   O11439062   3.580   6.747   2.305  0.4832 -0.3054  0.4523
  215MOL   H11539063   3.698   6.946   2.619 -0.1249  4.1493  1.2935
  215MOL   H11639064   3.574   7.060   2.621  1.5895  0.9208 -1.5088
  215MOL   H11739065   3.483   6.965   2.397 -0.2685 -0.6955 -0.5109
  215MOL   H11839066   3.637   6.683   2.266 -0.2771 -0.2388 -0.8090
  215MOL   C11939067   3.646   7.099   2.373  0.0698 -0.0918 -0.5150
  215MOL   C12039068   3.671   7.115   2.222  0.3833 -0.3489 -0.0371
  215MOL   C12139069   3.760   7.247   2.204  0.2521 -0.4571  0.2029
  215MOL   O12239070   3.763   7.316   2.100  0.0895  0.3946 -0.3296
  215MOL   O12339071   3.830   7.284   2.310 -0.1905 -0.2943 -0.3507
  215MOL   H12439072   3.736   7.117   2.432 -0.9340 -0.2875  1.1314
  215MOL   H12539073   3.573   7.175   2.400 -0.1750 -0.3139 -0.5485
  215MOL   H12639074   3.735   7.027   2.209  0.3366 -0.7193  2.1082
  215MOL   H12739075   3.890   7.355   2.291 -0.0867  0.1068  1.3838
  215MOL   C12839076   3.544   7.115   2.137  0.3940 -0.8018  0.5663
  215MOL   C12939077   3.546   7.027   2.010  0.5107  0.4334 -0.6053
  215MOL   C13039078   3.616   7.087   1.888  0.2686 -0.3469  0.6656
  215MOL   O13139079   3.548   7.139   1.796 -0.0147 -0.0820 -0.1489
  215MOL   O13239080   3.755   7.081   1.894 -0.3542 -0.1781  0.3858
  215MOL   H13339081   3.530   7.220   2.112 -0.1538 -1.3745 -1.5982
  215MOL   H13439082   3.459   7.095   2.203 -1.4708  1.9048 -0.8815
  215MOL   H13539083   3.608   6.942   2.038  0.3191  0.7546  0.8695
  215MOL   H13639084   3.802   7.108   1.816 -0.2198  0.0570  0.5465
  215MOL   C13739085   3.401   6.973   1.981 -0.1271  0.0382  0.1043
  215MOL   C13839086   3.389   6.817   1.986 -0.0884  0.3271  1.0085
  215MOL   C13939087   3.461   6.749   1.861 -0.3543 -0.3125 -0.0860
  215MOL   O14039088   3.541   6.807   1.786  0.1763  0.4270 -0.4249
  215MOL   O14139089   3.421   6.621   1.834  0.5054 -0.0713 -0.3000
  215MOL   H14239090   3.356   7.009   1.889 -1.7852  0.8518  1.2100
  215MOL   H14339091   3.339   7.009   2.064  1.1684  1.5230  0.4469
  215MOL   H14439092   3.443   6.783   2.074 -1.8058 -1.2271  1.4959
  215MOL   H14539093   3.459   6.574   1.761  1.8346 -0.1678  0.4326
  215MOL   C14639094   3.240   6.775   1.995 -0.1050  0.0677  0.3919
  215MOL   C14739095   3.198   6.740   2.137  0.6128  0.6237  0.2673
  215MOL   C14839096   3.268   6.616   2.186 -0.7537  0.1969 -0.4207
  215MOL   O14939097   3.324   6.533   2.121 -0.2596 -0.2445  0.6737
  215MOL   O15039098   3.260   6.605   2.323  0.4933 -0.4846 -0.2674
  215MOL   H15139099   3.207   6.693   1.931  0.9363  1.2586 -1.7482
  215MOL   H15239100   3.180   6.860   1.961  2.1668  1.9315  0.9303
  215MOL   H15339101   3.231   6.813   2.211  0.1419 -1.1454  2.2719
  215MOL   H15439102   3.325   6.538   2.337  2.2045  0.9595 -1.1439
  215MOL   C15539103   3.047   6.722   2.151  0.1043  0.6526 -0.7454
  215MOL   C15639104   2.971   6.850   2.141  0.5434 -0.0156  0.3674
  215MOL   C15739105   2.978   6.938   2.264 -0.2075  0.5390 -0.0872
  215MOL   O15839106   3.010   6.890   2.371 -0.3893  0.3497 -0.6467
  215MOL   O15939107   2.944   7.073   2.251  0.5242 -0.2153  0.8758
  215MOL   H16039108   3.022   6.675   2.247 -0.7133  0.9816 -0.7945
  215MOL   H16139109   3.011   6.650   2.078 -1.0848  0.0188  0.4307
  215MOL   H16239110   3.023   6.922   2.078 -1.9010  1.2807 -0.2008
  215MOL   H16339111   2.925   7.112   2.334  0.5722 -1.8988  1.6965
  215MOL   C16439112   2.828   6.837   2.076  0.0321  0.4459 -1.0626
  215MOL   C16539113   2.805   6.927   1.947 -0.4690 -0.1872  0.6358
  215MOL   C16639114   2.653   6.957   1.941  0.4993  0.2345 -0.5803
  215MOL   O16739115   2.587   7.027   2.021  0.1182  0.1207 -0.2072
  215MOL   O16839116   2.587   6.886   1.846 -0.0957  0.1530  0.5175
  215MOL   H16939117   2.747   6.871   2.140  0.3954  0.6512 -0.7123
  215MOL   H17039118   2.807   6.733   2.048  3.0340 -0.6285  0.3731
  215MOL   H17139119   2.856   7.022   1.962  3.9079 -2.3851  0.3686
  215MOL   H17239120   2.501   6.922   1.833 -0.2288 -0.0114  0.9322
  215MOL   C17339121   2.855   6.844   1.823 -0.3640 -0.0688  0.6070
  215MOL   C17439122   2.910   6.927   1.706  0.4174 -0.0521  0.1069
  215MOL   C17539123   3.047   6.991   1.731 -0.6237 -0.4318 -0.8091
  215MOL   O17639124   3.082   7.063   1.826  0.0033  0.1835  0.5982
  215MOL   O17739125   3.140   6.950   1.646  0.3055 -0.0211  0.0386
  215MOL   H17839126   2.776   6.780   1.784 -0.8522  0.9317 -0.0853
  215MOL   H17939127   2.942   6.780   1.835 -0.4585 -0.6808 -1.7243
  215MOL   H18039128   2.903   6.877   1.609  1.6588 -0.1576  0.0612
  215MOL   H18139129   3.221   6.991   1.673  1.8697 -2.1400 -1.2943
  215MOL   H18239130   2.838   7.006   1.687  0.1220  0.3304  2.6753
  216MOL     C139131   3.090   0.376   5.139 -0.6817  0.0142 -0.0275
  216MOL     C239132   2.953   0.355   5.090  0.5821 -0.0532  0.1881
  216MOL     C339133   2.851   0.440   5.161 -0.5244  0.2459  0.3750
  216MOL     O439134   2.874   0.506   5.256  0.1946  0.0830  0.1161
  216MOL     O539135   2.728   0.439   5.105 -0.0967 -0.5797  0.2338
  216MOL     H639136   3.156   0.333   5.063  0.3224  0.3298  0.6468
  216MOL     H739137   3.114   0.483   5.144  0.1508 -0.2415  2.0725
  216MOL     H839138   2.947   0.407   4.994  0.3290 -0.0196  0.2213
  216MOL     H939139   2.671   0.506   5.139  0.6689  0.9485 -1.4279
  216MOL    H1039140   3.108   0.321   5.231  1.3001 -0.5756 -0.7398
  216MOL    C1139141   2.915   0.208   5.076  0.4323  0.7910  1.0289
  216MOL    C1239142   2.885   0.128   5.209 -0.0922 -0.6033 -0.0759
  216MOL    C1339143   2.951   7.841   5.193  0.2304  0.3018  0.5203
  216MOL    O1439144   3.018   7.794   5.286  0.3300  0.5910  0.5907
  216MOL    O1539145   2.915   7.784   5.072 -0.1239  0.0777 -0.1954
  216MOL    H1639146   2.995   0.157   5.022  0.6232 -0.6414  2.5828
  216MOL    H1739147   2.825   0.206   5.015  2.3137  0.5385 -1.8099
  216MOL    H1839148   2.933   0.176   5.295 -2.1165 -1.8631  1.7851
  216MOL    H1939149   2.961   7.703   5.081  1.1685  1.0453  2.3940
  216MOL    C2039150   2.736   0.118   5.242  0.2517 -0.3757 -0.0691
  216MOL    C2139151   2.704   0.104   5.393  0.2236  0.2134  0.4415
  216MOL    C2239152   2.715   0.246   5.460 -0.0818 -0.4064 -0.2112
  216MOL    O2339153   2.672   0.350   5.417  0.0225 -0.5653 -0.1391
  216MOL    O2439154   2.794   0.243   5.569  0.1203 -0.0730 -0.0006
  216MOL    H2539155   2.698   0.030   5.190  0.5514 -0.9565  0.6985
  216MOL    H2639156   2.683   0.207   5.206 -0.2050 -1.6107 -2.6356
  216MOL    H2739157   2.597   0.088   5.380  0.1993 -0.8683  1.9104
  216MOL    H2839158   2.797   0.335   5.593  1.4801 -0.1284  0.0821
  216MOL    C2939159   2.765   7.837   5.470 -0.6048  0.1670 -0.1670
  216MOL    C3039160   2.692   7.812   5.605 -0.1512 -0.4980  0.5870
  216MOL    C3139161   2.787   7.805   5.716  0.0078 -1.5133  0.0344
  216MOL    O3239162   2.779   0.023   5.814  0.2872 -0.5328  0.0238
  216MOL    O3339163   2.872   7.700   5.705 -0.3411  0.5342  0.1837
  216MOL    H3439164   2.872   7.850   5.486 -0.5626 -1.7570  1.2248
  216MOL    H3539165   2.765   7.749   5.407 -0.2938  0.5897 -0.7632
  216MOL    H3639166   2.624   0.041   5.631  0.8562  0.1385  1.2202
  216MOL    H3739167   2.913   7.684   5.788  0.8653  0.0992 -0.4748
  216MOL    C3839168   2.608   7.678   5.599  0.5946  0.4385 -0.5493
  216MOL    C3939169   2.488   7.681   5.500 -0.1934 -0.8024 -0.7230
  216MOL    C4039170   2.370   7.757   5.567  0.0795 -0.1872  0.3449
  216MOL    O4139171   2.364   7.790   5.688  0.3655 -0.6107 -0.3153
  216MOL    O4239172   2.273   7.780   5.477 -0.1034  0.0011 -0.4936
  216MOL    H4339173   2.571   7.668   5.701 -0.1560 -0.0946 -0.8715
  216MOL    H4439174   2.672   7.591   5.586 -0.5054 -0.5000  0.2772
  216MOL    H4539175   2.514   7.742   5.414  1.2877  0.1179  0.3714
  216MOL    H4639176   2.199   7.828   5.510 -0.8824 -0.1157 -2.0121
  216MOL    C4739177   2.455   7.532   5.459 -0.0785  0.8155  0.5053
  216MOL    C4839178   2.539   7.472   5.347  0.6962  0.2342 -0.4809
  216MOL    C4939179   2.473   7.511   5.212  0.6190 -0.0003  0.2155
  216MOL    O5039180   2.365   7.573   5.192 -0.3265  0.4129 -0.3103
  216MOL    O5139181   2.550   7.473   5.108  0.2115 -0.1469 -0.4240
  216MOL    H5239182   2.350   7.510   5.443 -0.1617 -0.0820  2.1558
  216MOL    H5339183   2.473   7.480   5.553  1.9583 -1.9858 -1.3514
  216MOL    H5439184   2.640   7.512   5.347  1.0720 -0.7209  0.6206
  216MOL    H5539185   2.508   7.489   5.025  2.5821 -0.4786 -1.7187
  216MOL    C5639186   2.556   7.320   5.348 -0.6835  0.0787  0.2974
  216MOL    C5739187   2.696   7.267   5.305  0.2249 -0.2863  0.8029
  216MOL    C5839188   2.699   7.217   5.154 -0.2497 -0.0804 -0.5955
  216MOL    O5939189   2.784   7.247   5.076 -0.7743 -0.0902 -0.2320
  216MOL    O6039190   2.595   7.139   5.123 -0.0480 -0.0604  0.0682
  216MOL    H6139191   2.476   7.275   5.289 -0.3583  0.4733 -0.4504
  216MOL    H6239192   2.532   7.293   5.450 -1.0416 -0.5782  0.0438
  216MOL    H6339193   2.761   7.354   5.305  0.0212 -0.1233 -0.3522
  216MOL    H6439194   2.601   7.103   5.036  0.5096 -1.0895  0.5304
  216MOL    C6539195   2.761   7.169   5.403 -0.1537 -0.4680  0.9168
  216MOL    C6639196   2.920   7.164   5.390 -0.3487  0.1604 -0.2746
  216MOL    C6739197   2.972   7.040   5.320 -0.5475 -0.1502  0.0627
  216MOL    O6839198   2.905   6.939   5.304  0.0776 -0.0755  0.8209
  216MOL    O6939199   3.104   7.051   5.284  0.3635  0.2712  0.1279
  216MOL    H7039200   2.706   7.075   5.391 -0.8564  0.1713 -1.0545
  216MOL    H7139201   2.734   7.198   5.504  2.2510  0.8235  1.2205
  216MOL    H7239202   2.946   7.240   5.316 -1.4083 -0.7057 -1.5605
  216MOL    H7339203   3.129   6.968   5.247 -3.8337 -2.9563  3.9850
  216MOL    C7439204   2.980   7.188   5.531 -0.1930 -0.0731  0.9924
  216MOL    C7539205   2.969   7.340   5.573  0.1285  0.3489 -0.4983
  216MOL    C7639206   3.031   7.438   5.471 -0.2328 -0.8098 -0.6326
  216MOL    O7739207   3.142   7.418   5.419 -0.3329  0.5112  0.0206
  216MOL    O7839208   2.945   7.539   5.444 -0.5495 -0.4274 -0.3868
  216MOL    H7939209   3.086   7.164   5.535  0.6120  2.8257 -1.2155
  216MOL    H8039210   2.931   7.115   5.596 -0.3853 -0.2444  0.6550
  216MOL    H8139211   2.864   7.368   5.583  0.8129  2.5759  0.9224
  216MOL    H8239212   2.968   7.603   5.379 -1.9570  0.0118 -0.4803
  216MOL    C8339213   3.011   7.377   5.720 -0.2017 -0.4663  0.2355
  216MOL    C8439214   2.946   7.294   5.827  0.5190  0.5205  0.0108
  216MOL    C8539215   2.852   7.389   5.910 -0.6826  0.6759  0.2637
  216MOL    O8639216   2.848   7.398   6.030 -0.1705  0.7626 -1.1688
  216MOL    O8739217   2.768   7.463   5.834  0.2106 -0.1095 -0.2808
  216MOL    H8839218   2.983   7.483   5.723  2.3758  0.2813 -0.8573
  216MOL    H8939219   3.118   7.387   5.739 -0.0422 -0.7242 -0.5430
  216MOL    H9039220   2.872   7.230   5.779 -0.1399 -0.9249  2.8322
  216MOL    H9139221   2.694   7.499   5.880 -0.3082 -2.7940  1.1030
  216MOL    C9239222   3.043   7.197   5.908 -0.7756  0.1197  0.5237
  216MOL    C9339223   2.979   7.092   6.002 -0.3675 -0.9247 -0.2746
  216MOL    C9439224   3.075   7.025   6.094  0.0161 -0.7131  0.2078
  216MOL    O9539225   3.121   6.921   6.071 -0.0494 -0.7932  0.1846
  216MOL    O9639226   3.087   7.097   6.213 -0.4318 -0.2516  0.2085
  216MOL    H9739227   3.098   7.273   5.964  0.9955  0.5936 -1.7855
  216MOL    H9839228   3.100   7.147   5.830 -1.1589 -0.0974  0.3782
  216MOL    H9939229   2.925   7.159   6.070 -0.8153  0.1170 -1.6479
  216MOL   H10039230   3.140   7.062   6.282  1.7792 -0.4416 -1.5447
  216MOL   C10139231   2.877   7.003   5.925  0.3122 -0.1026 -0.1432
  216MOL   C10239232   2.732   7.028   5.955 -0.2015  0.3686  0.2719
  216MOL   C10339233   2.682   6.937   6.065 -0.7235  0.0891  0.5412
  216MOL   O10439234   2.713   6.815   6.070 -0.2783  0.4481  0.3453
  216MOL   O10539235   2.577   6.991   6.135  0.0044 -0.4529 -0.1129
  216MOL   H10639236   2.907   6.902   5.953  1.9105  0.6342  0.8699
  216MOL   H10739237   2.899   7.015   5.819 -1.5716  1.1265 -0.4198
  216MOL   H10839238   2.721   7.132   5.986 -2.2295  0.4746 -0.7020
  216MOL   H10939239   2.534   6.926   6.188 -0.5355  0.0515  0.0682
  216MOL   C11039240   2.638   7.012   5.835 -0.4506  0.6019 -0.1016
  216MOL   C11139241   2.495   7.078   5.844 -0.3753 -0.1541  0.8539
  216MOL   C11239242   2.405   7.033   5.732  0.3773 -0.1799  0.5313
  216MOL   O11339243   2.397   7.093   5.620  0.4528  0.4370  0.3785
  216MOL   O11439244   2.345   6.913   5.773  0.2147  0.3519 -0.3423
  216MOL   H11539245   2.632   6.906   5.810  1.1567  0.6496 -0.8065
  216MOL   H11639246   2.689   7.057   5.750 -0.4811 -0.1052 -0.4989
  216MOL   H11739247   2.447   7.045   5.936 -0.2283  4.0268  2.5498
  216MOL   H11839248   2.283   6.891   5.705 -0.3705  1.1745 -0.0762
  216MOL   C11939249   2.495   7.231   5.857  0.1325  0.2945  0.1049
  216MOL   C12039250   2.372   7.317   5.893 -0.3593  0.3629 -0.0492
  216MOL   C12139251   2.404   7.461   5.890  0.1288 -0.7743 -0.4345
  216MOL   O12239252   2.517   7.509   5.905 -0.2022 -0.2724  0.0496
  216MOL   O12339253   2.291   7.531   5.855  0.0246  0.3836  0.7417
  216MOL   H12439254   2.531   7.277   5.764 -1.7936  1.0600 -0.2824
  216MOL   H12539255   2.578   7.255   5.924  0.7387  0.5677 -0.7258
  216MOL   H12639256   2.305   7.303   5.807 -0.4344  0.4359 -0.0028
  216MOL   H12739257   2.297   7.625   5.856  0.0960  0.3793  2.2932
  216MOL   C12839258   2.295   7.270   6.018  0.4083  0.3461  0.0105
  216MOL   C12939259   2.368   7.257   6.157 -0.4673 -0.5452  0.5943
  216MOL   C13039260   2.311   7.149   6.250 -0.1024  0.2106 -0.9228
  216MOL   O13139261   2.233   7.064   6.209  0.7914  0.2633 -0.1992
  216MOL   O13239262   2.359   7.161   6.378 -0.0294  0.1923 -0.1976
  216MOL   H13339263   2.256   7.171   5.993  0.8828  0.0602  0.3800
  216MOL   H13439264   2.203   7.328   6.025 -0.2073 -0.3427 -2.0886
  216MOL   H13539265   2.469   7.226   6.132 -0.1441 -0.3919  1.6925
  216MOL   H13639266   2.329   7.087   6.428  1.8858 -1.1982 -1.0661
  216MOL   C13739267   2.382   7.407   6.222  0.1417 -0.2031  0.5162
  216MOL   C13839268   2.526   7.465   6.236  0.2004  0.3472 -0.1599
  216MOL   C13939269   2.624   7.374   6.313  0.5583 -0.1794 -0.3924
  216MOL   O14039270   2.643   7.385   6.438  0.3682 -0.2236  0.5142
  216MOL   O14139271   2.695   7.286   6.231  0.5334 -0.2198 -0.6736
  216MOL   H14239272   2.349   7.411   6.326  2.0105 -4.1624  1.3674
  216MOL   H14339273   2.317   7.482   6.178  0.2629  0.0216  0.7216
  216MOL   H14439274   2.567   7.476   6.136  0.2125 -1.5031 -0.3712
  216MOL   H14539275   2.749   7.227   6.282 -0.4022  0.3382  1.0006
  216MOL   C14639276   2.513   7.606   6.303 -0.2672  0.1497 -0.2287
  216MOL   C14739277   2.480   7.719   6.198 -0.0364  0.2085 -0.3438
  216MOL   C14839278   2.590   7.764   6.107 -0.3623 -1.0257 -0.1269
  216MOL   O14939279   2.709   7.744   6.126 -0.7210 -0.1161  0.0471
  216MOL   O15039280   2.548   7.816   5.994  0.6477  0.0406  0.1998
  216MOL   H15139281   2.611   7.634   6.344 -0.5015  0.9104 -0.1772
  216MOL   H15239282   2.454   7.611   6.395 -1.7202  0.5981 -1.1730
  216MOL   H15339283   2.413   7.670   6.128 -0.8801 -1.3209  1.5017
  216MOL   H15439284   2.613   0.010   5.945 -1.5559  2.8175 -0.2451
  216MOL   C15539285   2.402   7.830   6.278 -0.5206 -0.4257 -0.1435
  216MOL   C15639286   2.315   0.086   6.211  0.0997  0.1091 -0.0863
  216MOL   C15739287   2.195   0.023   6.130 -0.2665  0.3977  0.2011
  216MOL   O15839288   2.174   7.752   6.125 -0.0527 -0.3417  0.2373
  216MOL   O15939289   2.111   0.119   6.077  0.5078  0.3220 -0.2926
  216MOL   H16039290   2.474   0.031   6.339  0.2898 -1.3677 -0.2645
  216MOL   H16139291   2.323   7.779   6.333  0.6189 -2.1082 -0.0407
  216MOL   H16239292   2.264   0.131   6.296 -0.9104  0.0721 -0.6647
  216MOL   H16339293   2.044   0.073   6.029  1.2337  1.6860 -2.7291
  216MOL   C16439294   2.403   0.201   6.141  0.2061 -0.6288 -0.0132
  216MOL   C16539295   2.379   0.347   6.178 -0.4606 -0.2545 -0.3969
  216MOL   C16639296   2.423   0.393   6.317 -0.3187 -0.4769 -0.7226
  216MOL   O16739297   2.474   0.504   6.328 -0.0237  0.5232  0.1689
  216MOL   O16839298   2.411   0.299   6.413 -0.1275  0.0111  0.0274
  216MOL   H16939299   2.376   0.197   6.035  2.8309  2.7323 -0.8996
  216MOL   H17039300   2.505   0.168   6.159 -0.1499 -0.7701  1.8667
  216MOL   H17139301   2.450   0.394   6.110  1.3569  0.6694  2.0406
  216MOL   H17239302   2.425   0.328   6.502  1.4968  0.0789 -0.2429
  216MOL   C17339303   2.254   0.417   6.128  0.1044  0.1167  0.7654
  216MOL   C17439304   2.139   0.433   6.230  0.3352  0.6133  0.3560
  216MOL   C17539305   2.005   0.475   6.163  0.1926  0.5654 -0.7108
  216MOL   O17639306   1.983   0.490   6.042 -0.1624  0.3213 -0.3061
  216MOL   O17739307   1.915   0.480   6.263  0.1615 -0.5634 -0.0467
  216MOL   H17839308   2.215   0.343   6.057 -0.5243  1.7202 -0.5797
  216MOL   H17939309   2.267   0.515   6.083  2.2612 -1.0212 -1.2759
  216MOL   H18039310   2.135   0.348   6.299  0.5200  0.7470  0.5317
  216MOL   H18139311   1.833   0.495   6.220  1.1668  0.5869 -1.6181
  216MOL   H18239312   2.151   0.516   6.300  1.5233  0.2368  0.6069
  217MOL     C139313   7.610   5.104   3.912 -0.7077  0.1903 -0.3831
  217MOL     C239314   7.695   5.197   4.008 -0.3105 -0.0674  0.1857
  217MOL     C339315   7.835   5.216   3.954  0.6060  0.7141  0.5962
  217MOL     O439316   0.085   5.195   4.014 -0.0270  0.2347  0.2063
  217MOL     O539317   7.838   5.264   3.827 -0.5013 -0.5634 -0.0254
  217MOL     H639318   7.508   5.103   3.950  0.3064  2.1566  2.5618
  217MOL     H739319   7.623   5.138   3.810  0.7375  0.3733 -0.1400
  217MOL     H839320   7.650   5.297   4.002  0.6615  0.3433 -0.4932
  217MOL     H939321   0.073   5.248   3.795 -0.5456  0.2723 -0.5891
  217MOL    H1039322   7.644   5.000   3.902 -1.5764 -0.2153  0.6975
  217MOL    C1139323   7.686   5.142   4.157 -0.1504 -0.6178 -0.7286
  217MOL    C1239324   7.639   5.243   4.270  0.2607 -0.0215 -0.0187
  217MOL    C1339325   7.735   5.356   4.294 -0.3411  0.2176  0.6887
  217MOL    O1439326   7.719   5.460   4.228 -0.3749 -0.6672 -0.4708
  217MOL    O1539327   7.843   5.329   4.374 -0.1813  0.0294  0.1293
  217MOL    H1639328   7.779   5.089   4.179 -0.6422 -0.6548  1.3793
  217MOL    H1739329   7.618   5.057   4.161 -0.4544 -0.3609 -0.4000
  217MOL    H1839330   7.548   5.294   4.237  0.8955 -0.6879 -2.8921
  217MOL    H1939331   0.059   5.393   4.379  0.7260 -0.7627 -1.7383
  217MOL    C2039332   7.607   5.161   4.402  0.2230 -0.1321 -0.7325
  217MOL    C2139333   7.467   5.092   4.399 -0.0439  0.1489  0.0260
  217MOL    C2239334   7.350   5.189   4.414  0.3962 -0.1949  0.2919
  217MOL    O2339335   7.302   5.226   4.521 -0.6241  0.0535 -0.1213
  217MOL    O2439336   7.294   5.218   4.292 -0.4136  0.0040  0.2159
  217MOL    H2539337   7.613   5.225   4.490  2.6789 -0.7477 -0.3963
  217MOL    H2639338   7.689   5.089   4.409 -2.1444 -2.9822 -1.2438
  217MOL    H2739339   7.456   5.040   4.304  0.8057  0.0670 -0.0306
  217MOL    H2839340   7.222   5.278   4.304  0.0129  0.4763  0.4420
  217MOL    C2939341   7.469   4.972   4.499  0.0192  0.0738  0.3025
  217MOL    C3039342   7.352   4.871   4.487 -0.0761  0.2854 -0.6009
  217MOL    C3139343   7.333   4.795   4.625 -0.0426 -0.3964  0.3834
  217MOL    O3239344   7.415   4.786   4.714  0.2222  0.5240 -0.3819
  217MOL    O3339345   7.204   4.748   4.641 -0.1727 -0.3839  0.1454
  217MOL    H3439346   7.469   5.013   4.600 -0.3421  0.5305  0.1188
  217MOL    H3539347   7.564   4.923   4.477 -0.1392 -0.1594  0.1337
  217MOL    H3639348   7.257   4.923   4.474 -0.0504  0.3238 -0.6365
  217MOL    H3739349   7.197   4.716   4.729  1.0281 -1.4284 -0.1345
  217MOL    C3839350   7.369   4.775   4.365  0.3153  0.3885 -0.5664
  217MOL    C3939351   7.234   4.709   4.310 -0.3086 -0.9723 -0.6232
  217MOL    C4039352   7.270   4.574   4.239  0.1992 -0.4390  0.0384
  217MOL    O4139353   7.386   4.533   4.230 -0.2808 -0.4977  0.2362
  217MOL    O4239354   7.155   4.505   4.212 -0.0992 -0.6680  0.6814
  217MOL    H4339355   7.422   4.689   4.407  0.1600  0.3692 -0.4119
  217MOL    H4439356   7.440   4.811   4.290 -0.1127 -0.0234 -1.1742
  217MOL    H4539357   7.183   4.676   4.400  0.2438 -1.8258 -0.6116
  217MOL    H4639358   7.173   4.418   4.180  1.6157  0.3343 -1.1455
  217MOL    C4739359   7.144   4.799   4.218 -0.6743  0.3781  0.0710
  217MOL    C4839360   7.006   4.845   4.272  0.1950  0.9716 -0.1015
  217MOL    C4939361   6.898   4.732   4.288  1.0383 -0.2320  0.3151
  217MOL    O5039362   6.885   4.639   4.208 -0.4530 -0.0959  0.2113
  217MOL    O5139363   6.821   4.750   4.398 -0.0845  0.1268  0.3527
  217MOL    H5239364   7.133   4.760   4.117  1.4757  3.2336 -1.3351
  217MOL    H5339365   7.192   4.896   4.205  0.0024  0.1556  0.8873
  217MOL    H5439366   7.049   4.875   4.368  0.4269 -0.7205  0.3369
  217MOL    H5539367   6.760   4.678   4.396 -1.0764  0.9577 -0.8975
  217MOL    C5639368   6.946   4.956   4.183  0.0010 -0.5810 -0.0725
  217MOL    C5739369   6.867   5.073   4.247 -0.0903 -0.0676 -0.8713
  217MOL    C5839370   6.940   5.143   4.364 -0.3000  0.1096  0.7434
  217MOL    O5939371   6.990   5.252   4.349 -0.5467  0.2896  0.1831
  217MOL    O6039372   6.945   5.074   4.476  0.4182  0.1891 -0.5100
  217MOL    H6139373   6.897   4.916   4.094  1.0707 -1.3026 -0.3480
  217MOL    H6239374   7.034   5.005   4.143 -0.1872  0.1136  0.3506
  217MOL    H6339375   6.864   5.138   4.159 -2.6419 -0.4691 -1.1235
  217MOL    H6439376   6.982   5.117   4.552 -0.9953  1.7744 -0.6637
  217MOL    C6539377   6.726   5.032   4.285 -0.2656 -0.0831  0.3661
  217MOL    C6639378   6.628   5.144   4.305 -0.2706  0.5885 -0.3058
  217MOL    C6739379   6.492   5.093   4.357 -0.7088  0.0768 -0.0065
  217MOL    O6839380   6.446   4.984   4.311  0.0255  0.0289 -0.5702
  217MOL    O6939381   6.423   5.185   4.429  0.0044 -0.7417  0.0277
  217MOL    H7039382   6.724   4.974   4.377 -0.3995  0.8243  0.9348
  217MOL    H7139383   6.672   4.968   4.215  2.4980 -0.4170 -1.5295
  217MOL    H7239384   6.664   5.198   4.393 -0.6111  0.3749 -0.0330
  217MOL    H7339385   6.336   5.154   4.447  0.0843 -1.3505 -0.6543
  217MOL    C7439386   6.608   5.230   4.176 -0.3309 -0.0786 -0.8247
  217MOL    C7539387   6.673   5.364   4.168 -0.1871 -0.5628  0.3023
  217MOL    C7639388   6.609   5.460   4.270 -0.3067  0.5722  0.1280
  217MOL    O7739389   6.681   5.496   4.363  0.3187 -0.0418 -0.5468
  217MOL    O7839390   6.481   5.496   4.248  0.2079  0.0694 -0.3213
  217MOL    H7939391   6.500   5.242   4.168 -0.3439 -0.4383 -1.1775
  217MOL    H8039392   6.623   5.173   4.085 -0.3472  0.2650 -1.0419
  217MOL    H8139393   6.779   5.355   4.190  0.3564  1.3789 -1.4226
  217MOL    H8239394   6.462   5.575   4.296  1.6630  0.0426  0.3089
  217MOL    C8339395   6.650   5.423   4.025 -0.2772  0.1264 -0.0860
  217MOL    C8439396   6.752   5.381   3.913  0.4528 -0.5614  0.6140
  217MOL    C8539397   6.893   5.431   3.946  0.6801  0.2513 -0.5007
  217MOL    O8639398   6.903   5.532   4.019 -0.0271 -0.0069  0.2865
  217MOL    O8739399   6.994   5.345   3.897  0.2970  0.2581  0.3819
  217MOL    H8839400   6.667   5.529   4.038  0.3373 -0.1500  1.5166
  217MOL    H8939401   6.547   5.408   3.993 -1.4195 -0.6382  3.6657
  217MOL    H9039402   6.749   5.273   3.902 -0.1210 -0.6309  1.4095
  217MOL    H9139403   7.078   5.385   3.913  1.2085 -1.1939 -0.6816
  217MOL    C9239404   6.702   5.447   3.775  0.0724  0.3022 -0.3077
  217MOL    C9339405   6.791   5.418   3.648  0.3526  0.9061 -0.3889
  217MOL    C9439406   6.855   5.550   3.603  0.8216  0.0630 -0.0692
  217MOL    O9539407   6.859   5.652   3.674  0.2691  0.1305  0.1815
  217MOL    O9639408   6.904   5.541   3.476  0.6101  0.0803  0.4468
  217MOL    H9739409   6.689   5.552   3.798 -2.7491 -0.6196  2.5011
  217MOL    H9839410   6.598   5.419   3.760 -0.0231  0.4209  0.1506
  217MOL    H9939411   6.879   5.361   3.678  0.4392  1.8681  1.2531
  217MOL   H10039412   6.932   5.625   3.443 -0.6033 -0.5729 -2.3960
  217MOL   C10139413   6.722   5.349   3.529  0.1678 -0.3529 -0.2712
  217MOL   C10239414   6.636   5.221   3.553 -0.1385 -0.9208 -0.2133
  217MOL   C10339415   6.693   5.127   3.664 -0.4703  0.1050 -0.1359
  217MOL   O10439416   6.623   5.096   3.759 -0.2195 -0.1171  0.2775
  217MOL   O10539417   6.827   5.094   3.641  0.3108 -0.2485 -0.2229
  217MOL   H10639418   6.806   5.335   3.461  0.1109  1.1444 -0.6823
  217MOL   H10739419   6.653   5.419   3.483  1.2148  0.1390 -1.1345
  217MOL   H10839420   6.537   5.248   3.588  0.6193  0.3365  1.0091
  217MOL   H10939421   6.864   5.052   3.718 -0.4180 -1.6967 -0.6405
  217MOL   C11039422   6.609   5.153   3.416  0.5269 -0.3021 -0.3368
  217MOL   C11139423   6.464   5.108   3.396  0.0602 -0.2578  0.1546
  217MOL   C11239424   6.419   5.009   3.502 -0.3185 -0.8691  0.4021
  217MOL   O11339425   6.491   4.914   3.539  0.2920  0.0813  0.1631
  217MOL   O11439426   6.307   5.065   3.570 -0.0227 -0.1175  0.0300
  217MOL   H11539427   6.674   5.066   3.409  1.0848  0.1212 -0.4034
  217MOL   H11639428   6.644   5.216   3.334 -0.8739  0.6693 -0.2231
  217MOL   H11739429   6.403   5.198   3.404 -2.1430 -1.6271 -0.7760
  217MOL   H11839430   6.305   5.023   3.655 -2.0318  2.0301  1.1243
  217MOL   C11939431   6.449   5.046   3.254 -0.1344 -0.0304  0.0318
  217MOL   C12039432   6.323   5.083   3.168  0.5788 -0.5349  0.5512
  217MOL   C12139433   6.192   5.019   3.227 -0.1539  0.3630 -0.0802
  217MOL   O12239434   6.083   5.067   3.214  0.2789 -0.4275 -0.6066
  217MOL   O12339435   6.219   4.904   3.290 -0.6159 -0.0064 -0.3940
  217MOL   H12439436   6.460   4.939   3.272  1.3928  0.4166  1.9505
  217MOL   H12539437   6.537   5.068   3.192  1.5520 -1.7483  1.7563
  217MOL   H12639438   6.326   5.191   3.177 -0.3318 -0.6094  1.9597
  217MOL   H12739439   6.134   4.864   3.299 -1.0073  1.2385  1.9205
  217MOL   C12839440   6.331   5.051   3.018  0.4300  0.3838  0.3419
  217MOL   C12939441   6.225   5.118   2.920  0.6018  0.1056  0.1381
  217MOL   C13039442   6.233   5.072   2.777 -0.5205  0.0388  0.3832
  217MOL   O13139443   6.130   5.038   2.715 -0.1088  0.8175 -0.0405
  217MOL   O13239444   6.364   5.052   2.738 -0.1122 -0.2011  0.0856
  217MOL   H13339445   6.336   4.943   3.001 -2.6809  0.1814  0.5128
  217MOL   H13439446   6.431   5.081   2.987  0.1141 -0.7218 -1.8526
  217MOL   H13539447   6.125   5.099   2.957  0.5764 -0.1819 -0.0836
  217MOL   H13639448   6.370   5.020   2.650  0.3581  2.8819 -1.0714
  217MOL   C13739449   6.254   5.276   2.918  0.5383  0.0687 -0.4097
  217MOL   C13839450   6.172   5.357   2.812  0.9608  0.2357 -0.0372
  217MOL   C13939451   6.247   5.489   2.794  0.6384 -0.4000  0.2661
  217MOL   O14039452   6.216   5.592   2.852 -0.0572  0.0646  0.2767
  217MOL   O14139453   6.345   5.486   2.697 -0.2222 -0.4044 -0.3101
  217MOL   H14239454   6.363   5.289   2.919  0.6285 -0.6498 -1.1086
  217MOL   H14339455   6.222   5.316   3.015 -1.7302  0.6033 -1.3665
  217MOL   H14439456   6.177   5.304   2.717 -0.7226 -0.0455  0.0141
  217MOL   H14539457   6.392   5.567   2.705  0.6905 -0.8390 -1.2432
  217MOL   C14639458   6.029   5.384   2.861 -0.1013  0.6951 -0.3956
  217MOL   C14739459   5.922   5.287   2.801 -0.8428  0.7046 -0.3239
  217MOL   C14839460   5.914   5.314   2.649 -0.6546  0.9006 -0.6543
  217MOL   O14939461   5.853   5.410   2.597 -0.5999 -0.6819  0.7073
  217MOL   O15039462   5.978   5.213   2.574 -0.7271 -0.4393 -0.1577
  217MOL   H15139463   5.997   5.485   2.834 -1.1274  0.6050  0.4763
  217MOL   H15239464   6.029   5.395   2.970 -2.3074 -0.1055 -0.2986
  217MOL   H15339465   5.954   5.184   2.818  1.3001  1.3576 -0.2291
  217MOL   H15439466   6.027   5.156   2.631 -0.5807  0.4945  0.6696
  217MOL   C15539467   5.790   5.296   2.883 -0.3038 -1.0752  0.6618
  217MOL   C15639468   5.732   5.162   2.923 -0.4221  0.4093 -0.0637
  217MOL   C15739469   5.649   5.100   2.810  0.2430  0.1398  0.3114
  217MOL   O15839470   5.532   5.063   2.824 -0.8608 -0.1101 -0.3771
  217MOL   O15939471   5.717   5.094   2.691 -0.0363  0.0376  0.0379
  217MOL   H16039472   5.717   5.357   2.830 -1.3351 -0.3524  2.8564
  217MOL   H16139473   5.810   5.365   2.965 -1.1293 -0.0471  0.0040
  217MOL   H16239474   5.816   5.094   2.933 -0.3988  0.4730  0.1537
  217MOL   H16339475   5.659   5.055   2.627  0.4836  0.9787 -1.0317
  217MOL   C16439476   5.662   5.179   3.056 -0.0319  0.9724 -0.0477
  217MOL   C16539477   5.622   5.046   3.122  0.1695 -0.4031  0.1360
  217MOL   C16639478   5.480   5.056   3.171  0.3161 -0.1987 -0.5440
  217MOL   O16739479   5.448   5.063   3.290  0.2948 -0.1322  0.9396
  217MOL   O16839480   5.392   5.064   3.065 -1.0690  0.0772 -0.0936
  217MOL   H16939481   5.586   5.257   3.048 -0.0286  0.8867 -0.9234
  217MOL   H17039482   5.740   5.218   3.121  0.5938  0.9944 -0.8045
  217MOL   H17139483   5.615   4.977   3.038 -1.4142 -1.3785  1.0433
  217MOL   H17239484   5.452   5.069   2.992  0.2714 -1.2341  0.8887
  217MOL   C17339485   5.730   4.990   3.225  0.0619 -0.1043 -0.3702
  217MOL   C17439486   5.686   4.853   3.280  0.0745  0.4090 -0.2233
  217MOL   C17539487   5.789   4.786   3.360 -0.3574  0.4287  1.5039
  217MOL   O17639488   5.891   4.839   3.400  1.2528  0.1390 -0.0413
  217MOL   O17739489   5.755   4.656   3.383  0.6314 -0.0564  0.1255
  217MOL   H17839490   5.753   5.061   3.304 -0.1709  2.8698 -2.9007
  217MOL   H17939491   5.823   4.983   3.168  1.4172 -2.0645  1.9735
  217MOL   H18039492   5.607   4.868   3.353 -0.7113 -1.8348 -0.5585
  217MOL   H18139493   5.814   4.606   3.438  0.5780 -2.5364 -1.9795
  217MOL   H18239494   5.655   4.786   3.200 -0.4759  0.0518  0.2855
  218MOL     C139495   1.888   1.865   6.642  0.3145 -0.5744 -0.1706
  218MOL     C239496   1.911   1.868   6.795 -0.0708  0.5716  0.3043
  218MOL     C339497   1.813   1.973   6.858  0.1174 -0.3954  0.4558
  218MOL     O439498   1.845   2.082   6.898  0.2192  0.1208  0.1100
  218MOL     O539499   1.692   1.907   6.869  0.4837 -0.2042  0.1416
  218MOL     H639500   1.944   1.789   6.588 -0.3678 -1.8611  0.9060
  218MOL     H739501   1.791   1.821   6.622  0.4343 -0.7175 -0.4289
  218MOL     H839502   1.888   1.768   6.833  0.1103  0.1792 -0.6011
  218MOL     H939503   1.625   1.969   6.892 -0.7488 -1.3091 -0.4037
  218MOL    H1039504   1.895   1.963   6.594 -0.3025  0.2202  1.3150
  218MOL    C1139505   2.063   1.877   6.839  0.4129 -0.1055 -0.1623
  218MOL    C1239506   2.164   1.762   6.816 -0.3544  0.2570 -0.3112
  218MOL    C1339507   2.143   1.647   6.920  0.9792 -0.0262 -0.7973
  218MOL    O1439508   2.043   1.650   6.989 -0.3637  0.3587  0.3575
  218MOL    O1539509   2.232   1.549   6.914  0.1394 -0.6937 -0.5643
  218MOL    H1639510   2.062   1.908   6.943  1.7191  0.7255 -0.3854
  218MOL    H1739511   2.098   1.979   6.822 -1.0239  0.4683  0.2322
  218MOL    H1839512   2.136   1.713   6.723  1.8706 -3.0358  0.6410
  218MOL    H1939513   2.213   1.483   6.979 -2.5966  1.0730  0.5040
  218MOL    C2039514   2.314   1.805   6.809 -0.5380  0.0802  0.1033
  218MOL    C2139515   2.375   1.765   6.665 -0.0447  0.8419 -0.1443
  218MOL    C2239516   2.396   1.617   6.643  0.4096 -0.0472 -0.2578
  218MOL    O2339517   2.494   1.559   6.686 -0.8518  0.2037 -0.0401
  218MOL    O2439518   2.286   1.556   6.601 -0.2251  0.4692  0.1371
  218MOL    H2539519   2.381   1.761   6.883  0.4659  1.4577  0.0323
  218MOL    H2639520   2.327   1.912   6.827 -0.3529  0.2213 -0.8471
  218MOL    H2739521   2.299   1.779   6.589 -1.1823  2.0976  1.1868
  218MOL    H2839522   2.299   1.463   6.591  2.1188  0.6326  1.4456
  218MOL    C2939523   2.494   1.853   6.610 -0.2973 -0.1700 -0.8172
  218MOL    C3039524   2.505   1.885   6.459  0.3627 -0.0625  0.4044
  218MOL    C3139525   2.644   1.927   6.416  0.1302 -0.0335 -0.0395
  218MOL    O3239526   2.699   1.887   6.314  0.0187  0.0779 -0.1775
  218MOL    O3339527   2.684   2.031   6.496 -0.3621 -0.4443  0.9306
  218MOL    H3439528   2.584   1.806   6.651 -1.1801 -0.9567  0.2570
  218MOL    H3539529   2.485   1.950   6.658 -0.8210 -0.5912 -0.0527
  218MOL    H3639530   2.501   1.783   6.420  1.4794  0.2556 -0.5625
  218MOL    H3739531   2.763   2.063   6.455 -1.0827  0.7306  0.4258
  218MOL    C3839532   2.385   1.965   6.398 -0.0702 -1.1345  0.1625
  218MOL    C3939533   2.377   2.114   6.432 -0.2062 -0.5346  0.6540
  218MOL    C4039534   2.296   2.140   6.555 -0.3147 -0.4000 -0.3153
  218MOL    O4139535   2.352   2.176   6.661  0.4813 -0.1549  0.5242
  218MOL    O4239536   2.161   2.119   6.540 -0.1521 -0.1912 -0.5841
  218MOL    H4339537   2.296   1.911   6.430 -0.0034 -0.4663  1.4900
  218MOL    H4439538   2.370   1.946   6.291 -3.7092 -0.3919  0.4832
  218MOL    H4539539   2.475   2.161   6.446  0.2083 -1.8286  2.3359
  218MOL    H4639540   2.121   2.130   6.624  2.1669  0.9632  0.4270
  218MOL    C4739541   2.305   2.191   6.315  0.0009 -0.5170  0.2653
  218MOL    C4839542   2.386   2.289   6.229  0.2542 -0.1599 -0.1539
  218MOL    C4939543   2.478   2.220   6.130 -0.4756  0.9592  0.5609
  218MOL    O5039544   2.517   2.105   6.136 -0.5710  0.0932 -0.5297
  218MOL    O5139545   2.504   2.306   6.029 -0.5015 -0.2217 -0.0265
  218MOL    H5239546   2.233   2.261   6.358 -2.2019 -1.2928 -2.0460
  218MOL    H5339547   2.249   2.121   6.254  0.0905  0.9659 -1.5630
  218MOL    H5439548   2.308   2.327   6.163 -0.2519  2.0174  1.6178
  218MOL    H5539549   2.470   2.392   6.048  2.4639  0.7545  1.0766
  218MOL    C5639550   2.455   2.401   6.311 -0.2311 -0.7582  0.0375
  218MOL    C5739551   2.362   2.503   6.390 -0.1894  0.1883 -0.1538
  218MOL    C5839552   2.265   2.574   6.291  0.4218 -0.1677  0.5514
  218MOL    O5939553   2.142   2.559   6.291 -0.0324 -0.0763  0.1089
  218MOL    O6039554   2.339   2.654   6.203  0.5721  0.7835 -0.3318
  218MOL    H6139555   2.512   2.457   6.237 -2.1940 -2.5393 -2.9335
  218MOL    H6239556   2.520   2.353   6.384  0.7435  2.4243  1.3100
  218MOL    H6339557   2.298   2.452   6.462  0.8747  0.3905  0.9532
  218MOL    H6439558   2.279   2.673   6.133 -1.4145  0.9113  1.3458
  218MOL    C6539559   2.455   2.602   6.474  0.4532  0.4763 -0.3715
  218MOL    C6639560   2.392   2.736   6.519  0.0448 -0.4391 -0.6054
  218MOL    C6739561   2.433   2.849   6.427  0.3724  0.0285  0.2472
  218MOL    O6839562   2.546   2.870   6.388 -0.0627  0.5345  0.6458
  218MOL    O6939563   2.322   2.910   6.372 -0.0313 -0.1920  0.2688
  218MOL    H7039564   2.555   2.608   6.430  0.0704  0.0785 -1.3177
  218MOL    H7139565   2.479   2.553   6.568 -3.1093 -3.9008 -1.5540
  218MOL    H7239566   2.283   2.729   6.521 -0.0358  0.2644 -1.7120
  218MOL    H7339567   2.352   2.951   6.293  1.1556 -0.4863  0.5483
  218MOL    C7439568   2.411   2.772   6.676  0.0754  0.2409  0.3079
  218MOL    C7539569   2.289   2.740   6.765 -0.3112 -0.0068 -0.1294
  218MOL    C7639570   2.308   2.791   6.903 -0.3097 -0.0908 -0.7777
  218MOL    O7739571   2.302   2.722   7.004  0.0678  0.0285 -0.5887
  218MOL    O7839572   2.337   2.923   6.903 -0.2522  0.1877 -0.6203
  218MOL    H7939573   2.447   2.875   6.687  1.9708 -0.1150 -2.0552
  218MOL    H8039574   2.500   2.722   6.714  0.3425  0.1404 -0.4430
  218MOL    H8139575   2.196   2.786   6.731  0.4547  2.6306  1.2284
  218MOL    H8239576   2.332   2.960   6.989  0.3665 -0.6470 -0.2201
  218MOL    C8339577   2.259   2.588   6.774  0.2161  0.0783 -0.2353
  218MOL    C8439578   2.113   2.527   6.792 -0.3188  0.7267 -0.1800
  218MOL    C8539579   2.109   2.412   6.890  0.3613 -0.2491 -0.1231
  218MOL    O8639580   2.104   2.295   6.850 -0.1444 -0.5750 -0.0979
  218MOL    O8739581   2.130   2.456   7.021 -0.3169  0.0199 -0.0515
  218MOL    H8839582   2.317   2.545   6.855  0.9628 -0.0510 -0.8248
  218MOL    H8939583   2.311   2.543   6.689  0.7811  3.0268 -1.5453
  218MOL    H9039584   2.044   2.603   6.829  1.1196  1.3455  1.3249
  218MOL    H9139585   2.144   2.386   7.083  0.5323  0.5558  0.3959
  218MOL    C9239586   2.056   2.481   6.662  0.1475 -0.5358  0.2603
  218MOL    C9339587   1.906   2.460   6.640  0.2916 -0.5800 -0.1560
  218MOL    C9439588   1.814   2.585   6.660 -0.2285  0.5797 -0.5471
  218MOL    O9539589   1.819   2.666   6.754 -0.3985 -0.2339 -0.3046
  218MOL    O9639590   1.738   2.597   6.549 -0.3015 -0.1054  0.8269
  218MOL    H9739591   2.110   2.390   6.633 -1.4021 -1.2876 -0.3161
  218MOL    H9839592   2.082   2.562   6.594 -0.1684 -1.4171 -0.9235
  218MOL    H9939593   1.900   2.438   6.533 -0.3534  1.1819 -0.5112
  218MOL   H10039594   1.668   2.659   6.559 -0.6371 -0.2339 -0.5745
  218MOL   C10139595   1.835   2.341   6.715 -0.0683 -0.0427  0.2631
  218MOL   C10239596   1.678   2.317   6.712  0.3897  1.1220 -0.3824
  218MOL   C10339597   1.620   2.294   6.848 -0.0590  0.3211 -0.2316
  218MOL   O10439598   1.565   2.185   6.889  0.0034  0.4871  0.1156
  218MOL   O10539599   1.642   2.397   6.926  0.0666 -0.3551 -0.2503
  218MOL   H10639600   1.856   2.341   6.822  1.3133 -1.0350  0.0106
  218MOL   H10739601   1.872   2.243   6.686 -2.3508 -1.3632  1.6290
  218MOL   H10839602   1.623   2.403   6.672  0.9691  1.9490  0.5547
  218MOL   H10939603   1.604   2.391   7.013  1.0461  0.8825  0.2721
  218MOL   C11039604   1.648   2.201   6.609  0.2351 -0.6506 -0.4846
  218MOL   C11139605   1.669   2.240   6.458 -0.2237 -0.1055 -0.7120
  218MOL   C11239606   1.538   2.300   6.402 -0.1663  0.4722 -0.0721
  218MOL   O11339607   1.479   2.242   6.318  0.1749  0.0590  0.1781
  218MOL   O11439608   1.513   2.417   6.463 -0.2150  0.0439  0.1651
  218MOL   H11539609   1.540   2.189   6.622  0.3261  0.3257  1.2793
  218MOL   H11639610   1.710   2.116   6.638  0.1346 -0.1031  1.3829
  218MOL   H11739611   1.743   2.320   6.465  2.2484 -2.5296  2.2885
  218MOL   H11839612   1.458   2.471   6.409 -0.5334  2.3103  2.6251
  218MOL   C11939613   1.746   2.134   6.385 -0.5344  0.0932 -0.0965
  218MOL   C12039614   1.793   2.167   6.234 -0.3100  0.3495 -0.0277
  218MOL   C12139615   1.833   2.041   6.160 -0.0792  0.2973  0.0369
  218MOL   O12239616   1.936   2.029   6.092  0.4772 -0.4735  0.0341
  218MOL   O12339617   1.739   1.945   6.169 -0.1891 -0.0952  0.1089
  218MOL   H12439618   1.691   2.040   6.391 -1.5066  0.6039 -0.8737
  218MOL   H12539619   1.837   2.120   6.443  0.0148  0.7766 -0.7877
  218MOL   H12639620   1.708   2.217   6.189 -0.7967  0.5032  1.0552
  218MOL   H12739621   1.772   1.865   6.132  0.1659  0.1751 -0.1574
  218MOL   C12839622   1.916   2.262   6.228  0.0867 -0.2642 -0.1231
  218MOL   C12939623   1.911   2.380   6.127 -0.7004 -0.1900 -0.1789
  218MOL   C13039624   1.816   2.489   6.176  0.4609  0.6797  0.3173
  218MOL   O13139625   1.692   2.483   6.157 -0.2415 -0.4318 -0.2950
  218MOL   O13239626   1.879   2.593   6.237  0.3783  1.0087 -0.1920
  218MOL   H13339627   2.012   2.212   6.216 -0.1853 -1.1837  1.4427
  218MOL   H13439628   1.927   2.307   6.326 -0.0500  1.2584 -0.7835
  218MOL   H13539629   2.009   2.428   6.133 -0.7563 -0.2354  1.2560
  218MOL   H13639630   1.973   2.590   6.246  0.3390 -1.4930 -0.2639
  218MOL   C13739631   1.881   2.344   5.978 -0.0038  0.4726 -0.3399
  218MOL   C13839632   1.994   2.368   5.874  0.4493  0.8735 -0.2140
  218MOL   C13939633   2.128   2.297   5.904  0.3768  0.1239  0.1243
  218MOL   O14039634   2.237   2.339   5.881 -0.0034  0.0281 -0.2281
  218MOL   O14139635   2.104   2.169   5.944  0.4337  0.3960 -0.4676
  218MOL   H14239636   1.796   2.395   5.934 -0.4802  0.0764  0.1247
  218MOL   H14339637   1.838   2.244   5.982 -0.6325  0.7497 -0.1167
  218MOL   H14439638   1.955   2.323   5.783 -1.1443 -0.2868  1.0201
  218MOL   H14539639   2.012   2.154   5.954  0.7013  0.1698  2.1198
  218MOL   C14639640   2.012   2.514   5.830  0.2873  0.6250 -0.1131
  218MOL   C14739641   1.893   2.589   5.767  0.3767  0.2804  0.5829
  218MOL   C14839642   1.866   2.532   5.629  0.0186 -0.6560 -0.1565
  218MOL   O14939643   1.949   2.501   5.537  0.7720  0.2194 -0.6076
  218MOL   O15039644   1.735   2.518   5.605  0.5534  0.0566  0.3598
  218MOL   H15139645   2.095   2.509   5.760 -1.2901  1.4300 -2.1002
  218MOL   H15239646   2.048   2.570   5.916  0.6321 -0.9086  0.7505
  218MOL   H15339647   1.801   2.573   5.822 -0.2058 -1.0398 -0.7247
  218MOL   H15439648   1.706   2.467   5.530 -0.1588  1.6556 -0.4641
  218MOL   C15539649   1.921   2.741   5.753  0.2574 -0.6916 -0.5910
  218MOL   C15639650   1.889   2.830   5.875 -0.2070  0.1723  0.5938
  218MOL   C15739651   1.740   2.832   5.920 -0.6393 -0.3737 -0.5101
  218MOL   O15839652   1.706   2.762   6.018  0.0533 -0.3825  0.5380
  218MOL   O15939653   1.661   2.918   5.857 -0.0320  1.3223 -0.0081
  218MOL   H16039654   1.876   2.771   5.659  0.0309 -0.3313 -0.3686
  218MOL   H16139655   2.026   2.758   5.728  0.1995 -0.2240 -0.5119
  218MOL   H16239656   1.927   2.768   5.956  2.3905 -0.9463 -1.4063
  218MOL   H16339657   1.569   2.901   5.865  0.2511 -0.3695 -0.3416
  218MOL   C16439658   1.946   2.971   5.874 -0.2099  0.0309  0.0334
  218MOL   C16539659   2.097   2.981   5.914  0.2479  0.2833  0.2874
  218MOL   C16639660   2.138   2.897   6.042  0.0083 -0.0198  0.2439
  218MOL   O16739661   2.175   2.782   6.034 -0.2556  0.1825  0.1098
  218MOL   O16839662   2.139   2.967   6.157  0.3170  0.3645 -0.1153
  218MOL   H16939663   1.887   3.048   5.923 -4.5094 -1.5663 -2.3597
  218MOL   H17039664   1.945   3.000   5.769 -0.2776 -0.5999 -0.1450
  218MOL   H17139665   2.150   2.940   5.828 -1.6411  0.7184 -1.1277
  218MOL   H17239666   2.114   3.057   6.141 -1.1438  0.2739  1.5137
  218MOL   C17339667   2.146   3.123   5.925  0.5290 -0.0477  0.0091
  218MOL   C17439668   2.144   3.195   5.793 -0.4937 -0.0648 -0.1296
  218MOL   C17539669   2.191   3.338   5.811  0.3644 -0.7057 -0.4315
  218MOL   O17639670   2.241   3.382   5.912 -0.2220  0.0340  0.0474
  218MOL   O17739671   2.170   3.411   5.700  0.1535 -0.1289 -0.2821
  218MOL   H17839672   2.241   3.143   5.974  1.5076 -0.7458 -1.5464
  218MOL   H17939673   2.068   3.179   5.975 -0.4798  0.7750 -2.3985
  218MOL   H18039674   2.217   3.155   5.723  0.2792  1.4396 -0.2105
  218MOL   H18139675   2.235   3.479   5.693 -1.0892  1.2832  1.4720
  218MOL   H18239676   2.042   3.194   5.755 -0.1105  1.1197 -1.2188
  219MOL     C139677   4.970   0.832   1.379 -0.3463 -0.4663  0.1945
  219MOL     C239678   4.967   0.860   1.537 -0.1320 -0.5688 -0.1362
  219MOL     C339679   5.114   0.899   1.585 -0.4519  0.5188  0.3810
  219MOL     O439680   5.130   0.991   1.663  0.0619 -0.3667  0.3111
  219MOL     O539681   5.208   0.818   1.533  0.0471 -0.0735  0.1913
  219MOL     H639682   5.051   0.762   1.360  2.6900  2.3293  2.2465
  219MOL     H739683   4.879   0.795   1.332 -0.2768 -1.9177  1.1739
  219MOL     H839684   4.912   0.952   1.557 -0.1000 -0.7040  0.5877
  219MOL     H939685   5.300   0.835   1.545  0.1894  0.2907 -1.3622
  219MOL    H1039686   4.989   0.929   1.332 -1.3766  0.4777  1.6540
  219MOL    C1139687   4.921   0.740   1.627  0.1488  0.6172  0.2978
  219MOL    C1239688   4.793   0.764   1.706 -0.7785 -0.3378 -0.4920
  219MOL    C1339689   4.676   0.814   1.621 -0.5018  0.8782  0.3335
  219MOL    O1439690   4.657   0.929   1.594  0.1276  0.2600 -0.4424
  219MOL    O1539691   4.593   0.715   1.589 -0.4548 -0.0541 -0.0042
  219MOL    H1639692   5.006   0.712   1.690 -1.4019 -1.6993  1.4610
  219MOL    H1739693   4.914   0.658   1.555  1.1201  1.2938 -0.5959
  219MOL    H1839694   4.762   0.668   1.747 -1.6940 -0.2142 -0.8853
  219MOL    H1939695   4.517   0.757   1.550 -0.4893  0.4088  0.5515
  219MOL    C2039696   4.829   0.847   1.835  0.0330 -0.2716  0.2448
  219MOL    C2139697   4.928   0.797   1.938 -0.2800 -0.1610 -0.1510
  219MOL    C2239698   4.895   0.662   1.994  0.0159 -0.1341 -0.2897
  219MOL    O2339699   4.963   0.561   1.985  0.0829  0.0274 -0.2557
  219MOL    O2439700   4.775   0.677   2.073 -0.1240  0.2874  0.0275
  219MOL    H2539701   4.730   0.865   1.878 -1.5031 -3.1349 -1.9193
  219MOL    H2639702   4.867   0.945   1.805 -1.5959  0.3842  0.2903
  219MOL    H2739703   5.026   0.799   1.891 -0.3103  0.2193 -0.2056
  219MOL    H2839704   4.758   0.588   2.100 -2.5169  0.9639  0.9194
  219MOL    C2939705   4.947   0.907   2.059  0.7024 -0.9035 -0.3829
  219MOL    C3039706   5.063   0.882   2.163 -0.4139  0.7267  0.6157
  219MOL    C3139707   5.018   0.863   2.306 -0.2469  0.0403 -0.8154
  219MOL    O3239708   5.047   0.760   2.366 -0.2791 -0.6631  0.1876
  219MOL    O3339709   4.955   0.970   2.369 -0.3518  0.3272 -0.2241
  219MOL    H3439710   4.853   0.912   2.113  0.5619  0.9760 -0.7814
  219MOL    H3539711   4.954   1.004   2.009 -0.9668 -1.0309 -0.8791
  219MOL    H3639712   5.101   0.781   2.151  1.7180  1.5919 -0.1257
  219MOL    H3739713   4.936   1.040   2.309 -0.2615  1.0111  0.5241
  219MOL    C3839714   5.187   0.966   2.159  0.0961 -0.0177  0.3824
  219MOL    C3939715   5.269   0.975   2.037 -0.2941 -0.9912  0.5048
  219MOL    C4039716   5.300   0.842   1.972 -0.4792  0.2696 -0.1954
  219MOL    O4139717   5.327   0.738   2.040  0.3112 -0.2555 -0.1486
  219MOL    O4239718   5.297   0.853   1.838  0.3600 -0.0954 -0.1713
  219MOL    H4339719   5.255   0.936   2.239 -0.6262  1.4977  1.6029
  219MOL    H4439720   5.150   1.065   2.188 -1.7199 -0.6118  0.1652
  219MOL    H4539721   5.206   1.040   1.977  1.4163  1.6845  1.4984
  219MOL    H4639722   5.300   0.769   1.795  0.2572  0.9025 -2.1584
  219MOL    C4739723   5.403   1.047   2.068  0.1610  0.0675  0.2974
  219MOL    C4839724   5.484   1.092   1.939  1.1279  0.1396  0.4121
  219MOL    C4939725   5.616   1.131   1.987 -0.7204  0.1782  0.5981
  219MOL    O5039726   5.640   1.183   2.095  0.2249  0.5196  0.3042
  219MOL    O5139727   5.714   1.094   1.897 -0.6016  0.1002 -0.2956
  219MOL    H5239728   5.462   0.977   2.127  1.3128  0.2367 -0.6532
  219MOL    H5339729   5.381   1.137   2.126 -0.8805 -0.6798  1.0946
  219MOL    H5439730   5.496   0.998   1.885 -1.0789  0.4725 -0.6760
  219MOL    H5539731   5.792   1.099   1.950 -0.6251 -0.5430 -0.2001
  219MOL    C5639732   5.406   1.192   1.851 -0.0455  0.1136  0.6056
  219MOL    C5739733   5.484   1.252   1.739 -0.7721 -0.8180  0.8164
  219MOL    C5839734   5.428   1.390   1.708  0.3581  0.6598  1.0373
  219MOL    O5939735   5.308   1.424   1.730 -0.0696 -0.2747 -0.3411
  219MOL    O6039736   5.521   1.476   1.657  0.2531  1.2711  0.2186
  219MOL    H6139737   5.372   1.270   1.919 -0.2666  1.6512 -1.2026
  219MOL    H6239738   5.310   1.153   1.817 -1.1849  0.9000  2.8372
  219MOL    H6339739   5.589   1.271   1.763 -1.2428  2.5891  0.3888
  219MOL    H6439740   5.507   1.568   1.674  0.0587  0.9830  1.6669
  219MOL    C6539741   5.482   1.160   1.617 -0.1756 -0.0810 -0.0060
  219MOL    C6639742   5.550   1.216   1.491 -0.1011 -0.0751  0.0246
  219MOL    C6739743   5.502   1.135   1.364 -0.1467  0.1069  0.5937
  219MOL    O6839744   5.559   1.041   1.316  0.2261  0.2712 -0.6697
  219MOL    O6939745   5.391   1.193   1.306 -0.3254  0.3277 -0.0030
  219MOL    H7039746   5.381   1.124   1.601  0.3426 -1.0723 -1.1886
  219MOL    H7139747   5.540   1.072   1.644 -2.2930 -0.9663  1.7344
  219MOL    H7239748   5.517   1.319   1.474 -0.9554 -0.8272 -3.1585
  219MOL    H7339749   5.350   1.261   1.356  1.0896  1.6036 -0.5097
  219MOL    C7439750   5.706   1.212   1.510  1.3577  0.5025 -0.4155
  219MOL    C7539751   5.789   1.269   1.403 -0.3776 -0.4104  0.1323
  219MOL    C7639752   5.934   1.239   1.438 -0.4359 -0.0408  0.0566
  219MOL    O7739753   6.023   1.319   1.461 -0.2095 -0.0768 -0.0609
  219MOL    O7839754   5.950   1.108   1.432  0.0173 -0.4448 -0.3882
  219MOL    H7939755   5.719   1.105   1.529  0.5399  0.4672 -0.0340
  219MOL    H8039756   5.738   1.259   1.603  0.1890  1.2690 -0.3926
  219MOL    H8139757   5.777   1.206   1.314  1.3613  0.7802 -0.9610
  219MOL    H8239758   6.037   1.077   1.453  0.0618 -0.1458 -0.1378
  219MOL    C8339759   5.755   1.418   1.376 -1.5602 -0.2513  0.2089
  219MOL    C8439760   5.805   1.453   1.237  0.0271 -0.0167 -1.0705
  219MOL    C8539761   5.855   1.597   1.239 -0.2529 -0.2571 -0.4426
  219MOL    O8639762   5.974   1.626   1.229 -0.1163  0.6521  0.3583
  219MOL    O8739763   5.754   1.687   1.274  0.1432 -0.1732 -0.1422
  219MOL    H8839764   5.826   1.469   1.441  1.9987 -0.5486 -3.2667
  219MOL    H8939765   5.653   1.454   1.393 -1.5736  0.1119 -0.6316
  219MOL    H9039766   5.901   1.411   1.208  0.0655 -1.4640  1.0441
  219MOL    H9139767   5.776   1.778   1.287 -1.7934  0.4166 -0.7578
  219MOL    C9239768   5.695   1.434   1.127 -0.2727  0.6812 -0.4067
  219MOL    C9339769   5.744   1.347   1.010 -0.4015  0.4095 -0.0200
  219MOL    C9439770   5.855   1.395   0.915  0.0849 -0.3692 -0.1089
  219MOL    O9539771   5.934   1.478   0.951  0.2662  0.2507  0.0166
  219MOL    O9639772   5.867   1.328   0.798 -0.0506 -0.8853 -0.0636
  219MOL    H9739773   5.668   1.536   1.099  0.2784  1.3061  1.2359
  219MOL    H9839774   5.613   1.383   1.179  0.6314 -0.7916 -0.4051
  219MOL    H9939775   5.787   1.254   1.049  1.2779  1.0899 -0.1946
  219MOL   H10039776   5.953   1.338   0.760  1.2259 -0.8088  2.6643
  219MOL   C10139777   5.616   1.296   0.934  0.7249 -0.1464 -0.4022
  219MOL   C10239778   5.556   1.387   0.823  0.3245 -0.2989 -0.6951
  219MOL   C10339779   5.499   1.519   0.879 -0.7309 -0.4424 -0.9872
  219MOL   O10439780   5.429   1.528   0.983 -0.4456 -0.0567 -0.0661
  219MOL   O10539781   5.513   1.617   0.799  0.0272 -0.0257  0.0397
  219MOL   H10639782   5.532   1.280   1.002  0.4093 -0.6051 -0.8955
  219MOL   H10739783   5.640   1.195   0.902  1.6220  0.0647 -0.4117
  219MOL   H10839784   5.632   1.420   0.752  1.1270 -0.9022 -0.1254
  219MOL   H10939785   5.455   1.686   0.830  0.0557  0.0105  0.0121
  219MOL   C11039786   5.439   1.306   0.759  0.0461 -0.1363 -0.9390
  219MOL   C11139787   5.464   1.253   0.616  0.2546 -0.4226 -0.1636
  219MOL   C11239788   5.342   1.277   0.529 -0.0306 -0.0924  0.0954
  219MOL   O11339789   5.232   1.261   0.576 -0.3158  0.0892  0.2371
  219MOL   O11439790   5.370   1.296   0.401  0.0708 -0.0358  0.3010
  219MOL   H11539791   5.354   1.373   0.767  0.7496  0.7747 -1.0427
  219MOL   H11639792   5.404   1.229   0.828  0.3786  2.0498  1.7338
  219MOL   H11739793   5.552   1.309   0.583  1.8780 -2.1229  1.2405
  219MOL   H11839794   5.286   1.319   0.364  0.4039  1.8737  0.6768
  219MOL   C11939795   5.502   1.107   0.610 -0.5550 -0.5665  0.6325
  219MOL   C12039796   5.565   1.066   0.473 -0.0078 -0.0433 -0.2902
  219MOL   C12139797   5.487   0.950   0.417  0.2881  0.3193 -1.0974
  219MOL   O12239798   5.484   0.835   0.466  0.1740  0.0233  0.4754
  219MOL   O12339799   5.420   0.986   0.306 -0.0149 -0.4862  0.3731
  219MOL   H12439800   5.417   1.044   0.635 -0.0204 -1.4882  0.1852
  219MOL   H12539801   5.577   1.085   0.686  1.4780  0.6821 -0.9396
  219MOL   H12639802   5.544   1.152   0.409  0.7814  0.8550  0.6460
  219MOL   H12739803   5.377   0.912   0.266  2.1929 -0.9996 -1.1383
  219MOL   C12839804   5.717   1.043   0.479  0.1739  0.2251 -0.7248
  219MOL   C12939805   5.781   1.024   0.341  0.2393  0.1954 -0.2738
  219MOL   C13039806   5.769   0.890   0.270 -0.6003 -0.1660 -0.0810
  219MOL   O13139807   5.843   0.799   0.300  0.1152  0.1735  0.4605
  219MOL   O13239808   5.683   0.875   0.166  0.1912  0.1351  0.0371
  219MOL   H13339809   5.741   0.962   0.548  2.1791  0.2632 -1.3610
  219MOL   H13439810   5.762   1.128   0.531  0.2923  0.4156 -1.1398
  219MOL   H13539811   5.728   1.084   0.267  0.0900 -1.2726 -1.3831
  219MOL   H13639812   5.675   0.786   0.137  0.1524  0.1842 -0.1026
  219MOL   C13739813   5.918   1.083   0.329  0.4008 -0.5061 -0.4276
  219MOL   C13839814   6.029   1.026   0.428  0.3027 -0.2555  0.0400
  219MOL   C13939815   6.042   1.112   0.560  0.0633  0.6848 -0.0017
  219MOL   O14039816   6.010   1.230   0.573  0.2623  0.0611 -0.4690
  219MOL   O14139817   6.107   1.042   0.657 -0.0170  0.4169 -0.1282
  219MOL   H14239818   5.905   1.190   0.343 -1.9370 -0.8231  0.0777
  219MOL   H14339819   5.947   1.068   0.225  0.1715  0.2398 -0.6018
  219MOL   H14439820   6.000   0.930   0.470 -0.7790 -0.1744 -0.5072
  219MOL   H14539821   6.130   0.951   0.645  0.2898  0.7195 -2.1546
  219MOL   C14639822   6.158   0.986   0.349  0.4697  0.6653 -0.6857
  219MOL   C14739823   6.256   1.100   0.318  0.2037  0.6220  0.2505
  219MOL   C14839824   6.197   1.231   0.245  0.3572  0.2639 -0.3757
  219MOL   O14939825   6.172   1.244   0.123 -0.0433  0.0032  0.1137
  219MOL   O15039826   6.172   1.319   0.338 -0.1349  0.5672  0.2519
  219MOL   H15139827   6.138   0.926   0.260 -2.2884  0.5420 -0.0279
  219MOL   H15239828   6.209   0.911   0.408  2.2637  2.3968  0.0307
  219MOL   H15339829   6.287   1.142   0.413  1.0256  0.6167 -0.0135
  219MOL   H15439830   6.126   1.386   0.290  0.1803  1.1170  0.6996
  219MOL   C15539831   6.378   1.052   0.233  0.2798 -0.2336 -1.0705
  219MOL   C15639832   6.498   0.996   0.308  0.1580 -0.2364 -0.6519
  219MOL   C15739833   6.548   1.104   0.415  0.7415  0.8867 -0.0207
  219MOL   O15839834   6.576   1.078   0.533 -0.3302 -0.4141  0.4880
  219MOL   O15939835   6.561   1.227   0.350 -0.7894  0.0067 -0.4256
  219MOL   H16039836   6.422   1.133   0.175 -0.1021 -1.5853 -3.3077
  219MOL   H16139837   6.338   0.969   0.174  1.6547 -0.3322 -1.8741
  219MOL   H16239838   6.465   0.912   0.370  0.1264 -0.1087 -0.4933
  219MOL   H16339839   6.578   1.295   0.413  2.0128 -1.2751  0.3194
  219MOL   C16439840   6.612   0.952   0.211  0.0346 -0.3530 -0.1177
  219MOL   C16539841   6.585   0.814   0.136 -0.0514 -0.5052 -0.0483
  219MOL   C16639842   6.516   0.706   0.217 -0.2053  0.1054 -0.4790
  219MOL   O16739843   6.410   0.659   0.185  0.4498 -0.0338  0.5054
  219MOL   O16839844   6.577   0.683   0.337  0.2104  0.3903  0.1103
  219MOL   H16939845   6.701   0.940   0.272  0.3960  2.6368  0.0204
  219MOL   H17039846   6.631   1.034   0.142 -2.3243 -0.1189 -0.5457
  219MOL   H17139847   6.518   0.849   0.057 -0.1911 -0.7335 -0.0334
  219MOL   H17239848   6.651   0.737   0.362 -0.5335  0.5401  2.0538
  219MOL   C17339849   6.723   0.764   0.082 -0.5280  0.2917  0.1484
  219MOL   C17439850   6.714   0.644   7.839 -0.7715 -0.5420  0.3912
  219MOL   C17539851   6.833   0.633   7.741  0.6401 -0.0726 -0.4744
  219MOL   O17639852   6.905   0.732   7.718 -0.0106  0.5841 -0.0334
  219MOL   O17739853   6.840   0.508   7.683 -0.3233  0.8101  0.3513
  219MOL   H17839854   6.790   0.736   0.163 -2.3125 -2.6570  0.6589
  219MOL   H17939855   6.761   0.854   0.031 -0.0633 -0.4551 -0.8428
  219MOL   H18039856   6.709   0.554   0.047 -0.6925 -2.7461 -2.7557
  219MOL   H18139857   6.907   0.500   7.617  1.1519  0.0046  1.9080
  219MOL   H18239858   6.621   0.638   7.783 -1.1678 -0.0612  0.9891
  220MOL     C139859   7.277   6.844   5.670 -0.4169  0.3331  0.4743
  220MOL     C239860   7.240   6.835   5.819 -0.3083  0.9028 -0.3374
  220MOL     C339861   7.149   6.951   5.852 -0.1064 -0.4295  0.5357
  220MOL     O439862   7.165   7.038   5.936  0.1188  0.1519  0.7722
  220MOL     O539863   7.037   6.946   5.779  0.2002 -0.0122 -0.2352
  220MOL     H639864   7.292   6.947   5.638 -0.5321  0.3872  0.5916
  220MOL     H739865   7.350   6.775   5.628 -0.8566 -0.9519  1.7849
  220MOL     H839866   7.179   6.746   5.835 -0.7638  1.7125  2.7969
  220MOL     H939867   6.985   7.025   5.784  0.4417  0.1501 -0.2562
  220MOL    H1039868   7.185   6.812   5.621  0.4744 -0.9200 -0.4197
  220MOL    C1139869   7.360   6.811   5.910  0.2322  0.1484  0.0708
  220MOL    C1239870   7.481   6.903   5.901  0.6913  0.4525 -0.3231
  220MOL    C1339871   7.609   6.845   5.834  0.1336  0.3690 -0.0144
  220MOL    O1439872   7.709   6.821   5.898 -0.3609 -0.2192  0.0877
  220MOL    O1539873   7.592   6.821   5.699 -0.6228  0.4355  0.1016
  220MOL    H1639874   7.403   6.712   5.894  2.9681  1.2653  0.1616
  220MOL    H1739875   7.314   6.809   6.008  0.8628 -1.0090  0.3528
  220MOL    H1839876   7.465   6.990   5.836  0.4739  0.8708  0.2806
  220MOL    H1939877   7.661   6.765   5.666  0.2020  0.0048  2.4284
  220MOL    C2039878   7.508   6.960   6.046  0.3861  0.3885 -0.4260
  220MOL    C2139879   7.610   7.071   6.057 -0.1625 -0.0424 -0.5650
  220MOL    C2239880   7.740   7.027   6.113 -0.0560  0.4643  0.5417
  220MOL    O2339881   7.745   6.937   6.199 -0.0002  0.6908  0.1361
  220MOL    O2439882   7.852   7.094   6.062 -0.3388 -0.2887  0.0200
  220MOL    H2539883   7.529   6.881   6.118 -1.4079 -1.2982 -1.7061
  220MOL    H2639884   7.420   6.979   6.106  0.2160  0.2842 -0.6396
  220MOL    H2739885   7.625   7.107   5.955 -0.3848 -0.1569 -0.6377
  220MOL    H2839886   7.822   7.154   5.995  0.2155  1.3687  1.2276
  220MOL    C2939887   7.543   7.179   6.147  0.0948  0.5643  0.6880
  220MOL    C3039888   7.424   7.256   6.081 -0.1038  0.3369 -0.7109
  220MOL    C3139889   7.472   7.313   5.951  0.0504 -0.4381 -0.2769
  220MOL    O3239890   7.417   7.297   5.842 -0.0381  0.1928  0.9752
  220MOL    O3339891   7.577   7.396   5.974  0.3775  0.4116 -0.2749
  220MOL    H3439892   7.612   7.250   6.193 -1.1508  1.8977  0.5329
  220MOL    H3539893   7.504   7.138   6.240  0.8570  0.3177  0.8992
  220MOL    H3639894   7.344   7.183   6.067  0.9386 -0.8015 -0.7769
  220MOL    H3739895   7.604   7.421   5.887 -2.5238  0.9621 -1.0565
  220MOL    C3839896   7.374   7.366   6.180 -0.1982 -0.1197 -0.4611
  220MOL    C3939897   7.225   7.419   6.175 -0.5243 -0.2592 -0.2989
  220MOL    C4039898   7.192   7.482   6.038  0.6335 -0.2705 -0.1948
  220MOL    O4139899   7.266   7.561   5.980  0.3755 -0.2208  0.2280
  220MOL    O4239900   7.072   7.447   5.988  0.7234 -0.2218  0.1455
  220MOL    H4339901   7.437   7.454   6.163 -1.3419  0.5601 -1.3015
  220MOL    H4439902   7.381   7.341   6.285 -1.3300  0.6412 -0.2008
  220MOL    H4539903   7.159   7.333   6.179  0.6236 -1.0736  4.5985
  220MOL    H4639904   7.051   7.478   5.901  0.4513  0.3708  0.4270
  220MOL    C4739905   7.181   7.520   6.285  0.9618 -0.0424  0.1551
  220MOL    C4839906   7.166   7.452   6.425 -0.8821  0.2697  0.6615
  220MOL    C4939907   7.041   7.357   6.415  0.2200 -0.2011 -0.1696
  220MOL    O5039908   7.040   7.250   6.465 -0.0869 -0.4417  0.0001
  220MOL    O5139909   6.936   7.417   6.349  0.1833  0.5371  0.2222
  220MOL    H5239910   7.092   7.579   6.265  1.1134  0.4686  0.9861
  220MOL    H5339911   7.257   7.597   6.297  0.3442  0.3695  1.5103
  220MOL    H5439912   7.252   7.391   6.452  1.6853  4.1081  1.4513
  220MOL    H5539913   6.851   7.376   6.354 -0.0502  0.9563 -0.1949
  220MOL    C5639914   7.156   7.552   6.546 -0.6641  0.3559 -1.1211
  220MOL    C5739915   7.282   7.566   6.633 -0.3024 -0.1473  0.0311
  220MOL    C5839916   7.244   7.584   6.782  0.3597  0.0507 -0.8279
  220MOL    O5939917   7.197   7.499   6.856 -0.0298  0.2355 -0.4481
  220MOL    O6039918   7.277   7.712   6.824  0.4759  0.3691  0.2046
  220MOL    H6139919   7.066   7.536   6.606  0.0757  0.3643 -0.0010
  220MOL    H6239920   7.131   7.649   6.503  0.6978 -0.4889 -3.8915
  220MOL    H6339921   7.341   7.474   6.628 -1.0841 -0.6533  0.0171
  220MOL    H6439922   7.262   7.720   6.917 -0.1087  0.6472  0.0934
  220MOL    C6539923   7.374   7.676   6.574 -0.2758 -0.2124  0.4040
  220MOL    C6639924   7.519   7.712   6.639 -0.0407 -0.5725 -0.7985
  220MOL    C6739925   7.559   0.002   6.605 -0.4918  0.3293  0.4372
  220MOL    O6839926   7.599   0.082   6.687 -0.3456 -0.7048  0.3161
  220MOL    O6939927   7.559   0.029   6.471 -0.1039  0.2478  0.1140
  220MOL    H7039928   7.323   7.771   6.560  2.3664  1.2182  0.3665
  220MOL    H7139929   7.401   7.662   6.470 -4.1039 -3.4020 -0.3095
  220MOL    H7239930   7.496   7.737   6.742 -1.7785 -0.6975 -1.1435
  220MOL    H7339931   7.586   0.118   6.454 -3.5510  1.5958  1.1663
  220MOL    C7439932   7.619   7.600   6.635  0.0684 -0.7775  0.7957
  220MOL    C7539933   7.673   7.553   6.491 -0.2891  0.5574 -0.1336
  220MOL    C7639934   7.688   7.399   6.494  0.4648  0.6127 -0.1547
  220MOL    O7739935   7.613   7.327   6.432  0.2215 -0.1895  0.0505
  220MOL    O7839936   7.794   7.357   6.555 -0.1737  0.0705  0.3441
  220MOL    H7939937   7.562   7.517   6.678 -0.1115 -0.6390  0.8232
  220MOL    H8039938   7.701   7.609   6.706 -0.7353  0.1843  1.6115
  220MOL    H8139939   7.589   7.573   6.426  0.8062  0.2541 -1.6674
  220MOL    H8239940   7.808   7.264   6.547 -0.6468 -0.0344  0.7150
  220MOL    C8339941   7.798   7.627   6.427 -0.1705 -0.3897 -0.8268
  220MOL    C8439942   7.825   7.598   6.278  0.3688  0.5749  1.5123
  220MOL    C8539943   0.062   7.468   6.251  0.6456 -0.4760 -0.2473
  220MOL    O8639944   0.047   7.399   6.159 -0.1488  0.1339  0.2663
  220MOL    O8739945   0.162   7.450   6.334 -0.1492  0.5322 -0.0686
  220MOL    H8839946   0.031   7.615   6.493 -1.2189 -3.4594  0.0870
  220MOL    H8939947   7.768   7.731   6.427 -0.5785 -0.4880  0.5783
  220MOL    H9039948   7.725   7.581   6.237 -1.0125  4.2215  3.1254
  220MOL    H9139949   0.157   7.522   6.395  2.0505  1.0956 -0.5233
  220MOL    C9239950   0.027   7.714   6.187  0.8531 -1.1714 -0.2611
  220MOL    C9339951   7.769   7.804   6.114 -0.1525  0.4523  0.2089
  220MOL    C9439952   7.703   7.735   6.000  0.6185  0.6069 -0.0481
  220MOL    O9539953   7.769   7.705   5.893 -0.4702  0.4591  0.4847
  220MOL    O9639954   7.569   7.720   6.020  0.4385  0.3216 -0.3815
  220MOL    H9739955   0.080   7.676   6.100  1.3438 -0.0919 -0.4392
  220MOL    H9839956   0.093   7.784   6.238  0.7151 -1.5144  0.3892
  220MOL    H9939957   7.690   7.823   6.186 -1.1018  0.6758 -0.8792
  220MOL   H10039958   7.537   7.676   5.943  1.1845 -3.5352  1.3660
  220MOL   C10139959   7.817   0.088   6.059  0.0167 -0.0552  0.2016
  220MOL   C10239960   7.722   0.201   6.038  0.1163 -0.2683  0.1181
  220MOL   C10339961   7.616   0.189   5.920  0.1113  0.1559  0.0368
  220MOL   O10439962   7.617   0.103   5.835  0.2346 -0.5130  0.3479
  220MOL   O10539963   7.533   0.296   5.922  0.1837  0.6965 -0.0027
  220MOL   H10639964   0.025   0.077   5.969  1.2137 -0.4209  1.0387
  220MOL   H10739965   0.032   0.131   6.133  0.3129  2.5057 -1.5080
  220MOL   H10839966   7.655   0.210   6.124  1.5001  1.4632  1.0371
  220MOL   H10939967   7.478   0.298   5.845 -0.7003  1.4880  0.6368
  220MOL   C11039968   7.803   0.334   6.043  0.3613 -0.1268 -0.1048
  220MOL   C11139969   0.013   0.377   5.911  0.0377  0.2805 -0.5616
  220MOL   C11239970   0.155   0.326   5.873 -0.3659 -0.1398 -0.2843
  220MOL   O11339971   0.243   0.301   5.954 -0.1962 -0.5009  0.0038
  220MOL   O11439972   0.168   0.332   5.738  0.6413  0.8393 -0.5930
  220MOL   H11539973   0.019   0.341   6.127  0.6837  0.9241 -0.4510
  220MOL   H11639974   7.719   0.402   6.054  0.2867 -0.3732  0.8744
  220MOL   H11739975   7.811   0.339   5.826 -1.1446  0.9815 -0.1210
  220MOL   H11839976   0.095   0.362   5.687  2.4153  2.3721 -2.3538
  220MOL   C11939977   0.012   0.530   5.874 -0.3032  0.0237  0.1052
  220MOL   C12039978   7.724   0.579   5.829  0.6981 -0.1695 -0.2893
  220MOL   C12139979   7.693   0.533   5.689  0.4173 -0.0467 -0.2003
  220MOL   O12239980   7.776   0.468   5.628  0.1394 -0.7865  0.4633
  220MOL   O12339981   7.571   0.555   5.640 -0.7856 -0.9094  0.1218
  220MOL   H12439982   0.085   0.554   5.797  0.1918 -0.5739  0.3844
  220MOL   H12539983   0.051   0.591   5.954 -0.0042  0.2808 -0.2346
  220MOL   H12639984   7.657   0.538   5.905  1.8573 -0.2186  0.7164
  220MOL   H12739985   7.554   0.516   5.556 -1.2417 -0.5157  0.0347
  220MOL   C12839986   7.711   0.736   5.849  0.5209  0.5505 -0.6225
  220MOL   C12939987   7.712   0.779   5.996 -0.4226  0.1100 -0.3823
  220MOL   C13039988   7.575   0.772   6.062  0.4890 -0.8777  0.0681
  220MOL   O13139989   7.501   0.869   6.068  0.0067 -0.0750  0.3942
  220MOL   O13239990   7.549   0.650   6.112  0.5379 -0.2381  0.6401
  220MOL   H13339991   7.627   0.775   5.791 -0.6416  0.3668  0.8920
  220MOL   H13439992   7.804   0.775   5.808  1.4557 -0.8834  0.0989
  220MOL   H13539993   7.772   0.704   6.045  1.8255  0.9341 -1.7856
  220MOL   H13639994   7.466   0.654   6.157  0.2122  1.1106 -0.0559
  220MOL   C13739995   7.775   0.920   6.013  0.1372 -0.2780  0.3082
  220MOL   C13839996   7.853   0.939   6.151  0.6469 -0.9572  0.6217
  220MOL   C13939997   7.837   1.084   6.201 -0.0546 -0.4681  0.2862
  220MOL   O14039998   7.829   1.177   6.123 -0.3292  0.3752 -0.5668
  220MOL   O14139999   7.838   1.093   6.335 -0.2588 -0.5411  0.7218
  220MOL   H14240000   7.695   0.994   6.021  1.9731  1.8627 -0.5408
  220MOL   H14340001   7.839   0.951   5.931 -1.2128  0.2598 -0.5669
  220MOL   H14440002   7.788   0.886   6.222 -0.7378 -1.0156 -0.6590
  220MOL   H14540003   7.817   1.183   6.354  1.9586  0.2938 -0.5668
  220MOL   C14640004   0.140   0.872   6.153 -0.2654 -0.1386  0.6307
  220MOL   C14740005   0.187   0.790   6.273  0.5552 -0.3173 -0.7875
  220MOL   C14840006   0.093   0.673   6.289  0.2552 -0.6814 -0.4363
  220MOL   O14940007   7.843   0.671   6.364  0.1283  0.2655  0.0248
  220MOL   O15040008   0.110   0.581   6.202 -0.4224 -0.2924  0.4749
  220MOL   H15140009   0.210   0.953   6.134  0.7888 -1.5556 -1.7490
  220MOL   H15240010   0.140   0.817   6.059  1.3296  4.5013 -2.2138
  220MOL   H15340011   0.282   0.749   6.236  0.7146 -0.3661 -0.3281
  220MOL   H15440012   0.187   0.598   6.150  0.0942  0.0804  1.3531
  220MOL   C15540013   0.215   0.861   6.409 -0.7396  0.0364 -0.0432
  220MOL   C15640014   0.304   0.774   6.508  0.0922  0.6837 -0.4469
  220MOL   C15740015   0.297   0.809   6.652  0.1160 -0.3691  0.2647
  220MOL   O15840016   0.243   0.909   6.696 -0.1255 -0.1100  1.0400
  220MOL   O15940017   0.359   0.718   6.729 -0.7121  0.4570  0.0832
  220MOL   H16040018   0.114   0.873   6.449 -1.0717  0.7517 -1.0757
  220MOL   H16140019   0.261   0.958   6.391  1.8135 -1.2147 -0.5285
  220MOL   H16240020   0.268   0.671   6.501  0.4280  0.5496 -0.1871
  220MOL   H16340021   0.373   0.764   6.811  1.5181  1.9483 -1.0569
  220MOL   C16440022   0.454   0.781   6.451  0.1672  0.0901 -0.1807
  220MOL   C16540023   0.504   0.652   6.390 -0.3229 -0.1207  0.1682
  220MOL   C16640024   0.588   0.565   6.489  0.0301 -0.1411  0.3434
  220MOL   O16740025   0.554   0.454   6.530 -0.4957 -0.0472 -0.0361
  220MOL   O16840026   0.706   0.622   6.526 -0.2744 -0.5538 -0.7377
  220MOL   H16940027   0.522   0.819   6.529 -1.8509 -1.7829  2.5985
  220MOL   H17040028   0.448   0.851   6.368 -0.3320 -1.7493 -1.7112
  220MOL   H17140029   0.417   0.592   6.361 -0.6623  1.1698 -1.5115
  220MOL   H17240030   0.752   0.549   6.565  0.4932  0.1963 -0.2401
  220MOL   C17340031   0.575   0.680   6.260  0.0223 -0.7490  0.5092
  220MOL   C17440032   0.593   0.558   6.170  0.6645 -0.0349  0.7586
  220MOL   C17540033   0.472   0.520   6.088 -0.1426  0.1440  0.0829
  220MOL   O17640034   0.364   0.576   6.088  0.5398 -0.0029 -0.1997
  220MOL   O17740035   0.496   0.413   6.010  0.3522  0.2545  0.1872
  220MOL   H17840036   0.678   0.712   6.276 -0.1908  0.2901 -0.2134
  220MOL   H17940037   0.522   0.750   6.196  0.1142 -0.1179  1.1212
  220MOL   H18040038   0.668   0.580   6.094 -0.2748  0.5929  0.0082
  220MOL   H18140039   0.419   0.380   5.967 -1.8263  3.1160  1.7033
  220MOL   H18240040   0.618   0.475   6.236 -1.5710 -1.3180  0.0342
  221MOL     C140041   6.905   7.611   2.810 -0.4746 -0.3305 -0.6350
  221MOL     C240042   7.052   7.629   2.819 -1.5072  0.0245 -0.2289
  221MOL     C340043   7.099   7.710   2.700 -0.7777  0.4454 -0.2857
  221MOL     O440044   7.076   7.665   2.585 -0.0826 -0.6735 -0.4024
  221MOL     O540045   7.152   7.826   2.731 -0.4074 -0.1036 -0.1248
  221MOL     H640046   6.864   7.573   2.904  1.7400  0.2561  0.6024
  221MOL     H740047   6.857   7.707   2.791 -1.8981 -0.7816  0.6359
  221MOL     H840048   7.072   7.685   2.910 -0.2720  2.0657 -1.6894
  221MOL     H940049   7.144   0.033   2.659  1.4995 -1.0883 -1.2181
  221MOL    H1040050   6.878   7.535   2.737 -0.8505 -1.2294  0.4201
  221MOL    C1140051   7.118   7.488   2.813 -0.1690  0.2783 -0.7336
  221MOL    C1240052   7.235   7.471   2.909  0.3125 -0.9116 -0.4909
  221MOL    C1340053   7.189   7.468   3.060  0.2869  0.4575  0.9344
  221MOL    O1440054   7.098   7.389   3.094 -0.1535  0.1974 -0.6423
  221MOL    O1540055   7.252   7.560   3.135  0.0933  0.4599  0.2317
  221MOL    H1640056   7.159   7.457   2.717  0.7161  0.4044 -0.4003
  221MOL    H1740057   7.038   7.419   2.840  0.3865 -0.9620 -2.2042
  221MOL    H1840058   7.265   7.369   2.889  0.7542 -0.7420 -0.6886
  221MOL    H1940059   7.221   7.573   3.224 -2.0690 -1.0390 -0.2658
  221MOL    C2040060   7.351   7.570   2.870  0.7389 -0.2794  0.0357
  221MOL    C2140061   7.493   7.519   2.910 -0.0289 -0.5187 -0.1114
  221MOL    C2240062   7.573   7.620   2.999 -0.2676 -0.2138  0.4869
  221MOL    O2340063   7.634   7.719   2.957 -0.0732 -0.1981  0.3375
  221MOL    O2440064   7.560   7.581   3.127  0.8756  0.6132 -0.5009
  221MOL    H2540065   7.318   7.667   2.906  0.2471 -1.2201  2.2252
  221MOL    H2640066   7.350   7.592   2.764  1.6067 -1.6871 -0.2821
  221MOL    H2740067   7.479   7.425   2.963 -1.4399 -0.1341  0.2134
  221MOL    H2840068   7.613   7.634   3.185  1.5753 -1.1238  0.5159
  221MOL    C2940069   7.567   7.490   2.778  0.6092  0.4342 -0.4542
  221MOL    C3040070   7.670   7.375   2.770 -0.0179 -0.3045  0.1090
  221MOL    C3140071   7.784   7.399   2.865  0.3489 -0.4070  0.4832
  221MOL    O3240072   7.808   7.328   2.961 -0.5185  0.2720 -0.2945
  221MOL    O3340073   0.005   7.510   2.835  0.2654  0.1463  0.4510
  221MOL    H3440074   7.616   7.577   2.735  1.5392  1.3936  2.4102
  221MOL    H3540075   7.494   7.467   2.701 -0.8036  4.0632 -0.2948
  221MOL    H3640076   7.628   7.282   2.810 -0.7861 -0.4167 -0.9434
  221MOL    H3740077   7.831   7.553   2.756  0.4953 -0.7735 -0.1281
  221MOL    C3840078   7.714   7.351   2.623  0.3014  0.3930 -0.8097
  221MOL    C3940079   7.727   7.199   2.584  0.2619 -0.1576  0.5050
  221MOL    C4040080   7.583   7.146   2.565  0.4845  0.4612 -0.1074
  221MOL    O4140081   7.531   7.069   2.636  0.1735  0.3964 -0.8231
  221MOL    O4240082   7.521   7.204   2.462 -0.1722 -0.2649  0.1981
  221MOL    H4340083   7.813   7.396   2.613  0.1270  1.4057  1.6774
  221MOL    H4440084   7.652   7.409   2.553 -3.1985 -1.2071  0.8214
  221MOL    H4540085   7.770   7.178   2.487 -0.2823  0.1365  0.1955
  221MOL    H4640086   7.431   7.181   2.442  0.0556  0.8164 -2.3089
  221MOL    C4740087   7.819   7.124   2.678 -0.4751  0.3312 -0.3072
  221MOL    C4840088   0.018   6.989   2.622 -0.0731  0.2268 -0.1106
  221MOL    C4940089   7.773   6.882   2.632 -0.0463  0.0615  0.5496
  221MOL    O5040090   7.740   6.821   2.732  0.3317 -0.8887 -0.3084
  221MOL    O5140091   7.720   6.844   2.514 -0.1085  0.1332 -0.6390
  221MOL    H5240092   7.767   7.098   2.770  1.6082  1.3228  1.1983
  221MOL    H5340093   0.043   7.191   2.715  0.1589 -0.7795  0.4348
  221MOL    H5440094   0.048   7.009   2.519  0.4380  1.2117  0.2275
  221MOL    H5540095   7.644   6.789   2.527 -0.9520  1.6676  1.2047
  221MOL    C5640096   0.155   6.942   2.680  0.1562 -0.6564 -0.0416
  221MOL    C5740097   0.284   6.948   2.597 -0.1556 -0.5232 -0.1034
  221MOL    C5840098   0.321   7.091   2.566 -0.0448 -0.2567  0.2481
  221MOL    O5940099   0.324   7.137   2.454  0.5026 -0.5468  0.0677
  221MOL    O6040100   0.364   7.161   2.678 -0.1063 -0.1219  0.9254
  221MOL    H6140101   0.155   6.845   2.729 -0.9193 -0.4982  0.2820
  221MOL    H6240102   0.182   7.005   2.765 -1.6413  0.1192 -0.0158
  221MOL    H6340103   0.370   6.924   2.660  0.5786  0.8974 -0.5534
  221MOL    H6440104   0.354   7.253   2.657  2.0843 -0.2941 -1.1942
  221MOL    C6540105   0.280   6.850   2.473 -0.1288 -0.3024  0.1652
  221MOL    C6640106   0.278   6.698   2.504  0.1946  0.1048  0.0078
  221MOL    C6740107   0.419   6.670   2.563  0.5011  0.1831  0.3374
  221MOL    O6840108   0.528   6.710   2.520 -0.2068  0.4305 -0.1790
  221MOL    O6940109   0.406   6.588   2.671  0.2261  0.3477  0.1256
  221MOL    H7040110   0.370   6.871   2.416 -0.4642 -2.0066 -1.0341
  221MOL    H7140111   0.202   6.877   2.402  1.7796  0.9858 -1.4987
  221MOL    H7240112   0.197   6.666   2.570  0.7832 -1.8126 -0.1712
  221MOL    H7340113   0.492   6.577   2.708  1.1585 -0.8615 -2.2810
  221MOL    C7440114   0.270   6.617   2.375 -0.1944  0.7920  0.3507
  221MOL    C7540115   0.140   6.618   2.285 -0.2079  0.7412  0.0583
  221MOL    C7640116   0.032   6.531   2.349 -0.3235 -0.5934 -0.2589
  221MOL    O7740117   0.003   6.416   2.311 -0.5559  0.8187 -0.3206
  221MOL    O7840118   7.830   6.594   2.456 -0.5651  1.0011  0.3929
  221MOL    H7940119   0.305   6.517   2.402 -0.4269  0.5843 -0.1230
  221MOL    H8040120   0.360   6.639   2.318  0.3616  1.9975  1.6823
  221MOL    H8140121   0.102   6.720   2.288 -2.0061  0.0670  0.9182
  221MOL    H8240122   7.759   6.543   2.493  1.2298 -0.2712  2.1617
  221MOL    C8340123   0.170   6.581   2.143  0.3296  0.0507  0.6674
  221MOL    C8440124   0.248   6.690   2.055 -0.1528  0.3190 -0.1373
  221MOL    C8540125   0.159   6.809   2.014 -0.5263  0.3689  0.0978
  221MOL    O8640126   0.050   6.804   1.956 -0.1143 -0.3516 -0.2265
  221MOL    O8740127   0.226   6.925   2.041  0.0946 -0.4665 -0.1025
  221MOL    H8840128   0.084   6.539   2.092  1.0286 -0.3606 -0.2037
  221MOL    H8940129   0.244   6.506   2.172  0.5269  0.1357  0.4010
  221MOL    H9040130   0.325   6.724   2.123  0.9412 -1.5982 -0.3687
  221MOL    H9140131   0.188   7.000   1.999 -0.7322  0.0543  1.5175
  221MOL    C9240132   0.323   6.629   1.932  0.0844 -0.4799  0.3379
  221MOL    C9340133   0.448   6.541   1.956 -0.0474  0.1338 -0.0332
  221MOL    C9440134   0.419   6.405   2.021 -0.1643  0.2667  0.2497
  221MOL    O9540135   0.435   6.383   2.144  0.0771 -0.0369  0.7961
  221MOL    O9640136   0.372   6.310   1.940  0.2440  0.4392  0.6162
  221MOL    H9740137   0.348   6.713   1.868 -2.1847 -0.2929 -0.3310
  221MOL    H9840138   0.255   6.574   1.867 -1.5295 -0.8985  2.3239
  221MOL    H9940139   0.487   6.513   1.858  0.3626 -2.1022  0.7283
  221MOL   H10040140   0.363   6.222   1.974  0.1347  0.0492 -0.3987
  221MOL   C10140141   0.557   6.623   2.026  0.3123  0.8777  0.2516
  221MOL   C10240142   0.695   6.556   2.037  0.1988 -0.1659  0.6344
  221MOL   C10340143   0.748   6.557   2.182  0.4675  0.4011 -0.2630
  221MOL   O10440144   0.835   6.629   2.223  0.0174  0.3760  0.3234
  221MOL   O10540145   0.690   6.460   2.261  0.5992 -0.5488  0.0919
  221MOL   H10640146   0.516   6.629   2.126 -4.8979 -0.6394 -1.6114
  221MOL   H10740147   0.562   6.727   1.994 -2.8479  0.6492 -1.2087
  221MOL   H10840148   0.683   6.448   2.028  0.3360 -0.2704  1.6789
  221MOL   H10940149   0.623   6.411   2.215 -0.1323  0.8635 -0.3861
  221MOL   C11040150   0.795   6.618   1.940 -0.0364 -0.4690 -0.6778
  221MOL   C11140151   0.756   6.615   1.795 -0.4190 -0.3617  0.1672
  221MOL   C11240152   0.737   6.482   1.721 -0.2276  0.1655  0.6067
  221MOL   O11340153   0.803   6.382   1.752  0.8019  0.3824 -0.8667
  221MOL   O11440154   0.639   6.488   1.627 -0.1155  0.5324 -0.1644
  221MOL   H11540155   0.895   6.579   1.956  0.2931  0.8551  0.6001
  221MOL   H11640156   0.821   6.718   1.976  1.9427 -1.6684  1.3938
  221MOL   H11740157   0.659   6.664   1.790  0.2044  0.9378  0.7208
  221MOL   H11840158   0.614   6.406   1.587  0.4600  1.0815 -1.7183
  221MOL   C11940159   0.855   6.703   1.709 -0.0667  0.2505 -0.0925
  221MOL   C12040160   0.788   6.785   1.585  0.3313 -0.4821 -0.6312
  221MOL   C12140161   0.874   6.789   1.460 -0.4029  0.4969  0.2455
  221MOL   O12240162   0.997   6.802   1.463  0.1455  0.1127  0.0241
  221MOL   O12340163   0.803   6.772   1.343  0.1434 -0.2138 -0.0744
  221MOL   H12440164   0.941   6.648   1.671  0.0569 -0.2603  0.9092
  221MOL   H12540165   0.888   6.790   1.766  0.1275 -0.1526  0.4135
  221MOL   H12640166   0.694   6.737   1.558  0.0827  0.0917 -0.7903
  221MOL   H12740167   0.856   6.760   1.265  0.9662 -1.8219  0.7035
  221MOL   C12840168   0.742   6.928   1.615 -0.3380  0.4513  0.5865
  221MOL   C12940169   0.628   6.945   1.717 -0.3751 -0.6773 -0.7645
  221MOL   C13040170   0.489   6.914   1.651 -0.6679 -0.5679 -0.1202
  221MOL   O13140171   0.414   6.993   1.597 -0.6455 -0.5240 -0.4481
  221MOL   O13240172   0.473   6.783   1.628  0.1409 -0.5788 -0.6540
  221MOL   H13340173   0.698   6.960   1.520  0.8977 -1.7747 -0.7789
  221MOL   H13440174   0.820   7.003   1.620  0.2920 -0.2544  1.5981
  221MOL   H13540175   0.645   6.873   1.797  1.4015  1.1922  0.5968
  221MOL   H13640176   0.402   6.770   1.568 -0.5452  1.7060 -0.3580
  221MOL   C13740177   0.632   7.091   1.785  0.3289  0.8360  0.4313
  221MOL   C13840178   0.728   7.122   1.902 -0.2987  0.0381  0.8890
  221MOL   C13940179   0.720   7.024   2.016 -0.5963  0.1891 -0.3430
  221MOL   O14040180   0.815   6.971   2.069 -0.6083  0.0382  0.2972
  221MOL   O14140181   0.598   7.025   2.068  0.4971 -0.3981  0.1970
  221MOL   H14240182   0.536   7.105   1.836 -1.2970  0.2320 -2.3503
  221MOL   H14340183   0.644   7.158   1.701  1.8875  0.6019  0.4619
  221MOL   H14440184   0.826   7.106   1.856  0.7598  0.3003  2.9849
  221MOL   H14540185   0.584   6.978   2.149 -1.1485  1.8450  1.3047
  221MOL   C14640186   0.732   7.265   1.955  0.1912 -0.4726 -0.7342
  221MOL   C14740187   0.612   7.342   2.015 -0.1760  0.0647 -0.8219
  221MOL   C14840188   0.497   7.331   1.915 -1.0130  0.5351 -0.3889
  221MOL   O14940189   0.515   7.369   1.795  0.2536 -0.4020 -0.1965
  221MOL   O15040190   0.381   7.270   1.966  0.3982  0.1494 -0.4764
  221MOL   H15140191   0.783   7.321   1.877 -0.9703 -0.1445 -1.2735
  221MOL   H15240192   0.810   7.273   2.031  1.1057  1.7553 -1.8906
  221MOL   H15340193   0.585   7.295   2.109 -2.1904  0.9203 -0.9256
  221MOL   H15440194   0.321   7.263   1.893 -0.9507  1.4172  0.4825
  221MOL   C15540195   0.658   7.483   2.064 -0.4993 -0.1161 -0.0569
  221MOL   C15640196   0.579   7.551   2.177  0.3699 -0.3190  0.0963
  221MOL   C15740197   0.610   7.705   2.190  0.0527  0.4137 -0.7497
  221MOL   O15840198   0.535   7.792   2.152 -0.2024 -0.2040 -0.0155
  221MOL   O15940199   0.728   7.732   2.256 -0.0986 -0.1850  0.0924
  221MOL   H16040200   0.664   7.548   1.977 -1.4337 -2.4353 -1.9327
  221MOL   H16140201   0.762   7.490   2.094 -1.2006 -0.9623  2.7040
  221MOL   H16240202   0.475   7.541   2.146  0.0099 -1.3370  1.5919
  221MOL   H16340203   0.758   7.822   2.263  1.6294 -0.7341 -0.1230
  221MOL   C16440204   0.587   7.481   2.320 -0.3965 -0.0716  0.1997
  221MOL   C16540205   0.540   7.543   2.447  0.3986 -0.4770 -0.7638
  221MOL   C16640206   0.625   7.512   2.573 -0.4774  0.3960 -0.1374
  221MOL   O16740207   0.735   7.566   2.595  0.2591 -0.1831  0.1993
  221MOL   O16840208   0.569   7.418   2.651 -0.0954 -0.0836 -0.0597
  221MOL   H16940209   0.693   7.458   2.327 -0.7518 -1.1655  2.2855
  221MOL   H17040210   0.543   7.382   2.308 -1.1181  0.0527  1.7660
  221MOL   H17140211   0.546   7.650   2.428  1.4928 -0.8312 -2.5907
  221MOL   H17240212   0.631   7.392   2.718 -0.4370 -1.8956 -0.4250
  221MOL   C17340213   0.387   7.510   2.457 -0.0267 -0.0931 -0.4271
  221MOL   C17440214   0.292   7.597   2.551 -0.1590  0.5969  0.0564
  221MOL   C17540215   0.273   7.534   2.692  0.3532 -0.6905  0.0003
  221MOL   O17640216   0.254   7.415   2.706 -0.2056 -0.1124  0.5435
  221MOL   O17740217   0.276   7.628   2.790 -0.4373  0.3077 -0.2435
  221MOL   H17840218   0.384   7.409   2.499  1.8315  1.1730  2.9266
  221MOL   H17940219   0.339   7.510   2.360 -2.4601  0.1461  0.7360
  221MOL   H18040220   0.328   7.699   2.558 -1.0572  0.7982  2.3495
  221MOL   H18140221   0.260   7.582   2.871  0.9702 -2.1194 -1.2990
  221MOL   H18240222   0.189   7.591   2.519 -0.0451 -0.3313 -0.1509
  222MOL     C140223   0.614   1.170   2.233 -0.6087 -0.0582 -0.6062
  222MOL     C240224   0.603   1.039   2.151  0.1945 -0.1360 -0.1339
  222MOL     C340225   0.583   0.916   2.238  0.7198  0.1889  0.1914
  222MOL     O440226   0.670   0.840   2.272 -0.0369 -0.1505 -0.1692
  222MOL     O540227   0.464   0.923   2.295 -0.5846  0.5320 -0.1691
  222MOL     H640228   0.536   1.184   2.308  1.3537  0.2874  1.4134
  222MOL     H740229   0.710   1.161   2.283 -0.1279  0.8748 -1.3464
  222MOL     H840230   0.518   1.060   2.086  1.1921  1.7790 -0.8797
  222MOL     H940231   0.446   0.852   2.355 -0.2383 -0.2347 -0.9755
  222MOL    H1040232   0.607   1.252   2.161 -0.8839 -0.1369 -0.6724
  222MOL    C1140233   0.732   1.032   2.062  0.5246 -0.0602 -0.8107
  222MOL    C1240234   0.735   0.925   1.959 -0.9202  0.7750  0.3867
  222MOL    C1340235   0.878   0.884   1.927 -0.3684 -0.4230 -0.2365
  222MOL    O1440236   0.947   0.958   1.855  0.5220  0.0689  0.2429
  222MOL    O1540237   0.922   0.769   1.992 -0.1451  0.4538  0.3007
  222MOL    H1640238   0.815   1.024   2.132 -0.9245  1.7047  1.1653
  222MOL    H1740239   0.754   1.125   2.009  0.3020  1.1664  1.2057
  222MOL    H1840240   0.684   0.837   1.997  2.5193 -1.8093 -0.6931
  222MOL    H1940241   1.011   0.744   1.976 -0.2173  0.0345  0.5485
  222MOL    C2040242   0.677   0.964   1.818 -1.1411 -0.5050  0.1578
  222MOL    C2140243   0.519   0.960   1.805  1.2473  0.2097 -0.6473
  222MOL    C2240244   0.468   0.812   1.819 -0.0333 -0.1617  0.0142
  222MOL    O2340245   0.437   0.750   1.925  0.1961 -0.1304  0.0876
  222MOL    O2440246   0.478   0.738   1.704 -0.1581 -0.2385  0.0439
  222MOL    H2540247   0.719   0.902   1.738 -2.1159 -1.7166  0.5658
  222MOL    H2640248   0.704   1.064   1.785  0.3090 -0.5695  1.1117
  222MOL    H2740249   0.469   1.016   1.884  1.9820 -1.4768  1.0407
  222MOL    H2840250   0.484   0.645   1.718  1.3999  0.0004  1.1278
  222MOL    C2940251   0.480   1.036   1.676 -0.0377  0.0844 -0.0419
  222MOL    C3040252   0.467   1.192   1.687 -0.0420 -0.1066 -0.4345
  222MOL    C3140253   0.336   1.227   1.760 -0.2253  0.1148 -0.3055
  222MOL    O3240254   0.232   1.262   1.703  0.1358 -0.2353 -0.3118
  222MOL    O3340255   0.345   1.214   1.895 -0.4386 -0.1812  0.4521
  222MOL    H3440256   0.386   1.002   1.631  0.8856 -0.9248 -1.2338
  222MOL    H3540257   0.548   1.008   1.596  2.9958 -1.2047  2.9124
  222MOL    H3640258   0.551   1.222   1.749 -1.1582 -0.2354  1.1580
  222MOL    H3740259   0.264   1.249   1.928  0.1685  3.4028 -1.5443
  222MOL    C3840260   0.471   1.260   1.544 -0.3127  0.0606 -0.4138
  222MOL    C3940261   0.526   1.404   1.554 -0.1562  0.0977 -0.1374
  222MOL    C4040262   0.423   1.520   1.516 -0.3411  0.4098  0.5369
  222MOL    O4140263   0.314   1.498   1.463  0.2068 -0.4821  0.2471
  222MOL    O4240264   0.460   1.645   1.552 -0.2968  0.0312 -0.1633
  222MOL    H4340265   0.369   1.243   1.509 -0.0590  0.4849 -1.3632
  222MOL    H4440266   0.531   1.198   1.478 -0.7027 -2.1107  1.2182
  222MOL    H4540267   0.556   1.423   1.657 -1.8821  0.6192  0.2920
  222MOL    H4640268   0.400   1.707   1.514 -0.3296  0.3227  0.3642
  222MOL    C4740269   0.649   1.409   1.466  0.5322  0.2813  0.0130
  222MOL    C4840270   0.768   1.323   1.513  0.1182 -0.1187  0.9776
  222MOL    C4940271   0.836   1.360   1.637 -0.7397 -0.5688 -0.9898
  222MOL    O5040272   0.853   1.292   1.732 -0.1149 -0.1783  0.4622
  222MOL    O5140273   0.876   1.495   1.633  0.4158 -0.0949  0.3475
  222MOL    H5240274   0.677   1.514   1.461 -0.9041  0.7091  0.5203
  222MOL    H5340275   0.623   1.377   1.365  1.7343  2.0684 -0.8903
  222MOL    H5440276   0.730   1.223   1.533  0.0983 -0.4872 -0.8228
  222MOL    H5540277   0.917   1.515   1.716 -0.5776  1.0142  0.5847
  222MOL    C5640278   0.866   1.293   1.398 -0.4253  0.6979 -0.1015
  222MOL    C5740279   0.827   1.172   1.304 -0.2198  0.2206 -0.7972
  222MOL    C5840280   0.796   1.044   1.388  0.2491  0.0651 -0.4110
  222MOL    O5940281   0.696   0.975   1.377 -0.2841  0.0123  0.2128
  222MOL    O6040282   0.904   1.007   1.461 -0.2105  0.0971 -0.5287
  222MOL    H6140283   0.965   1.275   1.439 -1.1468  2.9763  2.8189
  222MOL    H6240284   0.885   1.383   1.340  1.8743 -2.3046 -4.3124
  222MOL    H6340285   0.740   1.205   1.247  0.4719  2.3276 -0.6919
  222MOL    H6440286   0.873   0.939   1.519 -1.2056 -0.5017 -1.7523
  222MOL    C6540287   0.929   1.125   1.203 -0.1109 -0.1165  0.8328
  222MOL    C6640288   0.964   1.210   1.081  0.2993 -0.1194  0.4950
  222MOL    C6740289   1.058   1.328   1.112  0.3872  0.7164 -0.4006
  222MOL    O6840290   1.027   1.445   1.117  0.0935 -0.8904 -0.6108
  222MOL    O6940291   1.189   1.286   1.115 -0.0320  0.2062 -0.0862
  222MOL    H7040292   0.915   1.025   1.165  0.7355  0.8357 -2.1291
  222MOL    H7140293   1.023   1.121   1.258  0.8044  0.8641 -0.6455
  222MOL    H7240294   1.022   1.147   1.014 -0.6420  0.2365 -0.6732
  222MOL    H7340295   1.260   1.345   1.135  0.1589 -0.3840  1.0040
  222MOL    C7440296   0.844   1.235   0.995 -0.2031  0.0130  0.2217
  222MOL    C7540297   0.751   1.115   0.939 -1.1955  0.1977 -0.4670
  222MOL    C7640298   0.820   0.998   0.863 -0.5268 -0.7142 -0.1695
  222MOL    O7740299   0.894   0.928   0.927 -0.1622 -0.2883  0.0674
  222MOL    O7840300   0.791   0.986   0.734 -0.8407  0.4720  0.4511
  222MOL    H7940301   0.882   1.281   0.903 -0.5173 -0.7684 -0.3073
  222MOL    H8040302   0.780   1.315   1.033  0.9589  3.0236 -3.7732
  222MOL    H8140303   0.720   1.071   1.034  1.6428 -0.9810 -0.0327
  222MOL    H8240304   0.829   0.909   0.695  0.4711  2.2113 -1.8046
  222MOL    C8340305   0.628   1.177   0.865 -0.4315  0.2974  0.4469
  222MOL    C8440306   0.496   1.131   0.906 -0.8017 -0.1033  0.3383
  222MOL    C8540307   0.471   1.145   1.058 -0.4031  0.2182 -1.0356
  222MOL    O8640308   0.510   1.241   1.126  0.5874  0.0421  0.2239
  222MOL    O8740309   0.375   1.058   1.104 -0.3523  0.0895  0.5417
  222MOL    H8840310   0.626   1.154   0.758 -0.8214 -1.7424  0.8688
  222MOL    H8940311   0.631   1.285   0.874  2.7476  0.0448  3.2830
  222MOL    H9040312   0.425   1.199   0.858 -1.9612 -0.8207  1.0174
  222MOL    H9140313   0.355   1.061   1.197  2.3046  1.4527  1.1135
  222MOL    C9240314   0.461   0.989   0.851  0.0639 -0.1933  0.3132
  222MOL    C9340315   0.309   0.971   0.819  0.0367  0.2248 -0.3693
  222MOL    C9440316   0.254   0.823   0.849  0.1169  0.3062 -0.5010
  222MOL    O9540317   0.198   0.757   0.763 -0.2310 -0.1909 -0.1455
  222MOL    O9640318   0.280   0.780   0.974 -0.0195 -0.4497 -0.2128
  222MOL    H9740319   0.492   0.902   0.909 -2.2431 -1.2906 -0.0210
  222MOL    H9840320   0.515   0.986   0.757  0.1038  0.5009  0.3098
  222MOL    H9940321   0.260   1.032   0.895  0.3008  1.4565 -1.1791
  222MOL   H10040322   0.242   0.693   0.969  0.0573 -0.5435  0.7023
  222MOL   C10140323   0.255   1.041   0.687 -0.3909 -0.1817  0.1447
  222MOL   C10240324   0.291   0.977   0.555 -0.4253 -0.3400 -0.5261
  222MOL   C10340325   0.420   1.040   0.496 -0.4351  0.2473 -1.1275
  222MOL   O10440326   0.472   1.147   0.538  0.0674  0.7560 -0.3069
  222MOL   O10540327   0.474   0.958   0.402  0.1040 -0.0554  0.2156
  222MOL   H10640328   0.292   1.144   0.696 -0.5801 -0.2342  1.7007
  222MOL   H10740329   0.147   1.048   0.701 -0.2157 -0.1094  1.4937
  222MOL   H10840330   0.303   0.871   0.576 -1.4287 -0.5222 -0.8259
  222MOL   H10940331   0.553   0.981   0.356 -1.3896  1.0680 -1.8508
  222MOL   C11040332   0.191   0.997   0.442 -0.2298  0.3105  0.6741
  222MOL   C11140333   0.060   0.911   0.456  0.3747  0.6325  0.2357
  222MOL   C11240334   0.022   0.862   0.316  0.5107  0.1035 -0.6923
  222MOL   O11340335   0.012   0.742   0.286 -0.1708  0.6038  0.4828
  222MOL   O11440336   0.018   0.963   0.224 -0.1228  0.5462  0.1025
  222MOL   H11540337   0.238   0.992   0.344  1.4055  0.5764  1.4313
  222MOL   H11640338   0.161   1.101   0.443  0.6346  0.6585 -3.1281
  222MOL   H11740339   0.094   0.818   0.502 -2.4268 -0.6865 -0.2361
  222MOL   H11840340   7.851   0.907   0.150 -1.0106  2.4940 -1.1765
  222MOL   C11940341   7.787   0.970   0.518  0.2054 -0.2669 -0.8145
  222MOL   C12040342   7.704   0.859   0.596 -0.5020  0.0376  0.4747
  222MOL   C12140343   7.617   0.772   0.507 -0.2743 -0.8121  1.0057
  222MOL   O12240344   7.534   0.820   0.436  0.4051 -0.5226 -0.0527
  222MOL   O12340345   7.644   0.637   0.509 -0.2582 -0.3955 -0.4899
  222MOL   H12440346   7.723   1.027   0.450  0.7980 -0.2493 -1.3559
  222MOL   H12540347   7.821   1.033   0.600 -0.9925 -0.4646 -0.1502
  222MOL   H12640348   7.781   0.800   0.645  1.2258  3.5084  2.0895
  222MOL   H12740349   7.574   0.594   0.462 -0.6124  0.6819 -0.9775
  222MOL   C12840350   7.610   0.926   0.704 -0.6293 -0.3664 -0.4033
  222MOL   C12940351   7.619   0.863   0.840 -0.0728  0.0678 -0.8958
  222MOL   C13040352   7.766   0.866   0.895  0.4998  0.0873 -0.1247
  222MOL   O13140353   7.822   0.765   0.943 -0.1753 -0.0939  0.1828
  222MOL   O13240354   7.813   0.993   0.897 -0.6022  0.2782 -0.1363
  222MOL   H13340355   7.506   0.932   0.672 -0.8078 -2.6216 -0.3217
  222MOL   H13440356   7.641   1.029   0.719 -2.0382 -0.1827  1.4650
  222MOL   H13540357   7.566   0.920   0.916  1.8528 -1.7811  1.9535
  222MOL   H13640358   0.043   1.008   0.942 -0.7646  2.5416 -0.5198
  222MOL   C13740359   7.553   0.715   0.850 -0.9065 -0.0131 -0.4474
  222MOL   C13840360   7.405   0.702   0.818  0.0181 -0.3490  0.2778
  222MOL   C13940361   7.320   0.794   0.907  0.4121 -0.0982  0.4377
  222MOL   O14040362   7.339   0.811   1.028 -0.0935  0.3549  0.0759
  222MOL   O14140363   7.222   0.852   0.828 -0.5011  0.0214 -0.5340
  222MOL   H14240364   7.571   0.684   0.953  1.1141  2.4040 -0.0374
  222MOL   H14340365   7.605   0.645   0.784 -1.1214  0.1839 -0.8273
  222MOL   H14440366   7.396   0.740   0.716 -0.2312 -1.4577 -0.1257
  222MOL   H14540367   7.160   0.902   0.877  0.3349 -0.1470  0.7102
  222MOL   C14640368   7.348   0.559   0.815  0.6231  0.0111  0.3444
  222MOL   C14740369   7.396   0.456   0.705  0.3880  0.5299 -0.7426
  222MOL   C14840370   7.328   0.477   0.567 -0.0881  0.4514  0.3009
  222MOL   O14940371   7.221   0.422   0.540 -0.2517 -0.2633 -0.3378
  222MOL   O15040372   7.395   0.552   0.478 -0.0035 -0.4881  0.0476
  222MOL   H15140373   7.242   0.581   0.811  1.0170  1.8132 -0.2514
  222MOL   H15240374   7.368   0.516   0.913 -1.5529  0.0094  0.8136
  222MOL   H15340375   7.503   0.470   0.686  0.3522 -1.3313 -2.4598
  222MOL   H15440376   7.360   0.552   0.390  0.8256  5.4748 -0.4522
  222MOL   C15540377   7.358   0.313   0.762  0.5744 -0.2093  0.6149
  222MOL   C15640378   7.454   0.256   0.869 -1.0524 -0.3880 -0.1912
  222MOL   C15740379   7.595   0.231   0.809 -1.2846  0.2741 -0.1501
  222MOL   O15840380   7.636   0.118   0.776  0.6863 -0.4814  0.1654
  222MOL   O15940381   7.668   0.341   0.809 -0.4116  0.8649 -0.1281
  222MOL   H16040382   7.355   0.235   0.685  1.4865  0.0774  0.2842
  222MOL   H16140383   7.261   0.311   0.811  0.1041 -1.4978 -0.3442
  222MOL   H16240384   7.456   0.335   0.945  0.1170 -0.0116 -0.6012
  222MOL   H16340385   7.754   0.325   0.773  1.0476  3.3661  2.0846
  222MOL   C16440386   7.386   0.123   0.929 -0.0040 -0.3244  0.3002
  222MOL   C16540387   7.441   0.044   1.051  0.6492  0.3179 -0.1606
  222MOL   C16640388   7.382   7.756   1.054  0.3377  1.0567  0.0503
  222MOL   O16740389   7.448   7.648   1.060  0.0351 -0.6819 -0.2463
  222MOL   O16840390   7.247   7.754   1.041 -0.5805  0.1892  0.3738
  222MOL   H16940391   7.365   0.059   0.843 -2.0073  0.2557  0.3375
  222MOL   H17040392   7.288   0.158   0.960  0.2555  0.8390 -0.1611
  222MOL   H17140393   7.546   0.016   1.048  0.1162 -1.7995  0.0436
  222MOL   H17240394   7.227   7.662   1.047  1.8455 -0.4270 -0.2266
  222MOL   C17340395   7.420   0.117   1.181 -0.0743  0.2188 -0.2674
  222MOL   C17440396   7.531   0.114   1.294  0.2497  0.5235  0.4511
  222MOL   C17540397   7.509   0.015   1.409  0.4106  0.0052 -0.6794
  222MOL   O17640398   7.442   7.764   1.398 -0.5531  0.4296  0.2242
  222MOL   O17740399   7.576   0.055   1.515  0.2511  0.0273  0.1722
  222MOL   H17840400   7.326   0.076   1.218  0.0543 -0.6471 -0.8898
  222MOL   H17940401   7.391   0.220   1.162 -1.3650  0.1306  1.0773
  222MOL   H18040402   7.630   0.093   1.254 -0.0511 -0.5477  0.2656
  222MOL   H18140403   7.551   7.842   1.578  0.2507  0.6908  0.8713
  222MOL   H18240404   7.529   0.217   1.331 -0.8263  0.3430  0.9160
  223MOL     C140405   1.872   7.674   4.066  0.8148  0.0289 -0.3205
  223MOL     C240406   2.018   7.667   4.109  0.4433  0.8340 -0.2036
  223MOL     C340407   2.098   7.626   3.989 -0.6144 -0.5738  0.2987
  223MOL     O440408   2.102   7.507   3.954  0.5806 -0.2448  0.2081
  223MOL     O540409   2.163   7.730   3.930  0.3250  0.1060 -0.2959
  223MOL     H640410   1.864   7.714   3.965 -1.6912 -1.1759 -0.6660
  223MOL     H740411   1.821   7.579   4.082  0.2142  0.2821 -0.6825
  223MOL     H840412   2.045   7.770   4.131 -0.0153  0.9379 -0.1318
  223MOL     H940413   2.214   7.694   3.860 -0.5123  0.6946 -1.2238
  223MOL    H1040414   1.814   7.736   4.134  1.6084  0.9522 -0.4893
  223MOL    C1140415   2.045   7.575   4.231 -0.3011 -0.1859  0.0440
  223MOL    C1240416   2.160   7.607   4.319  0.4350 -0.6358 -0.2800
  223MOL    C1340417   2.250   7.488   4.351  0.9008  0.4358  0.0146
  223MOL    O1440418   2.210   7.382   4.408 -0.7541 -0.0700  0.1931
  223MOL    O1540419   2.380   7.522   4.334 -0.1415 -0.0227 -0.2935
  223MOL    H1640420   2.049   7.474   4.189 -1.6178 -0.2391  0.0318
  223MOL    H1740421   1.957   7.558   4.292  1.0555 -3.3272  1.2401
  223MOL    H1840422   2.220   7.679   4.264 -1.3931  0.0832 -1.3793
  223MOL    H1940423   2.440   7.449   4.332  0.7842  0.7831 -3.1792
  223MOL    C2040424   2.116   7.675   4.447 -0.6718 -0.7883 -0.7316
  223MOL    C2140425   2.091   7.828   4.425  0.6424 -0.4401 -0.1465
  223MOL    C2240426   2.228   0.050   4.387 -0.2807  0.0196 -0.0976
  223MOL    O2340427   2.332   0.032   4.456 -0.2797 -0.1648  0.0541
  223MOL    O2440428   2.217   0.126   4.276 -0.0896 -0.7515  0.1172
  223MOL    H2540429   2.188   7.664   4.528  0.7108 -2.2727 -2.1430
  223MOL    H2640430   2.029   7.633   4.497  0.1304  0.2592  1.6205
  223MOL    H2740431   2.030   7.832   4.335  0.7542  1.3026 -0.1504
  223MOL    H2840432   2.291   0.179   4.251 -0.8540 -0.8157 -2.4246
  223MOL    C2940433   2.033   0.042   4.554 -0.4017  1.2582 -0.2970
  223MOL    C3040434   1.889   0.005   4.606 -0.5211 -0.1553 -0.0793
  223MOL    C3140435   1.798   7.843   4.481  0.0305  0.3287  0.2901
  223MOL    O3240436   1.751   7.734   4.440  0.1070  0.0353  0.2145
  223MOL    O3340437   1.757   0.106   4.431  0.3058  0.6760 -0.1652
  223MOL    H3440438   2.033   0.150   4.538 -0.2717  1.0855 -1.5058
  223MOL    H3540439   2.112   0.025   4.627 -1.2231 -3.6339 -0.4384
  223MOL    H3640440   1.907   7.758   4.646 -1.0857 -1.0923 -2.1087
  223MOL    H3740441   1.698   0.097   4.357  2.3292 -1.8556 -1.5808
  223MOL    C3840442   1.839   0.096   4.723  0.4380 -0.0425 -0.1107
  223MOL    C3940443   1.733   0.041   4.833 -0.4960 -0.0186  0.3481
  223MOL    C4040444   1.790   7.767   4.893  0.0642  0.0275  0.2763
  223MOL    O4140445   1.750   7.659   4.866 -0.5494 -0.2502  0.0888
  223MOL    O4240446   1.890   7.790   4.978 -0.8595  0.3507 -0.2064
  223MOL    H4340447   1.803   0.193   4.689 -2.6488 -0.7135  1.0469
  223MOL    H4440448   1.934   0.107   4.775  1.4714 -1.0355 -1.7673
  223MOL    H4540449   1.729   0.118   4.911 -1.5176 -0.6623  0.9385
  223MOL    H4640450   1.910   7.714   5.030 -0.8036 -0.4178 -1.3215
  223MOL    C4740451   1.592   0.018   4.781 -0.0110 -0.8214  0.2428
  223MOL    C4840452   1.529   0.146   4.719 -0.4694 -0.2106  0.2937
  223MOL    C4940453   1.534   0.271   4.807 -0.8264  0.0395  0.1606
  223MOL    O5040454   1.566   0.385   4.765  0.7857 -0.3337  0.2622
  223MOL    O5140455   1.503   0.245   4.938  0.0604  0.6811  0.3289
  223MOL    H5240456   1.526   7.850   4.866 -0.6300  1.5039  0.3653
  223MOL    H5340457   1.575   7.792   4.707  1.6859 -0.0968 -0.9281
  223MOL    H5440458   1.592   0.177   4.636 -1.3376 -0.7514 -0.5817
  223MOL    H5540459   1.532   0.326   4.978 -0.9697  0.7212  1.0193
  223MOL    C5640460   1.382   0.115   4.670  0.0605 -0.6582  0.5776
  223MOL    C5740461   1.356   0.145   4.522  0.1073  0.1791  0.1652
  223MOL    C5840462   1.425   0.047   4.427 -0.3673  0.1850 -0.7236
  223MOL    O5940463   1.498   0.074   4.331 -0.5809 -0.0595 -0.2010
  223MOL    O6040464   1.389   7.773   4.450  0.3994  0.0389  0.4294
  223MOL    H6140465   1.311   0.176   4.726 -0.2549 -0.4517 -0.0416
  223MOL    H6240466   1.347   0.011   4.672 -1.1740 -0.2667  0.2807
  223MOL    H6340467   1.248   0.134   4.512  0.2040 -0.0283 -0.7456
  223MOL    H6440468   1.409   7.715   4.379  1.1446  1.0737 -0.2136
  223MOL    C6540469   1.378   0.294   4.496  0.6770 -0.2741  0.2726
  223MOL    C6640470   1.352   0.347   4.351 -0.4031  0.1644 -0.5937
  223MOL    C6740471   1.424   0.485   4.333 -0.0423 -0.5143 -0.8714
  223MOL    O6840472   1.515   0.524   4.405 -0.3387  0.0326  0.5662
  223MOL    O6940473   1.376   0.557   4.228 -0.5597  0.0673 -0.3897
  223MOL    H7040474   1.483   0.317   4.511 -0.1394  2.2830  2.3779
  223MOL    H7140475   1.322   0.351   4.569 -0.2842  1.5002 -1.7868
  223MOL    H7240476   1.395   0.282   4.275 -1.1306 -1.5447  0.4262
  223MOL    H7340477   1.419   0.640   4.219 -1.0751  0.2738 -0.9477
  223MOL    C7440478   1.197   0.348   4.316  0.1250 -0.5719 -0.9928
  223MOL    C7540479   1.146   0.285   4.183 -0.1705 -0.9461  0.0780
  223MOL    C7640480   1.196   0.354   4.055  0.0523  0.0757  0.4715
  223MOL    O7740481   1.125   0.431   3.991  0.0326  0.5391 -0.1855
  223MOL    O7840482   1.326   0.320   4.023 -0.2441  0.0280 -0.3901
  223MOL    H7940483   1.162   0.451   4.326  2.3176  0.1794 -0.5287
  223MOL    H8040484   1.141   0.286   4.385 -1.2342  0.0883 -1.4955
  223MOL    H8140485   1.175   0.180   4.173  2.5541  0.0264 -3.3751
  223MOL    H8240486   1.356   0.382   3.959 -0.6814  0.5218 -0.1164
  223MOL    C8340487   0.987   0.284   4.184 -0.0551  0.3017 -0.7816
  223MOL    C8440488   0.920   0.173   4.275 -0.2790  0.4391  0.0543
  223MOL    C8540489   0.846   0.071   4.185 -0.3758 -0.7395 -0.4733
  223MOL    O8640490   0.903   0.017   4.090 -0.1017  0.1122  0.3020
  223MOL    O8740491   0.722   0.047   4.222  0.3893 -0.3721  0.5087
  223MOL    H8840492   0.947   0.269   4.084  1.3990  1.2011 -1.5260
  223MOL    H8940493   0.958   0.383   4.217  1.2414  0.6038 -0.5352
  223MOL    H9040494   0.995   0.120   4.334 -2.0602 -1.8957  0.2917
  223MOL    H9140495   0.689   7.821   4.182  2.0802 -1.6851  1.6330
  223MOL    C9240496   0.822   0.248   4.377 -0.3380  0.1127 -0.1514
  223MOL    C9340497   0.763   0.164   4.492 -0.1244 -0.8201 -1.1277
  223MOL    C9440498   0.617   0.203   4.508 -0.3269  0.1479  0.1460
  223MOL    O9540499   0.531   0.161   4.434  0.2490 -0.0217 -0.0891
  223MOL    O9640500   0.586   0.278   4.618 -0.4480 -0.1488  0.4926
  223MOL    H9740501   0.743   0.298   4.320 -1.9072 -0.6363  1.3148
  223MOL    H9840502   0.878   0.326   4.427 -1.6134  0.8873  0.1046
  223MOL    H9940503   0.773   0.060   4.463 -0.3973 -1.5139  1.1252
  223MOL   H10040504   0.497   0.308   4.621 -0.6883 -0.3082 -3.1513
  223MOL   C10140505   0.846   0.189   4.619  0.1416  0.3272  0.4525
  223MOL   C10240506   0.828   0.088   4.735  0.0249  0.2830 -0.2804
  223MOL   C10340507   0.866   0.151   4.867  0.3561 -1.3059  0.3442
  223MOL   O10440508   0.792   0.149   4.969  0.3012 -0.3769  0.5967
  223MOL   O10540509   0.988   0.200   4.866  0.6308 -0.2833 -0.0018
  223MOL   H10640510   0.815   0.286   4.656 -0.5636  0.3760 -0.2472
  223MOL   H10740511   0.951   0.188   4.592  0.2953  1.8816  0.9722
  223MOL   H10840512   0.723   0.057   4.746  0.5269 -0.7454  2.0252
  223MOL   H10940513   1.006   0.237   4.951  3.4402  1.5206 -1.2842
  223MOL   C11040514   0.913   7.810   4.702  0.2520 -1.3581  0.7146
  223MOL   C11140515   0.908   7.686   4.793  0.1616  0.0164  0.4441
  223MOL   C11240516   0.769   7.624   4.806  0.1044  0.1180  0.2573
  223MOL   O11340517   0.699   7.637   4.906  0.2401  0.2985 -1.1649
  223MOL   O11440518   0.732   7.558   4.699 -0.0925 -0.6422 -0.8209
  223MOL   H11540519   1.017   7.830   4.675  0.1268 -0.4192  0.9009
  223MOL   H11640520   0.878   7.769   4.608  0.0219 -1.1910  0.7285
  223MOL   H11740521   0.962   7.613   4.734  3.6065  1.2500  1.9095
  223MOL   H11840522   0.652   7.510   4.710  0.1632 -1.2495 -1.6369
  223MOL   C11940523   0.974   7.689   4.935 -0.2099 -0.5832 -0.1996
  223MOL   C12040524   1.112   7.747   4.954 -0.4103 -0.0219  0.2805
  223MOL   C12140525   1.227   7.692   4.868  0.3154  0.1887  0.3965
  223MOL   O12240526   1.344   7.680   4.913 -0.4477 -0.1266 -0.2495
  223MOL   O12340527   1.189   7.668   4.736 -0.5614  0.3342 -0.3053
  223MOL   H12440528   0.968   7.590   4.979  0.1919  0.4354  2.2001
  223MOL   H12540529   0.903   7.747   4.993 -0.0778  1.4093 -1.9356
  223MOL   H12640530   1.111   7.847   4.910  2.0621  0.3686  1.0482
  223MOL   H12740531   1.264   7.629   4.693 -1.0663 -0.5822 -0.3583
  223MOL   C12840532   1.147   7.765   5.100  0.5108 -0.4193  0.8086
  223MOL   C12940533   1.111   0.055   5.151  0.1383  0.4851  0.6604
  223MOL   C13040534   1.215   0.162   5.105 -0.0991 -0.4024 -0.5492
  223MOL   O13140535   1.190   0.266   5.047 -0.0482 -0.2860  0.5033
  223MOL   O13240536   1.342   0.123   5.137  0.1915 -0.0192  0.1653
  223MOL   H13340537   1.254   7.755   5.114  1.0300  1.9180 -1.1893
  223MOL   H13440538   1.096   7.695   5.166 -0.3558  0.7011  1.3515
  223MOL   H13540539   1.021   0.091   5.102  1.0871  0.0950 -1.4364
  223MOL   H13640540   1.405   0.183   5.100  1.8606 -3.4413 -2.8024
  223MOL   C13740541   1.090   0.048   5.303 -0.8171  0.5090 -0.2467
  223MOL   C13840542   0.944   0.013   5.352 -0.2264  0.3195 -0.6530
  223MOL   C13940543   0.851   0.132   5.322  0.8692  0.4065  0.3481
  223MOL   O14040544   0.892   0.240   5.293 -0.2518 -0.0276  0.7145
  223MOL   O14140545   0.720   0.095   5.347  0.6615  0.1516  0.7142
  223MOL   H14240546   1.128   0.142   5.345  0.3812  0.5921 -1.5058
  223MOL   H14340547   1.157   7.824   5.340 -0.9376  0.0603 -0.9489
  223MOL   H14440548   0.899   7.782   5.299  2.8667 -0.2547 -2.5803
  223MOL   H14540549   0.668   0.165   5.312  0.4116 -0.1527  0.4795
  223MOL   C14640550   0.937   7.835   5.508  0.5967  0.6089 -0.6380
  223MOL   C14740551   0.979   7.687   5.539 -1.0533 -0.0731  0.2588
  223MOL   C14840552   0.871   7.610   5.611  0.0050  0.0956 -0.3496
  223MOL   O14940553   0.873   7.598   5.734 -0.4545  0.1012  0.2275
  223MOL   O15040554   0.763   7.577   5.530 -0.0197 -0.3693 -0.1822
  223MOL   H15140555   0.844   7.852   5.561 -0.5665 -0.3289 -2.3219
  223MOL   H15240556   1.009   0.050   5.554  1.9659 -2.0334  1.2815
  223MOL   H15340557   0.995   7.635   5.444  0.9031 -0.0562  0.5622
  223MOL   H15440558   0.698   7.529   5.578 -1.9426  0.5294 -1.7547
  223MOL   C15540559   1.118   7.692   5.616 -0.7156  1.1096 -0.1613
  223MOL   C15640560   1.206   7.571   5.615  0.1003  0.6983  0.6772
  223MOL   C15740561   1.244   7.535   5.475 -0.5948 -0.6923  0.4287
  223MOL   O15840562   1.193   7.452   5.405 -0.2245 -0.3827  0.4606
  223MOL   O15940563   1.345   7.611   5.433  0.2807  0.0920 -0.1359
  223MOL   H16040564   1.096   7.726   5.717 -2.8066 -1.2528  0.2129
  223MOL   H16140565   1.177   7.774   5.575  0.0411  0.3710 -0.5652
  223MOL   H16240566   1.301   7.600   5.660  1.5396  0.7514 -2.2961
  223MOL   H16340567   1.360   7.571   5.349 -1.1749  0.2717 -0.5030
  223MOL   C16440568   1.158   7.453   5.699  0.3388  0.2922  0.6689
  223MOL   C16540569   1.263   7.342   5.726 -0.2232 -0.2589 -0.1048
  223MOL   C16640570   1.262   7.220   5.619  0.3345 -0.5407  0.1711
  223MOL   O16740571   1.187   7.120   5.630  0.5042 -0.5208  0.4164
  223MOL   O16840572   1.355   7.243   5.525  0.5452  0.2265 -0.6779
  223MOL   H16940573   1.071   7.413   5.647  0.3190  0.8147  0.2947
  223MOL   H17040574   1.115   7.491   5.792 -0.2884  2.2622 -0.4109
  223MOL   H17140575   1.366   7.377   5.723 -0.4013  0.2593 -0.2985
  223MOL   H17240576   1.371   7.172   5.465 -0.5887 -0.6594  0.0513
  223MOL   C17340577   1.235   7.287   5.870  0.0666 -0.4524 -0.2633
  223MOL   C17440578   1.323   7.163   5.921 -0.4770  0.2525  0.3171
  223MOL   C17540579   1.468   7.204   5.934  0.0875  0.1498  0.0687
  223MOL   O17640580   1.520   7.211   6.047  0.0031  0.0869  0.3403
  223MOL   O17740581   1.530   7.226   5.812  0.0382 -0.0731  0.2316
  223MOL   H17840582   1.133   7.250   5.884 -0.5811  1.0344 -0.9561
  223MOL   H17940583   1.238   7.370   5.940 -0.5868 -0.4346 -0.2538
  223MOL   H18040584   1.289   7.129   6.018  0.1293 -0.6740  0.2248
  223MOL   H18140585   1.617   7.248   5.841 -1.0747  0.4125  3.3997
  223MOL   H18240586   1.331   7.077   5.853  1.1803  0.1199  0.6669
  224MOL     C140587   2.557   4.789   5.556  0.1058  0.2462 -0.1698
  224MOL     C240588   2.427   4.853   5.508 -0.0759 -0.0131  0.4154
  224MOL     C340589   2.308   4.782   5.573  0.4901 -0.7859 -0.0506
  224MOL     O440590   2.234   4.707   5.509  0.4276  1.2000  0.3546
  224MOL     O540591   2.301   4.799   5.711 -0.3931  0.0047  0.1552
  224MOL     H640592   2.643   4.838   5.510 -0.9549  1.2429 -1.1159
  224MOL     H740593   2.555   4.800   5.664 -2.1229 -0.1423 -0.1436
  224MOL     H840594   2.422   4.953   5.551 -2.8079 -0.7321  1.8661
  224MOL     H940595   2.221   4.762   5.745  0.0796 -2.5839 -1.3745
  224MOL    H1040596   2.559   4.682   5.534  2.0404  0.4472 -1.0772
  224MOL    C1140597   2.428   4.866   5.352 -0.6622 -0.5023  0.5338
  224MOL    C1240598   2.426   4.740   5.268 -0.1287 -0.3259  0.2454
  224MOL    C1340599   2.548   4.724   5.173 -0.2488 -0.4795  0.3603
  224MOL    O1440600   2.636   4.810   5.163 -0.3034 -0.2457  0.0513
  224MOL    O1540601   2.545   4.601   5.103 -0.0469  0.7219 -0.0169
  224MOL    H1640602   2.521   4.919   5.332 -1.1170  0.1487  0.1177
  224MOL    H1740603   2.343   4.932   5.332  0.7152  1.8280  2.1758
  224MOL    H1840604   2.432   4.662   5.344 -0.7677  0.7236  1.3869
  224MOL    H1940605   2.613   4.587   5.040  0.4867  0.4717  0.6100
  224MOL    C2040606   2.295   4.724   5.196 -0.5532 -0.2841  0.0150
  224MOL    C2140607   2.270   4.789   5.055 -0.5052 -0.1187 -0.1405
  224MOL    C2240608   2.276   4.942   5.051 -0.1980  0.2392 -0.5955
  224MOL    O2340609   2.181   5.011   5.077  0.5350 -0.3278 -0.3063
  224MOL    O2440610   2.394   4.992   5.002 -0.2077 -0.2902  0.4602
  224MOL    H2540611   2.217   4.753   5.267  0.5056 -0.7377  1.3702
  224MOL    H2640612   2.285   4.617   5.182  0.3345 -0.4779  0.8416
  224MOL    H2740613   2.352   4.751   4.995  0.3865  0.6080  0.6011
  224MOL    H2840614   2.399   5.086   4.995  0.2802 -0.3751 -0.4207
  224MOL    C2940615   2.144   4.743   4.978  0.3962  0.0939 -0.4875
  224MOL    C3040616   2.145   4.769   4.825  0.0332  0.4111 -0.2625
  224MOL    C3140617   2.005   4.753   4.768  0.0726  0.0754 -0.0987
  224MOL    O3240618   1.934   4.657   4.798  0.3099 -0.7981  0.0521
  224MOL    O3340619   1.975   4.847   4.671 -0.2122  0.1253 -0.0310
  224MOL    H3440620   2.059   4.784   5.032  1.7340  1.4286  0.6376
  224MOL    H3540621   2.125   4.635   4.982  1.3047 -0.1274 -1.9529
  224MOL    H3640622   2.177   4.874   4.827  0.8043  0.1620  0.3874
  224MOL    H3740623   1.899   4.817   4.623 -1.4367 -0.1460  2.0016
  224MOL    C3840624   2.247   4.673   4.749 -0.1736 -0.3139  0.3295
  224MOL    C3940625   2.279   4.707   4.601 -0.5144 -0.4108  0.2033
  224MOL    C4040626   2.363   4.589   4.540  0.2663 -0.8206 -0.6447
  224MOL    O4140627   2.465   4.609   4.476  0.0741 -0.2496  0.0725
  224MOL    O4240628   2.321   4.463   4.575  0.6578  0.2681  0.1449
  224MOL    H4340629   2.202   4.574   4.748 -1.4175  0.2381  0.8881
  224MOL    H4440630   2.342   4.666   4.803  0.5080  0.7009 -0.7076
  224MOL    H4540631   2.190   4.704   4.538  0.4215  0.1324 -1.1631
  224MOL    H4640632   2.376   4.400   4.530  0.7095 -0.2853  0.9768
  224MOL    C4740633   2.347   4.848   4.588 -0.9484 -0.2164  0.5739
  224MOL    C4840634   2.297   4.943   4.477  0.4481 -0.0853 -0.4942
  224MOL    C4940635   2.290   4.887   4.341 -0.0154  0.0417 -0.2421
  224MOL    O5040636   2.336   4.779   4.303 -0.2316 -0.5293  0.1992
  224MOL    O5140637   2.222   4.972   4.260 -0.0717 -0.4115  0.2751
  224MOL    H5240638   2.456   4.846   4.576 -0.7179  1.8952  2.1084
  224MOL    H5340639   2.322   4.906   4.676  1.4650  0.4796  0.8402
  224MOL    H5440640   2.194   4.967   4.500  0.0919  0.7532 -2.8105
  224MOL    H5540641   2.205   4.945   4.171  3.5858 -1.5323 -0.1513
  224MOL    C5640642   2.383   5.079   4.479  1.2482 -0.1879 -0.0810
  224MOL    C5740643   2.317   5.209   4.526  0.0618 -0.5061  0.0429
  224MOL    C5840644   2.285   5.205   4.675  0.7978  0.5024 -0.2955
  224MOL    O5940645   2.365   5.248   4.760  0.1106  0.3068  0.2178
  224MOL    O6040646   2.157   5.154   4.700 -0.2045  0.0280  1.0378
  224MOL    H6140647   2.435   5.106   4.387  0.3225  0.0697 -0.5375
  224MOL    H6240648   2.477   5.069   4.533  0.7228  0.1929  0.9213
  224MOL    H6340649   2.395   5.283   4.510 -0.5324 -0.0862 -0.9621
  224MOL    H6440650   2.145   5.186   4.788 -1.9868  2.5474 -0.0313
  224MOL    C6540651   2.194   5.265   4.434 -0.6296  0.1929 -0.2678
  224MOL    C6640652   2.156   5.412   4.446 -0.2078 -0.7464  0.1840
  224MOL    C6740653   2.037   5.456   4.352  0.4855 -0.5931 -0.2426
  224MOL    O6840654   1.939   5.515   4.402  0.2947 -0.1067 -0.0862
  224MOL    O6940655   2.058   5.422   4.224 -1.0245  0.3376 -0.6914
  224MOL    H7040656   2.103   5.214   4.464  0.3344 -1.9096 -0.8127
  224MOL    H7140657   2.215   5.241   4.329  2.0226  1.0615  0.0129
  224MOL    H7240658   2.118   5.417   4.548 -1.0609 -3.2932  0.0235
  224MOL    H7340659   1.987   5.437   4.163 -1.4627 -4.2053 -1.4979
  224MOL    C7440660   2.270   5.514   4.449  0.0690 -0.2348  0.5324
  224MOL    C7540661   2.348   5.548   4.323  1.2991 -0.3398  0.2190
  224MOL    C7640662   2.408   5.424   4.254 -0.2972 -0.3043 -0.0113
  224MOL    O7740663   2.369   5.376   4.144 -0.0108 -0.4302  0.1306
  224MOL    O7840664   2.517   5.381   4.325 -0.3125  0.8771  0.6964
  224MOL    H7940665   2.338   5.495   4.532  0.5442  0.7507  0.3704
  224MOL    H8040666   2.226   5.608   4.482 -0.9925 -0.0184 -1.4435
  224MOL    H8140667   2.282   5.584   4.245 -1.0157  0.5690  2.5329
  224MOL    H8240668   2.554   5.306   4.282 -0.0693  1.5857 -0.3594
  224MOL    C8340669   2.459   5.657   4.355  0.3769 -0.5829  0.0649
  224MOL    C8440670   2.402   5.808   4.377 -0.4802 -0.0230  0.0769
  224MOL    C8540671   2.330   5.855   4.245  0.0079  0.2680 -0.0458
  224MOL    O8640672   2.208   5.885   4.245 -0.0025 -0.1055  0.0149
  224MOL    O8740673   2.415   5.866   4.141 -0.0263 -0.5842 -0.3076
  224MOL    H8840674   2.540   5.656   4.282  0.8568  3.1286  0.4131
  224MOL    H8940675   2.504   5.633   4.451  1.1498  3.0394  0.7019
  224MOL    H9040676   2.342   5.810   4.468 -0.5983  2.7481 -0.0193
  224MOL    H9140677   2.365   5.898   4.068  1.4396 -1.1109 -1.5685
  224MOL    C9240678   2.530   5.894   4.401 -0.0197 -0.0223  0.3046
  224MOL    C9340679   2.523   6.036   4.455 -0.7273  0.1162  0.2242
  224MOL    C9440680   2.661   6.109   4.458 -0.2672  0.4488  0.2475
  224MOL    O9540681   2.770   6.047   4.475 -0.6400 -0.6370  0.0493
  224MOL    O9640682   2.657   6.243   4.458  0.3206  0.3575 -0.6747
  224MOL    H9740683   2.594   5.902   4.313 -2.8951  0.2667 -1.8277
  224MOL    H9840684   2.591   5.838   4.472  0.9705 -0.6033 -0.9821
  224MOL    H9940685   2.464   6.091   4.382 -0.8391 -0.0310  0.2052
  224MOL   H10040686   2.746   6.268   4.480  0.5015  0.7904 -1.8460
  224MOL   C10140687   2.440   6.070   4.581  0.4794 -0.5197  0.5159
  224MOL   C10240688   2.469   6.000   4.713  0.0142 -0.4194  0.1665
  224MOL   C10340689   2.353   6.007   4.812  0.5948  0.3359 -0.7211
  224MOL   O10440690   2.339   5.921   4.900  0.2692 -0.3584 -0.7475
  224MOL   O10540691   2.268   6.111   4.787 -0.2553  0.4149  0.6452
  224MOL   H10640692   2.338   6.035   4.565 -0.5965  2.7074  0.1485
  224MOL   H10740693   2.437   6.177   4.601  2.5227 -0.1110 -1.1921
  224MOL   H10840694   2.470   5.894   4.687 -2.8769 -0.3913 -0.1761
  224MOL   H10940695   2.194   6.120   4.844 -1.1694 -1.3088 -0.2185
  224MOL   C11040696   2.604   6.029   4.777 -0.4017 -0.4681 -0.5626
  224MOL   C11140697   2.644   6.177   4.811  0.0133  0.0647  0.4584
  224MOL   C11240698   2.787   6.180   4.873 -1.0532  0.2256  0.5622
  224MOL   O11340699   2.859   6.081   4.879 -0.4945  1.2699  0.2123
  224MOL   O11440700   2.825   6.305   4.903 -0.1414  0.9066 -0.0936
  224MOL   H11540701   2.684   5.990   4.714  0.8847  0.7598  0.2738
  224MOL   H11640702   2.614   5.974   4.871  1.7869  2.4120  0.9583
  224MOL   H11740703   2.655   6.236   4.720  1.4147 -1.5545 -0.4402
  224MOL   H11840704   2.914   6.325   4.929 -0.2134  0.6801  0.3228
  224MOL   C11940705   2.547   6.245   4.908  0.2511  0.1920 -0.0032
  224MOL   C12040706   2.507   6.187   5.046 -1.4147  0.0592  0.3750
  224MOL   C12140707   2.367   6.246   5.082  0.1430  0.1657  0.8818
  224MOL   O12240708   2.268   6.179   5.092 -0.5727  0.4761 -0.3606
  224MOL   O12340709   2.364   6.385   5.083  0.1865 -0.0150  0.1183
  224MOL   H12440710   2.455   6.260   4.851  0.8674  3.4890 -0.2823
  224MOL   H12540711   2.580   6.348   4.922  0.2603  0.2927 -0.7395
  224MOL   H12640712   2.488   6.080   5.040 -1.9139  0.1693 -0.0591
  224MOL   H12740713   2.274   6.404   5.105 -0.0785 -0.1277 -0.8442
  224MOL   C12840714   2.612   6.209   5.158  0.5829 -0.0597 -0.2799
  224MOL   C12940715   2.615   6.102   5.277  0.0958 -0.1060  0.0101
  224MOL   C13040716   2.474   6.058   5.315 -0.3114  0.3688  0.3357
  224MOL   O13140717   2.427   5.947   5.288  0.0322  0.0337 -0.1239
  224MOL   O13240718   2.408   6.156   5.384  0.3049  0.5249  0.5670
  224MOL   H13340719   2.609   6.305   5.209  0.7465  0.6595 -1.6144
  224MOL   H13440720   2.714   6.206   5.118 -0.2708  0.2224 -2.5186
  224MOL   H13540721   2.666   6.022   5.223 -1.1926  0.8086 -2.6934
  224MOL   H13640722   2.443   6.244   5.390 -1.6841  1.3327  0.8521
  224MOL   C13740723   2.703   6.146   5.399  0.5912 -0.1699 -0.3101
  224MOL   C13840724   2.719   6.054   5.527  0.3727 -0.1075 -0.0356
  224MOL   C13940725   2.728   6.130   5.661 -0.3554  0.2594 -0.2658
  224MOL   O14040726   2.801   6.099   5.756 -0.2865  0.3954  0.1333
  224MOL   O14140727   2.649   6.237   5.672  0.2541 -0.1174 -0.1244
  224MOL   H14240728   2.675   6.246   5.432 -0.9889 -0.4806 -0.6541
  224MOL   H14340729   2.807   6.157   5.368  0.0073  0.5051 -2.1184
  224MOL   H14440730   2.619   6.012   5.542  0.2618 -0.2965 -1.2676
  224MOL   H14540731   2.641   6.280   5.755 -0.3540 -0.9450  0.2504
  224MOL   C14640732   2.818   5.935   5.496  0.6029 -0.9676 -0.2139
  224MOL   C14740733   2.819   5.818   5.597  0.3199 -0.0073  0.2182
  224MOL   C14840734   2.960   5.786   5.647 -0.6567  0.4726  0.2349
  224MOL   O14940735   3.061   5.783   5.578 -0.5917 -0.4201  0.2852
  224MOL   O15040736   2.968   5.762   5.778  0.5263 -0.4345  0.2398
  224MOL   H15140737   2.914   5.985   5.481  0.7887 -1.2358  0.0694
  224MOL   H15240738   2.798   5.906   5.393  0.3306 -0.5958 -0.2677
  224MOL   H15340739   2.758   5.836   5.685 -0.3640 -2.1086  0.2119
  224MOL   H15440740   3.050   5.727   5.809  0.1421 -0.1108  1.6401
  224MOL   C15540741   2.737   5.694   5.538  0.6061  0.6493  0.1088
  224MOL   C15640742   2.670   5.575   5.619  0.0117  0.0504 -0.0156
  224MOL   C15740743   2.555   5.619   5.712 -0.2718  0.3252 -0.1644
  224MOL   O15840744   2.511   5.735   5.699  0.7555 -0.0428 -0.1441
  224MOL   O15940745   2.520   5.516   5.791 -0.0739  0.0183 -0.5730
  224MOL   H16040746   2.787   5.645   5.454 -0.7073  0.9175 -0.8461
  224MOL   H16140747   2.661   5.742   5.476  0.0402 -0.2048  0.1323
  224MOL   H16240748   2.624   5.505   5.550 -1.7490 -0.2635  1.4578
  224MOL   H16340749   2.452   5.556   5.843  0.4262 -0.6948  0.6559
  224MOL   C16440750   2.780   5.496   5.691 -1.0397  1.0340 -0.3386
  224MOL   C16540751   2.755   5.336   5.686  0.0130 -0.0128 -0.0318
  224MOL   C16640752   2.800   5.272   5.819  0.3729  0.0436  0.3917
  224MOL   O16740753   2.909   5.216   5.823  0.2482  0.0868 -0.1838
  224MOL   O16840754   2.705   5.297   5.916  0.1887 -0.2599 -0.4480
  224MOL   H16940755   2.796   5.529   5.794 -1.3582  0.3376 -0.0681
  224MOL   H17040756   2.876   5.518   5.644 -1.7666 -1.7325 -3.3117
  224MOL   H17140757   2.653   5.306   5.661  1.1459 -2.0940 -2.3670
  224MOL   H17240758   2.648   5.371   5.901 -2.1226 -1.2026  3.1609
  224MOL   C17340759   2.818   5.278   5.551  0.4306 -0.6859 -0.1875
  224MOL   C17440760   2.776   5.133   5.525 -0.1589 -0.6102 -0.4479
  224MOL   C17540761   2.765   5.114   5.372 -0.4770  0.5119 -0.6219
  224MOL   O17640762   2.676   5.158   5.300  0.2992  0.1929 -0.5630
  224MOL   O17740763   2.863   5.034   5.326  0.5955 -0.2544 -0.0504
  224MOL   H17840764   2.926   5.290   5.539  0.7657 -1.8849  1.3734
  224MOL   H17940765   2.776   5.329   5.465  1.5293 -1.3594 -1.1434
  224MOL   H18040766   2.838   5.056   5.569 -2.1064 -1.1082  1.5211
  224MOL   H18140767   2.856   5.023   5.232 -1.3550  1.2684 -0.1314
  224MOL   H18240768   2.677   5.111   5.566  0.4917 -0.9326  0.9656
  225MOL     C140769   5.274   6.839   2.842 -0.7212 -0.6775 -0.0006
  225MOL     C240770   5.333   6.936   2.747  0.1674 -0.4709  0.0584
  225MOL     C340771   5.222   6.985   2.652 -0.0487 -0.2745 -1.0967
  225MOL     O440772   5.204   6.947   2.539  0.2105 -0.1957 -0.4774
  225MOL     O540773   5.147   7.085   2.707  0.3289  0.2157  0.3663
  225MOL     H640774   5.180   6.878   2.881 -1.9753 -2.8090 -0.8010
  225MOL     H740775   5.249   6.742   2.799 -0.9646 -0.6382  0.0458
  225MOL     H840776   5.356   7.024   2.807  0.0960  0.2443 -0.9332
  225MOL     H940777   5.085   7.125   2.647 -0.7190 -4.5643 -1.9800
  225MOL    H1040778   5.327   6.821   2.936  0.6291  1.2288 -0.3875
  225MOL    C1140779   5.445   6.866   2.667 -0.0924  0.0695 -0.0057
  225MOL    C1240780   5.564   6.811   2.751 -0.0270 -0.0811 -0.3775
  225MOL    C1340781   5.622   6.923   2.845 -1.0604 -0.8479  0.7062
  225MOL    O1440782   5.707   6.899   2.935  0.2003 -0.0371  0.1136
  225MOL    O1540783   5.598   7.050   2.805  0.0943 -0.0793 -0.4453
  225MOL    H1640784   5.476   6.944   2.598 -3.2552 -0.3739 -2.0500
  225MOL    H1740785   5.392   6.789   2.610 -0.6030  1.7695 -1.9276
  225MOL    H1840786   5.531   6.726   2.812 -0.9053  1.8915  1.9973
  225MOL    H1940787   5.637   7.112   2.865  1.4232 -0.2093 -1.1399
  225MOL    C2040788   5.676   6.760   2.660 -0.3470 -0.3772  0.0786
  225MOL    C2140789   5.646   6.624   2.604 -0.9167 -0.2788 -0.5961
  225MOL    C2240790   5.681   6.513   2.711  0.1087 -0.8090  0.3644
  225MOL    O2340791   5.603   6.449   2.776 -1.0106 -0.1704  0.2106
  225MOL    O2440792   5.819   6.495   2.724 -0.0659 -0.0230  0.0321
  225MOL    H2540793   5.766   6.750   2.722  1.7570 -1.0151 -2.9806
  225MOL    H2640794   5.702   6.837   2.587  2.1516  0.0961  1.4039
  225MOL    H2740795   5.540   6.622   2.580 -0.6593 -2.1716 -1.6404
  225MOL    H2840796   5.824   6.411   2.767  0.1614 -0.7435 -1.3881
  225MOL    C2940797   5.737   6.600   2.479  0.4096 -0.1103 -0.2238
  225MOL    C3040798   5.692   6.673   2.350 -0.4061  0.0536 -0.4395
  225MOL    C3140799   5.559   6.614   2.294 -0.7483  0.4558 -0.0001
  225MOL    O3240800   5.548   6.535   2.198 -0.1850 -0.0832  0.2394
  225MOL    O3340801   5.450   6.677   2.347 -0.5154 -0.0007  0.0630
  225MOL    H3440802   5.744   6.492   2.466 -0.5885 -0.2263  0.1857
  225MOL    H3540803   5.842   6.623   2.498 -0.0086  1.1655  0.6332
  225MOL    H3640804   5.669   6.774   2.383 -2.0902 -1.4850  3.4141
  225MOL    H3740805   5.383   6.643   2.290  0.1064 -2.4043  0.7289
  225MOL    C3840806   5.809   6.673   2.248  0.2013  0.0902 -0.2640
  225MOL    C3940807   5.782   6.760   2.119 -0.5937 -0.0838 -0.5113
  225MOL    C4040808   5.895   6.745   2.012 -0.3391 -0.0499 -0.2500
  225MOL    O4140809   5.943   6.638   1.974 -0.6793 -1.0852 -0.4030
  225MOL    O4240810   5.933   6.857   1.958  0.4546 -0.2533 -0.3940
  225MOL    H4340811   5.830   6.572   2.213  0.0001  0.2813 -0.9524
  225MOL    H4440812   5.900   6.702   2.301 -0.0155  0.9737 -0.3636
  225MOL    H4540813   5.695   6.713   2.073 -1.2624  2.0269 -1.4811
  225MOL    H4640814   6.012   6.845   1.908  1.8238 -2.6349  2.1969
  225MOL    C4740815   5.750   6.905   2.149 -0.4256 -0.5728 -0.0052
  225MOL    C4840816   5.871   6.994   2.206 -0.3027  0.7392  0.2051
  225MOL    C4940817   5.849   7.008   2.356 -0.4585 -0.6542  0.2393
  225MOL    O5040818   5.746   7.059   2.405 -0.3818 -0.1465  0.1484
  225MOL    O5140819   5.955   6.953   2.429  0.4409 -0.6671  0.7552
  225MOL    H5240820   5.663   6.930   2.210 -1.2708  2.2458 -2.2360
  225MOL    H5340821   5.722   6.955   2.056 -0.7554  1.0363  0.9351
  225MOL    H5440822   5.968   6.949   2.183  0.3695  2.6919 -0.9073
  225MOL    H5540823   5.944   6.963   2.522 -1.3527  0.2644  0.4608
  225MOL    C5640824   5.864   7.140   2.146  0.5955 -0.3310  0.1344
  225MOL    C5740825   5.984   7.237   2.160 -0.4351  0.1459  0.5781
  225MOL    C5840826   5.933   7.378   2.163 -0.1933 -0.9558 -0.2792
  225MOL    O5940827   5.850   7.421   2.083 -0.4760  0.1078 -0.0684
  225MOL    O6040828   6.002   7.457   2.254 -0.1937 -0.0669 -0.5858
  225MOL    H6140829   5.781   7.192   2.193  1.9647  0.6095  1.5738
  225MOL    H6240830   5.839   7.135   2.040 -0.0960  1.3045  0.2116
  225MOL    H6340831   6.034   7.232   2.256  0.2427 -2.0373  0.1227
  225MOL    H6440832   6.060   7.402   2.304  0.2336  1.7166  0.9364
  225MOL    C6540833   6.079   7.216   2.048  0.0663 -0.1187  0.4593
  225MOL    C6640834   6.210   7.304   2.041 -0.5784  0.0341  0.8320
  225MOL    C6740835   6.217   7.388   1.912 -0.2931 -0.3501 -0.0825
  225MOL    O6840836   6.284   7.360   1.813  0.4581  0.0729 -0.6593
  225MOL    O6940837   6.145   7.498   1.930  0.0924 -0.2205 -0.5870
  225MOL    H7040838   6.025   7.210   1.953  0.2410  0.7082  0.3042
  225MOL    H7140839   6.104   7.111   2.059  1.8444  0.2243 -0.1707
  225MOL    H7240840   6.214   7.381   2.118  0.2536  1.0042 -0.1678
  225MOL    H7340841   6.134   7.551   1.852 -0.6050  1.3491  0.5489
  225MOL    C7440842   6.334   7.208   2.060  0.6878 -0.1817 -1.2347
  225MOL    C7540843   6.477   7.275   2.069  0.4796 -0.2868  0.3834
  225MOL    C7640844   6.580   7.186   2.007  0.3561 -0.6157 -0.0036
  225MOL    O7740845   6.568   7.137   1.896 -0.1206 -0.9230  0.1268
  225MOL    O7840846   6.691   7.162   2.084 -0.3154 -0.0538  0.0934
  225MOL    H7940847   6.328   7.134   1.979  2.2370 -1.8362  0.1285
  225MOL    H8040848   6.324   7.139   2.144 -0.3107  1.4231 -0.0241
  225MOL    H8140849   6.479   7.357   1.997 -3.0717  0.6328  1.2145
  225MOL    H8240850   6.744   7.096   2.042 -0.0073 -0.5916  1.3347
  225MOL    C8340851   6.503   7.323   2.210 -0.0221 -0.6612 -0.4218
  225MOL    C8440852   6.552   7.469   2.232 -0.8456  0.2150 -0.6478
  225MOL    C8540853   6.442   7.564   2.195  1.2421  0.0475 -0.2633
  225MOL    O8640854   6.446   7.645   2.106  0.4144  0.7700 -0.7866
  225MOL    O8740855   6.333   7.546   2.271 -0.0100 -0.4293 -0.2964
  225MOL    H8840856   6.574   7.257   2.260 -0.6461 -0.4804  0.7344
  225MOL    H8940857   6.411   7.313   2.268  0.2794 -0.7304  0.0528
  225MOL    H9040858   6.559   7.481   2.341 -1.1632 -3.2380 -0.1960
  225MOL    H9140859   6.262   7.602   2.240 -0.9950 -1.9598 -0.8493
  225MOL    C9240860   6.689   7.503   2.165 -0.2163 -0.3544  0.2345
  225MOL    C9340861   6.783   7.625   2.205 -0.3329  0.2113  0.1824
  225MOL    C9440862   6.829   7.596   2.354  0.2094  0.2620 -0.1885
  225MOL    O9540863   6.767   7.647   2.449 -0.0424  0.7497 -0.6095
  225MOL    O9640864   6.942   7.527   2.368  0.5882 -0.0748  0.9626
  225MOL    H9740865   6.667   7.512   2.058  1.7259  0.1195 -0.1568
  225MOL    H9840866   6.744   7.411   2.181 -1.0219 -0.9486 -0.3802
  225MOL    H9940867   6.872   7.617   2.142 -0.9406  1.1359 -0.8088
  225MOL   H10040868   6.969   7.551   2.456 -2.7105  1.0514  1.7548
  225MOL   C10140869   6.721   7.771   2.186 -0.4630 -0.0257  0.2863
  225MOL   C10240870   6.807   0.037   2.246 -0.0834 -0.1478  0.1948
  225MOL   C10340871   6.737   0.169   2.246  0.7669 -0.0373  0.4797
  225MOL   O10440872   6.789   0.282   2.248  1.1146  0.0879  0.4561
  225MOL   O10540873   6.603   0.159   2.258  0.4854  0.0778  0.9141
  225MOL   H10640874   6.620   7.773   2.227 -0.4429 -2.6550  0.5258
  225MOL   H10740875   6.717   7.792   2.079  0.3649  2.5775  0.7191
  225MOL   H10840876   6.825   0.025   2.353  2.2498  0.6517 -0.0783
  225MOL   H10940877   6.572   0.247   2.275  0.5485  0.4607 -0.8001
  225MOL   C11040878   6.952   0.056   2.177  0.0124 -0.0128 -0.9703
  225MOL   C11140879   7.072   0.020   2.263 -0.0862  0.1279  0.3395
  225MOL   C11240880   7.102   0.127   2.374  0.0300  0.7678 -0.5516
  225MOL   O11340881   7.130   0.093   2.492  0.0167  0.0808  0.3093
  225MOL   O11440882   7.105   0.255   2.337  0.4434 -0.3883 -0.2294
  225MOL   H11540883   6.969   0.151   2.127  2.0988 -0.5376 -1.3052
  225MOL   H11640884   6.961   7.846   2.089  0.4457 -2.1986  0.5874
  225MOL   H11740885   7.045   7.783   2.320 -0.3211  0.7305  1.1901
  225MOL   H11840886   7.089   0.284   2.249 -0.8912  1.2336  0.5051
  225MOL   C11940887   7.201   7.830   2.173  0.0412  0.2432 -0.1929
  225MOL   C12040888   7.211   7.681   2.127 -0.7848  0.4935 -0.0560
  225MOL   C12140889   7.224   7.587   2.246  0.1785 -0.8930 -1.0515
  225MOL   O12240890   7.264   7.628   2.356  0.2417 -0.2502 -0.5541
  225MOL   O12340891   7.197   7.460   2.218  0.3841 -0.1495  0.2234
  225MOL   H12440892   7.293   0.011   2.220 -0.8486  1.5167  0.6842
  225MOL   H12540893   7.197   0.035   2.081  0.5731 -1.7784 -1.5298
  225MOL   H12640894   7.126   7.667   2.060  0.8454 -0.3270 -2.0001
  225MOL   H12740895   7.229   7.407   2.289 -0.5799 -0.4290  0.4610
  225MOL   C12840896   7.334   7.656   2.030  0.4723  0.2460 -0.1930
  225MOL   C12940897   7.468   7.677   2.083  0.2829  1.0385  0.0686
  225MOL   C13040898   7.516   7.819   2.051  0.0932  0.0750 -0.0206
  225MOL   O13140899   7.498   0.021   1.945 -0.5456 -0.0490 -0.2325
  225MOL   O13240900   7.589   0.008   2.160 -0.4168  0.1137 -0.0485
  225MOL   H13340901   7.317   7.706   1.934 -1.2184 -3.0399 -1.7145
  225MOL   H13440902   7.310   7.553   2.005  0.1741  0.4007 -0.5567
  225MOL   H13540903   7.470   7.674   2.192 -0.3218 -1.5982  0.0547
  225MOL   H13640904   7.613   0.097   2.137  0.9000 -0.2835 -0.2583
  225MOL   C13740905   7.572   7.569   2.032 -0.3117 -0.4221 -0.0188
  225MOL   C13840906   7.633   7.566   1.888 -0.6672  0.0334  0.2466
  225MOL   C13940907   7.531   7.581   1.776  0.0399  0.4985  0.1754
  225MOL   O14040908   7.531   7.681   1.704  0.0666  0.0602 -0.9418
  225MOL   O14140909   7.433   7.484   1.768  0.8391 -0.4505  0.0105
  225MOL   H14240910   7.522   7.473   2.047 -0.8267 -0.0699  0.5699
  225MOL   H14340911   7.644   7.563   2.113 -0.8573 -0.0286  0.4997
  225MOL   H14440912   7.697   7.653   1.874 -0.2377 -0.7182 -2.8583
  225MOL   H14540913   7.369   7.501   1.701  1.6752  1.0718 -0.4230
  225MOL   C14640914   7.723   7.436   1.883 -0.5783  0.1533 -0.1045
  225MOL   C14740915   7.849   7.435   1.970  0.1889  0.1018 -0.5737
  225MOL   C14840916   0.111   7.512   1.893  0.0886 -0.9466 -0.6470
  225MOL   O14940917   0.086   7.579   1.798 -0.2088  0.2632  0.0795
  225MOL   O15040918   0.232   7.501   1.950  0.3006  0.1096  0.2079
  225MOL   H15140919   7.760   7.417   1.782 -1.8722 -0.1686 -0.5217
  225MOL   H15240920   7.658   7.349   1.892  0.4498 -0.5177  1.0849
  225MOL   H15340921   7.826   7.503   2.053 -1.0535 -1.4198  0.3475
  225MOL   H15440922   0.295   7.565   1.923 -1.5395  2.6444  1.6846
  225MOL   C15540923   0.030   7.293   2.011 -0.0943  0.3518 -0.0585
  225MOL   C15640924   7.839   7.241   2.148 -0.0067 -0.6642  0.6729
  225MOL   C15740925   0.085   7.286   2.253 -0.9365 -0.4369  0.0000
  225MOL   O15840926   0.055   7.362   2.348  0.2924  0.2905 -0.1147
  225MOL   O15940927   0.206   7.223   2.232  0.4508 -0.8126  0.2692
  225MOL   H16040928   0.136   7.270   1.996 -0.2851 -0.7305  0.2339
  225MOL   H16140929   7.838   7.221   1.942 -1.9878  0.7991  0.6841
  225MOL   H16240930   7.748   7.294   2.178 -0.3209 -0.0877 -1.2412
  225MOL   H16340931   0.268   7.227   2.304  1.5380  0.6142 -0.7088
  225MOL   C16440932   7.795   7.086   2.153 -0.6471  0.4435  0.4651
  225MOL   C16540933   7.640   7.071   2.164  0.1232  0.9073 -0.6794
  225MOL   C16640934   7.599   6.940   2.242  0.1912 -0.1454 -0.2970
  225MOL   O16740935   7.502   6.939   2.319  0.1181 -0.3190  0.7634
  225MOL   O16840936   7.683   6.840   2.210  0.0254 -0.1062 -0.5686
  225MOL   H16940937   7.845   7.033   2.233  0.0358 -0.3689 -0.4872
  225MOL   H17040938   7.824   7.030   2.064  0.6950 -1.4011  2.0235
  225MOL   H17140939   7.595   7.146   2.228 -1.5997 -0.4077 -0.2962
  225MOL   H17240940   7.670   6.758   2.255 -0.4689  0.6768  0.7366
  225MOL   C17340941   7.582   7.075   2.020 -0.1837 -0.1456 -0.3038
  225MOL   C17440942   7.437   7.123   2.017 -0.4790 -0.1815  0.5591
  225MOL   C17540943   7.334   7.014   2.000  0.3320  0.0188 -0.2068
  225MOL   O17640944   7.359   6.896   2.017  0.0388 -0.4333  1.1000
  225MOL   O17740945   7.215   7.065   1.956 -0.0542  0.5707 -0.4588
  225MOL   H17840946   7.594   6.980   1.968 -0.5631  0.9927 -2.5474
  225MOL   H17940947   7.638   7.152   1.966  2.1081  0.3283  2.6538
  225MOL   H18040948   7.419   7.192   2.100  0.4391  0.5032  0.1996
  225MOL   H18140949   7.165   6.984   1.955 -0.0026  0.5421 -1.2250
  225MOL   H18240950   7.419   7.180   1.925  2.2933  0.2298  0.2089
  226MOL     C140951   6.100   2.927   1.362 -0.1631  0.4039 -0.4674
  226MOL     C240952   6.016   2.896   1.481 -0.7527  0.5016  0.6980
  226MOL     C340953   6.086   2.946   1.609  0.4654  0.6939  0.7222
  226MOL     O440954   6.034   3.027   1.684 -0.4555  0.1546  0.0216
  226MOL     O540955   6.204   2.884   1.628  0.1907 -0.9193  0.2186
  226MOL     H640956   6.106   3.035   1.349  0.4540  0.6161  1.4467
  226MOL     H740957   6.200   2.886   1.372  0.2827  1.7504  0.7101
  226MOL     H840958   5.934   2.967   1.475 -0.8590  0.3572  0.4468
  226MOL     H940959   6.241   2.904   1.712  0.6224 -1.6989  0.2217
  226MOL    H1040960   6.061   2.883   1.270 -0.2467  2.9399 -1.6921
  226MOL    C1140961   5.973   2.748   1.488  0.6596 -0.1068  0.0791
  226MOL    C1240962   5.862   2.704   1.582 -0.2064 -0.2139 -0.5551
  226MOL    C1340963   5.887   2.561   1.628  0.1822 -0.3196 -0.1753
  226MOL    O1440964   5.874   2.522   1.742  0.1610 -0.0327 -0.0634
  226MOL    O1540965   5.922   2.482   1.521 -0.1544  0.0745 -0.6126
  226MOL    H1640966   6.060   2.687   1.512  0.8742  0.1664  0.0105
  226MOL    H1740967   5.937   2.717   1.389  0.1350 -0.8435  0.4961
  226MOL    H1840968   5.887   2.754   1.676 -1.6534 -0.0291 -0.2606
  226MOL    H1940969   5.951   2.396   1.547 -1.7464 -0.5135 -0.7563
  226MOL    C2040970   5.719   2.743   1.534 -0.2750  0.3048 -0.5350
  226MOL    C2140971   5.615   2.757   1.650  0.2335 -0.2766 -0.7621
  226MOL    C2240972   5.550   2.623   1.683  0.5512 -0.4608 -0.2794
  226MOL    O2340973   5.563   2.524   1.613  0.0248 -0.3357  0.2696
  226MOL    O2440974   5.472   2.633   1.791  0.4450  0.1053 -0.0442
  226MOL    H2540975   5.689   2.676   1.453  0.3562  0.0569 -0.5652
  226MOL    H2640976   5.738   2.840   1.489 -1.0094 -0.0437 -1.6303
  226MOL    H2740977   5.666   2.788   1.741 -1.0609 -4.2163  1.4363
  226MOL    H2840978   5.424   2.552   1.806  0.2817  0.4376  1.2795
  226MOL    C2940979   5.508   2.857   1.612 -0.0993  0.7141 -0.0433
  226MOL    C3040980   5.411   2.819   1.491  0.5849 -0.5889 -0.5206
  226MOL    C3140981   5.424   2.908   1.367  0.5024  0.2712 -0.4686
  226MOL    O3240982   5.363   3.015   1.355  0.1126  0.1828 -0.0896
  226MOL    O3340983   5.508   2.853   1.265 -0.7449 -0.2851  0.3257
  226MOL    H3440984   5.577   2.935   1.581  1.6516  0.1503  2.3893
  226MOL    H3540985   5.464   2.900   1.701 -0.3042 -1.3979  0.9193
  226MOL    H3640986   5.452   2.721   1.468  0.1259 -0.8477 -0.2351
  226MOL    H3740987   5.514   2.910   1.190  0.7237 -3.2972 -1.9326
  226MOL    C3840988   5.263   2.800   1.531  0.0336  0.1712  0.0958
  226MOL    C3940989   5.182   2.723   1.425  0.1662 -0.4558  0.2672
  226MOL    C4040990   5.029   2.738   1.443 -0.4307 -0.0386 -0.0575
  226MOL    O4140991   4.957   2.647   1.481  0.5379  0.5023 -0.1896
  226MOL    O4240992   4.985   2.864   1.426  0.1523  0.3722  0.6377
  226MOL    H4340993   5.230   2.900   1.558 -0.4245  0.5663 -1.8833
  226MOL    H4440994   5.255   2.757   1.631  4.6299 -1.7704 -0.2121
  226MOL    H4540995   5.203   2.775   1.331 -0.7340 -2.2672 -0.9792
  226MOL    H4640996   4.894   2.862   1.452  0.9014 -0.6358  3.3743
  226MOL    C4740997   5.220   2.568   1.406  0.1075 -0.5809  0.3569
  226MOL    C4840998   5.312   2.535   1.292 -0.1367 -0.0296  0.7498
  226MOL    C4940999   5.227   2.528   1.165  0.3268  0.3277 -0.4093
  226MOL    O5041000   5.149   2.433   1.142 -0.8027  0.8128  0.5275
  226MOL    O5141001   5.246   2.631   1.079 -0.2875 -0.6607  0.3248
  226MOL    H5241002   5.137   2.498   1.406 -0.4105  0.0293 -0.1692
  226MOL    H5341003   5.274   2.543   1.498  0.7280  0.7877  0.3704
  226MOL    H5441004   5.377   2.621   1.273 -1.2232  0.7080  0.3064
  226MOL    H5541005   5.207   2.633   0.993 -0.4515 -0.9242  0.3938
  226MOL    C5641006   5.410   2.411   1.319  0.0724  1.0968 -0.2271
  226MOL    C5741007   5.522   2.374   1.213  0.3635  0.1867 -0.1439
  226MOL    C5841008   5.567   2.227   1.216 -0.1594 -0.0104  0.0154
  226MOL    O5941009   5.489   2.141   1.249 -0.3198  0.5864 -0.3694
  226MOL    O6041010   5.699   2.207   1.184  0.2614 -0.2558 -0.3441
  226MOL    H6141011   5.348   2.325   1.342  1.2574  1.0052  2.9207
  226MOL    H6241012   5.463   2.428   1.412 -0.6554 -1.1409  0.6304
  226MOL    H6341013   5.487   2.395   1.112 -2.2531  0.2200  0.7197
  226MOL    H6441014   5.710   2.113   1.189  1.1794 -0.1845 -0.8589
  226MOL    C6541015   5.643   2.469   1.245  0.1412 -0.2615 -0.5612
  226MOL    C6641016   5.737   2.516   1.132  0.0906 -0.6344  0.0247
  226MOL    C6741017   5.891   2.483   1.156  0.7908  0.4054  0.1094
  226MOL    O6841018   5.933   2.380   1.206  0.0915 -0.3104 -0.7227
  226MOL    O6941019   5.977   2.580   1.131  0.4294 -0.2392 -0.1744
  226MOL    H7041020   5.708   2.435   1.326 -0.4550 -1.8331 -0.7209
  226MOL    H7141021   5.589   2.552   1.290  0.0708 -1.0460  0.8248
  226MOL    H7241022   5.717   2.447   1.051 -0.6699 -2.1148  1.4588
  226MOL    H7341023   6.064   2.546   1.149 -0.1742 -1.4521  0.4850
  226MOL    C7441024   5.703   2.660   1.089  0.7538  0.0333  0.8533
  226MOL    C7541025   5.702   2.703   0.939 -0.0402  0.2523 -0.3615
  226MOL    C7641026   5.568   2.686   0.872  0.6045 -0.0468  0.6364
  226MOL    O7741027   5.541   2.594   0.788  0.2470 -0.5089  0.1634
  226MOL    O7841028   5.477   2.772   0.910 -0.4491 -0.0061  0.1094
  226MOL    H7941029   5.759   2.734   1.145  0.1114  1.4330 -0.3021
  226MOL    H8041030   5.599   2.666   1.120 -0.3025 -2.6475 -1.8229
  226MOL    H8141031   5.714   2.811   0.939 -0.4531  0.3036  1.0102
  226MOL    H8241032   5.398   2.757   0.861  0.6468 -2.3765 -1.0346
  226MOL    C8341033   5.818   2.650   0.854  0.1545  0.3379 -0.2809
  226MOL    C8441034   5.924   2.756   0.815  0.1849 -0.2685 -0.2119
  226MOL    C8541035   6.008   2.739   0.693 -0.0493  0.0144  0.4697
  226MOL    O8641036   6.129   2.742   0.691 -0.3049 -0.0453  0.7021
  226MOL    O8741037   5.935   2.716   0.580 -0.1256 -0.1055 -0.0734
  226MOL    H8841038   5.784   2.601   0.763 -0.5071 -0.8350  0.5796
  226MOL    H8941039   5.859   2.557   0.891 -0.5182 -0.0284 -0.4368
  226MOL    H9041040   5.865   2.842   0.782  1.1236  0.2738 -0.4971
  226MOL    H9141041   5.981   2.713   0.497 -1.4219 -0.8387 -0.7757
  226MOL    C9241042   6.003   2.817   0.931 -0.5531 -0.0696 -0.1234
  226MOL    C9341043   6.050   2.962   0.918 -0.1592  0.5753  0.2549
  226MOL    C9441044   6.206   2.987   0.936  1.0558 -0.0173 -0.4014
  226MOL    O9541045   6.259   3.071   1.011  0.0424  0.4844 -0.2669
  226MOL    O9641046   6.276   2.908   0.848 -0.2421  0.2932 -0.5582
  226MOL    H9741047   6.086   2.750   0.955 -1.1695 -0.2375  1.6308
  226MOL    H9841048   5.952   2.820   1.028  1.0967 -1.2707  0.8160
  226MOL    H9941049   6.042   2.999   0.816  2.4681  1.6553  0.3967
  226MOL   H10041050   6.215   2.857   0.796 -0.3932  0.3913 -0.4791
  226MOL   C10141051   5.968   3.061   1.013  0.8153  0.0371 -0.4160
  226MOL   C10241052   5.863   3.142   0.936  0.6784 -0.0307 -0.1534
  226MOL   C10341053   5.912   3.276   0.875 -0.4407  0.1062 -0.2791
  226MOL   O10441054   5.881   3.391   0.913 -0.2677  0.0282 -0.0069
  226MOL   O10541055   6.003   3.257   0.774 -0.5227 -0.5173  0.2933
  226MOL   H10641056   6.038   3.127   1.064  0.1659 -0.0754  0.6458
  226MOL   H10741057   5.921   3.004   1.093 -2.2504 -0.3086 -2.3893
  226MOL   H10841058   5.827   3.081   0.852  0.5327 -1.9877  1.3045
  226MOL   H10941059   6.045   3.339   0.750 -2.0758  0.5419  1.1108
  226MOL   C11041060   5.736   3.166   1.026  0.0130 -0.5919  0.2257
  226MOL   C11141061   5.609   3.197   0.937  0.4530 -0.0062  0.0027
  226MOL   C11241062   5.490   3.241   1.021  0.6072 -1.1665 -0.2482
  226MOL   O11341063   5.401   3.315   0.987  0.8646  0.4236 -0.1097
  226MOL   O11441064   5.489   3.167   1.134 -0.0077 -0.0555  0.1393
  226MOL   H11541065   5.753   3.253   1.088  3.1231 -1.3559  0.5313
  226MOL   H11641066   5.708   3.089   1.098 -1.8992  1.8835  2.2202
  226MOL   H11741067   5.620   3.288   0.879 -0.7043  0.8497  1.0983
  226MOL   H11841068   5.422   3.210   1.184  0.3611 -0.4390  0.9717
  226MOL   C11941069   5.574   3.077   0.852  0.3594 -0.3497  0.0084
  226MOL   C12041070   5.560   3.107   0.703  0.2719  0.2749  0.0826
  226MOL   C12141071   5.416   3.164   0.671 -0.0959  0.3185 -0.1095
  226MOL   O12241072   5.316   3.151   0.742  0.1347 -0.5041 -0.0695
  226MOL   O12341073   5.417   3.232   0.554 -0.3728 -0.2044 -0.0662
  226MOL   H12441074   5.481   3.032   0.888 -0.1880  0.7618  0.0214
  226MOL   H12541075   5.646   2.998   0.873  0.9109 -0.1946 -1.2267
  226MOL   H12641076   5.636   3.180   0.677  0.0956  0.4673  0.1061
  226MOL   H12741077   5.341   3.284   0.535 -0.0237  0.1357 -0.5442
  226MOL   C12841078   5.574   2.979   0.610 -0.1982  0.4136 -0.2932
  226MOL   C12941079   5.650   2.994   0.478  0.5028 -0.6242 -0.0113
  226MOL   C13041080   5.643   2.866   0.409 -0.4746  0.4373 -1.1489
  226MOL   O13141081   5.737   2.806   0.360 -0.0483  0.0006 -0.5881
  226MOL   O13241082   5.518   2.825   0.388 -0.2798 -0.3070 -0.1709
  226MOL   H13341083   5.480   2.926   0.594  1.6838 -2.9299 -0.7361
  226MOL   H13441084   5.616   2.897   0.669 -0.1635 -0.8707 -2.0657
  226MOL   H13541085   5.594   3.065   0.417 -0.0408  1.9000  3.2823
  226MOL   H13641086   5.514   2.741   0.345 -2.1895  0.0617 -0.7507
  226MOL   C13741087   5.790   3.054   0.494  0.4634 -0.0558  0.0809
  226MOL   C13841088   5.867   3.085   0.358  0.0915  0.2342 -0.1714
  226MOL   C13941089   6.005   3.017   0.361  0.0235 -0.3712 -0.6247
  226MOL   O14041090   6.036   2.919   0.424  0.3947  0.3401  0.1985
  226MOL   O14141091   6.091   3.072   0.266 -0.3124  0.1967 -0.4338
  226MOL   H14241092   5.844   2.974   0.544 -0.9429 -1.1694 -0.1477
  226MOL   H14341093   5.783   3.143   0.556  1.4086  1.7470 -2.3108
  226MOL   H14441094   5.823   3.038   0.270  1.6090 -1.1462 -0.2193
  226MOL   H14541095   6.173   3.026   0.275 -0.0984  0.7015  0.2862
  226MOL   C14641096   5.882   3.234   0.344  0.0944  0.1284 -0.4136
  226MOL   C14741097   5.748   3.314   0.329  0.2448 -0.4815  0.0989
  226MOL   C14841098   5.670   3.282   0.202 -0.0381 -0.5554 -0.1226
  226MOL   O14941099   5.567   3.219   0.200 -0.2273 -0.0980  0.2542
  226MOL   O15041100   5.732   3.335   0.095  0.0956 -0.1714 -0.2763
  226MOL   H15141101   5.942   3.247   0.254  1.8098  0.7371  0.7892
  226MOL   H15241102   5.955   3.266   0.418 -0.5664 -0.6330  0.5840
  226MOL   H15341103   5.684   3.289   0.413 -1.2317 -0.5996 -1.0436
  226MOL   H15441104   5.688   3.312   0.015  0.0728  1.1108 -0.6404
  226MOL   C15541105   5.779   3.464   0.343 -0.8211 -0.4531  0.1797
  226MOL   C15641106   5.806   3.507   0.487  0.0933  0.7032 -1.3352
  226MOL   C15741107   5.678   3.535   0.576 -0.2945 -0.2307 -0.2878
  226MOL   O15841108   5.568   3.511   0.533 -0.4918  0.1880  0.1010
  226MOL   O15941109   5.697   3.592   0.692 -0.3277 -0.1849  0.0617
  226MOL   H16041110   5.693   3.522   0.308  1.2678  1.9456 -1.1562
  226MOL   H16141111   5.862   3.492   0.277  0.1258  0.0760  1.5806
  226MOL   H16241112   5.847   3.425   0.546 -0.5052  0.6821 -0.9433
  226MOL   H16341113   5.609   3.623   0.710  0.0010  0.8866 -0.1762
  226MOL   C16441114   5.915   3.620   0.495 -0.3311  0.5579 -0.1731
  226MOL   C16541115   6.061   3.566   0.482 -0.5307 -0.7799 -0.1836
  226MOL   C16641116   6.125   3.543   0.620  0.0155 -0.1283  0.4406
  226MOL   O16741117   6.149   3.432   0.663 -0.1702 -0.6450 -0.4993
  226MOL   O16841118   6.144   3.655   0.694 -0.3021 -0.6006  0.0362
  226MOL   H16941119   5.884   3.698   0.565  0.3921  1.2286 -0.5849
  226MOL   H17041120   5.901   3.676   0.402  0.8327  0.7372 -0.2504
  226MOL   H17141121   6.061   3.470   0.430 -1.6124  0.3288 -2.3210
  226MOL   H17241122   6.158   3.636   0.785 -3.2060  1.1504  0.8964
  226MOL   C17341123   6.146   3.655   0.389  0.8265  0.1012 -0.7569
  226MOL   C17441124   6.291   3.609   0.372 -0.3812  0.0688 -0.0866
  226MOL   C17541125   6.355   3.655   0.244  0.0754 -0.3149  0.3118
  226MOL   O17641126   6.295   3.669   0.137 -0.6042 -0.5783  0.2969
  226MOL   O17741127   6.494   3.665   0.249 -0.2266 -0.5724 -0.1631
  226MOL   H17841128   6.136   3.757   0.425 -0.6280  0.5420 -2.3557
  226MOL   H17941129   6.095   3.652   0.293 -1.2464  0.5560  0.2991
  226MOL   H18041130   6.350   3.651   0.454  2.4267  2.4987 -3.2024
  226MOL   H18141131   6.540   3.689   0.170  1.3848 -2.3774  0.1902
  226MOL   H18241132   6.293   3.500   0.373  0.3365  0.0369 -1.8471
  227MOL     C141133   1.895   5.237   1.817  0.3811  0.1576  0.5738
  227MOL     C241134   1.838   5.376   1.800  0.2273 -0.7340  0.1913
  227MOL     C341135   1.696   5.365   1.750  0.3071 -0.7533 -1.1997
  227MOL     O441136   1.597   5.393   1.819  0.2886 -0.4306  0.1519
  227MOL     O541137   1.694   5.331   1.622  0.0138  0.1854  0.4792
  227MOL     H641138   1.991   5.252   1.866  0.5589  2.1532 -0.3410
  227MOL     H741139   1.828   5.178   1.879  0.8791 -2.0219 -0.8951
  227MOL     H841140   1.835   5.411   1.903  1.8976 -0.2333  0.0801
  227MOL     H941141   1.602   5.328   1.600  0.0668 -2.6201  0.3547
  227MOL    H1041142   1.903   5.183   1.722 -3.1407 -1.5970  1.1856
  227MOL    C1141143   1.923   5.470   1.709 -0.1606  0.6164  0.1175
  227MOL    C1241144   1.899   5.623   1.707  0.2096  0.7662 -0.0868
  227MOL    C1341145   1.982   5.693   1.614 -0.4313 -0.4111  0.0468
  227MOL    O1441146   2.100   5.666   1.586  0.5919 -0.4209 -0.1208
  227MOL    O1541147   1.918   5.796   1.548 -0.4527  0.2510  0.4295
  227MOL    H1641148   1.928   5.431   1.607  0.4308  0.7672  0.0904
  227MOL    H1741149   2.026   5.451   1.740  0.1675  0.4828 -1.0325
  227MOL    H1841150   1.797   5.633   1.669  0.6539 -0.1047 -1.5588
  227MOL    H1941151   1.981   5.846   1.499  0.7389 -1.0807  0.5687
  227MOL    C2041152   1.886   5.674   1.850  0.0858 -0.9802  0.6096
  227MOL    C2141153   2.011   5.666   1.948 -0.0877  0.4757  0.4876
  227MOL    C2241154   1.980   5.582   2.074  0.0932 -0.0492  0.4702
  227MOL    O2341155   1.909   5.615   2.168 -0.0912 -0.0999 -0.6540
  227MOL    O2441156   2.037   5.459   2.065  0.0493 -0.3112  0.1568
  227MOL    H2541157   1.805   5.620   1.900 -0.5165 -2.1931 -1.6385
  227MOL    H2641158   1.843   5.775   1.853 -0.8946 -1.4006  1.0144
  227MOL    H2741159   2.078   5.612   1.880  1.7846  2.1686  0.9465
  227MOL    H2841160   2.022   5.394   2.132 -1.2175 -0.0700  0.1087
  227MOL    C2941161   2.060   5.802   1.995  0.0020 -0.2531 -0.4171
  227MOL    C3041162   2.213   5.817   2.003 -0.8269 -0.1565 -0.3458
  227MOL    C3141163   2.284   5.792   2.140  0.4265  0.5486 -0.2309
  227MOL    O3241164   2.255   5.850   2.241  0.3916 -0.1238 -0.0185
  227MOL    O3341165   2.387   5.700   2.135 -0.2612  0.1327  0.3415
  227MOL    H3441166   2.003   5.817   2.087 -1.1211 -1.7116 -0.8517
  227MOL    H3541167   2.015   5.880   1.933  1.8210  1.1057 -0.0623
  227MOL    H3641168   2.256   5.747   1.932  0.1672  0.6562 -0.5564
  227MOL    H3741169   2.425   5.702   2.222  0.4991  1.6129 -0.0105
  227MOL    C3841170   2.255   5.956   1.958  0.2514 -0.4331  0.0854
  227MOL    C3941171   2.310   5.955   1.811  0.6002 -0.4318 -0.8409
  227MOL    C4041172   2.461   5.940   1.839  0.2985  0.1266 -0.2077
  227MOL    O4141173   2.519   5.833   1.846 -0.3865 -0.4671  0.2857
  227MOL    O4241174   2.532   6.054   1.848  0.1754 -0.2188 -0.3027
  227MOL    H4341175   2.331   6.007   2.017  1.1341 -0.7832 -0.7347
  227MOL    H4441176   2.168   6.022   1.960  1.5119  1.3010 -0.4147
  227MOL    H4541177   2.270   5.870   1.757 -2.2917  0.4823 -0.2349
  227MOL    H4641178   2.621   6.021   1.848  0.2065 -0.1928 -1.7906
  227MOL    C4741179   2.266   6.081   1.726  0.1912  0.6232  0.0237
  227MOL    C4841180   2.166   6.050   1.604 -0.3483 -0.4294 -0.2347
  227MOL    C4941181   2.238   5.966   1.496 -0.1562  0.9038  0.1915
  227MOL    O5041182   2.355   5.949   1.493 -0.2430  0.6776 -0.3567
  227MOL    O5141183   2.153   5.926   1.398 -1.0294 -0.8017 -0.3928
  227MOL    H5241184   2.356   6.133   1.690  0.9820  0.1479  1.2910
  227MOL    H5341185   2.225   6.138   1.809  0.4159  0.7222  0.0686
  227MOL    H5441186   2.086   5.986   1.640  0.0284 -0.7310  0.0846
  227MOL    H5541187   2.203   5.916   1.319 -0.2640  0.9570 -0.1526
  227MOL    C5641188   2.106   6.176   1.539 -0.1506  0.0811  0.3498
  227MOL    C5741189   2.000   6.257   1.621 -1.0286 -0.0448 -0.0581
  227MOL    C5841190   1.902   6.170   1.695  0.4244  0.6354  0.0180
  227MOL    O5941191   1.841   6.070   1.647  0.1023  0.4327 -0.4049
  227MOL    O6041192   1.887   6.213   1.824  0.1074 -0.0504  0.2116
  227MOL    H6141193   2.052   6.145   1.450  1.0493 -1.8152  0.2505
  227MOL    H6241194   2.173   6.248   1.494 -1.3637  0.2743 -1.1863
  227MOL    H6341195   2.058   6.305   1.700  1.6762 -1.9376 -0.8173
  227MOL    H6441196   1.834   6.153   1.875 -0.4325  1.8366  1.9428
  227MOL    C6541197   1.935   6.378   1.542  0.0102  0.5882  0.3759
  227MOL    C6641198   1.880   6.495   1.636  0.2395  0.4284 -0.0539
  227MOL    C6741199   1.736   6.470   1.686  0.7834 -0.4736  0.2177
  227MOL    O6841200   1.704   6.482   1.805 -0.0602  0.1870  0.4366
  227MOL    O6941201   1.651   6.456   1.585 -0.9167  0.0235 -0.0761
  227MOL    H7041202   1.853   6.339   1.482 -0.7198  1.0363  1.0757
  227MOL    H7141203   2.013   6.426   1.481  1.5463 -0.0389  1.8101
  227MOL    H7241204   1.929   6.487   1.733  1.2836  0.0716 -0.6035
  227MOL    H7341205   1.565   6.465   1.623 -0.9715 -2.8657  0.5698
  227MOL    C7441206   1.896   6.644   1.579  0.0479  0.1955 -0.6429
  227MOL    C7541207   1.792   6.695   1.469  0.7663 -0.4386  0.0471
  227MOL    C7641208   1.837   6.628   1.333  0.1807  0.1783  0.2316
  227MOL    O7741209   1.782   6.528   1.285  0.0251  0.3620 -0.5570
  227MOL    O7841210   1.954   6.677   1.281  0.1979 -0.2310 -0.6788
  227MOL    H7941211   2.000   6.667   1.557  0.5277 -0.2681  1.1111
  227MOL    H8041212   1.870   6.709   1.662  1.4744 -2.6648  2.1837
  227MOL    H8141213   1.693   6.670   1.506  1.1954 -0.0593  1.4590
  227MOL    H8241214   1.971   6.629   1.201  2.3574  1.2080 -1.1248
  227MOL    C8341215   1.803   6.850   1.456  0.1048 -0.2368 -1.1686
  227MOL    C8441216   1.735   6.922   1.578  0.4848 -0.3733 -0.7765
  227MOL    C8541217   1.584   6.943   1.550 -0.8203 -0.0908 -0.6269
  227MOL    O8641218   1.531   7.050   1.521  0.0142  0.1350  0.7692
  227MOL    O8741219   1.511   6.825   1.554 -0.3451 -0.0049 -0.5825
  227MOL    H8841220   1.759   6.880   1.361  1.2836  0.6446 -1.4631
  227MOL    H8941221   1.903   6.890   1.435 -0.3084 -0.8136 -4.5055
  227MOL    H9041222   1.730   6.858   1.666  0.4022 -0.4533 -0.8398
  227MOL    H9141223   1.418   6.842   1.550 -0.5724 -1.5350 -2.4915
  227MOL    C9241224   1.812   7.053   1.612 -0.4347 -0.2516  0.4398
  227MOL    C9341225   1.898   7.047   1.744 -1.3249  0.3221 -0.0449
  227MOL    C9441226   1.853   7.129   1.863  0.0036 -0.2133 -0.5931
  227MOL    O9541227   1.924   7.213   1.920  0.3278  0.1513  0.4827
  227MOL    O9641228   1.732   7.088   1.903 -0.3602 -0.3163  0.3063
  227MOL    H9741229   1.754   7.145   1.608  0.3286  0.1617 -2.7438
  227MOL    H9841230   1.887   7.062   1.533  0.3585  0.4213  1.2616
  227MOL    H9941231   1.885   6.945   1.779  3.3707  0.9377  3.9945
  227MOL   H10041232   1.703   7.123   1.985  1.9033 -0.2285  1.0911
  227MOL   C10141233   2.048   7.083   1.713 -0.5564  0.1336 -0.9238
  227MOL   C10241234   2.147   7.025   1.829  0.1977 -0.0492 -0.4830
  227MOL   C10341235   2.281   7.112   1.837  0.1601  0.3731 -0.4309
  227MOL   O10441236   2.387   7.076   1.791 -0.4935 -0.9005  0.2701
  227MOL   O10541237   2.269   7.238   1.890 -0.1198  0.5053 -0.2688
  227MOL   H10641238   2.065   7.191   1.715  1.8351 -0.2381  2.0333
  227MOL   H10741239   2.077   7.042   1.616 -0.1461 -0.9712 -0.3476
  227MOL   H10841240   2.101   7.043   1.927  0.5753 -2.2066  0.1193
  227MOL   H10941241   2.348   7.289   1.878 -0.7533  1.2661 -1.3648
  227MOL   C11041242   2.160   6.875   1.812 -0.0781 -0.0291 -0.1814
  227MOL   C11141243   2.160   6.794   1.950 -0.0365  0.7540  0.3316
  227MOL   C11241244   2.298   6.796   2.015  0.5585 -0.0615  0.1492
  227MOL   O11341245   2.386   6.715   1.995  0.4010  0.1699 -0.1975
  227MOL   O11441246   2.322   6.917   2.069  0.6103 -0.2181  0.2515
  227MOL   H11541247   2.257   6.855   1.766 -0.8227  0.4500 -1.9919
  227MOL   H11641248   2.081   6.849   1.742 -0.9384  0.5281  0.5782
  227MOL   H11741249   2.096   6.839   2.027 -0.1860  0.3626  0.4384
  227MOL   H11841250   2.405   6.921   2.114  0.8668 -1.5897 -0.0614
  227MOL   C11941251   2.117   6.650   1.918  0.0169  0.1998 -0.2000
  227MOL   C12041252   2.023   6.589   2.026  0.0692 -0.1753 -0.3344
  227MOL   C12141253   1.893   6.672   2.044 -0.1344 -0.0932  0.0585
  227MOL   O12241254   1.813   6.651   2.137 -0.1305  0.2538  0.5697
  227MOL   O12341255   1.865   6.758   1.942  0.0499 -0.2664  0.8576
  227MOL   H12441256   2.195   6.576   1.903  1.1472  0.9741  1.7265
  227MOL   H12541257   2.062   6.630   1.826  0.8780 -2.3511 -0.1799
  227MOL   H12641258   1.990   6.496   1.981  2.5161  0.4091 -3.5685
  227MOL   H12741259   1.777   6.785   1.964  0.8426  1.2845  2.3397
  227MOL   C12841260   2.086   6.540   2.163  0.6818  0.6858  0.3642
  227MOL   C12941261   2.126   6.397   2.171  0.6529  0.1837  0.3419
  227MOL   C13041262   2.008   6.298   2.189 -0.6472 -0.3059 -0.3436
  227MOL   O13141263   1.900   6.321   2.248  0.2686  0.1866  0.1030
  227MOL   O13241264   2.037   6.178   2.129 -0.1248  0.0908 -0.2934
  227MOL   H13341265   2.004   6.546   2.234 -0.1372 -0.7650 -0.4512
  227MOL   H13441266   2.171   6.601   2.196  1.0491 -0.5130  1.6878
  227MOL   H13541267   2.177   6.372   2.078  1.4226  0.5475  0.6616
  227MOL   H13641268   1.961   6.126   2.148  0.9504 -0.8811  1.5253
  227MOL   C13741269   2.227   6.379   2.288  0.0744  0.3046 -0.6726
  227MOL   C13841270   2.373   6.398   2.246 -1.4579 -0.2022 -0.5641
  227MOL   C13941271   2.414   6.294   2.144  0.1913  0.0648 -0.1827
  227MOL   O14041272   2.407   6.171   2.171 -0.1630  0.2035  0.3835
  227MOL   O14141273   2.472   6.350   2.034  0.1524  0.1154  0.3856
  227MOL   H14241274   2.212   6.284   2.341  0.0764 -0.6904 -2.4032
  227MOL   H14341275   2.200   6.458   2.358 -1.6754 -1.1048  0.3184
  227MOL   H14441276   2.361   6.497   2.200 -0.5263 -0.0126 -0.3985
  227MOL   H14541277   2.514   6.282   1.984 -0.0866 -0.8025  1.4138
  227MOL   C14641278   2.462   6.414   2.374  0.1080 -0.3926  0.9311
  227MOL   C14741279   2.522   6.555   2.390 -0.2996 -0.1393 -0.7059
  227MOL   C14841280   2.638   6.581   2.292  0.3863 -0.0447 -0.0682
  227MOL   O14941281   2.755   6.577   2.315  0.6959 -0.2388  0.3346
  227MOL   O15041282   2.595   6.598   2.167  0.4399 -0.2524 -0.2778
  227MOL   H15141283   2.541   6.340   2.361  0.8341  0.2765  1.4952
  227MOL   H15241284   2.403   6.371   2.455  0.1003 -1.3754  0.4156
  227MOL   H15341285   2.451   6.631   2.358  0.5555  0.9768 -0.0067
  227MOL   H15441286   2.667   6.597   2.105 -0.1393  0.1434 -0.9725
  227MOL   C15541287   2.578   6.576   2.539  0.6585 -0.9268 -0.1923
  227MOL   C15641288   2.470   6.569   2.651  0.1446 -0.7561 -0.2061
  227MOL   C15741289   2.372   6.684   2.645 -0.6092 -0.5155 -0.3021
  227MOL   O15841290   2.372   6.784   2.715 -0.0075  0.1765 -0.2509
  227MOL   O15941291   2.291   6.678   2.539 -0.1114  0.2535 -0.4150
  227MOL   H16041292   2.629   6.671   2.550 -1.1949 -0.0805  1.2864
  227MOL   H16141293   2.649   6.496   2.560 -1.4349 -2.5644  0.9158
  227MOL   H16241294   2.401   6.486   2.632  0.1810 -0.2457 -2.7483
  227MOL   H16341295   2.260   6.760   2.504  2.0592  1.2305 -0.0903
  227MOL   C16441296   2.539   6.545   2.794 -0.7029 -0.0871  0.2786
  227MOL   C16541297   2.448   6.548   2.919 -0.4526 -0.6682  0.7713
  227MOL   C16641298   2.457   6.683   2.985  0.4860  0.1656 -0.6938
  227MOL   O16741299   2.555   6.758   2.984  0.2906 -0.1285 -0.4171
  227MOL   O16841300   2.344   6.696   3.071  0.0995 -0.8726  0.0959
  227MOL   H16941301   2.631   6.603   2.800  0.7470 -2.3079 -0.2093
  227MOL   H17041302   2.582   6.445   2.792  1.9230  1.0119 -1.7156
  227MOL   H17141303   2.342   6.545   2.892 -0.1463 -3.0537 -0.2709
  227MOL   H17241304   2.356   6.774   3.123  0.4550  1.1983 -2.9723
  227MOL   C17341305   2.466   6.429   3.023 -0.6912 -0.1505 -0.7120
  227MOL   C17441306   2.611   6.424   3.088 -0.0486 -0.4047  0.2918
  227MOL   C17541307   2.613   6.316   3.188  0.0960  0.1012  0.2934
  227MOL   O17641308   2.634   6.332   3.306  0.4735  0.2931  0.3923
  227MOL   O17741309   2.594   6.193   3.127  0.3538  0.1504 -0.5081
  227MOL   H17841310   2.454   6.331   2.977  2.3610 -2.0991  2.4119
  227MOL   H17941311   2.393   6.429   3.105 -1.4042 -0.3670 -1.3442
  227MOL   H18041312   2.692   6.416   3.016 -1.0921 -3.1972 -0.6260
  227MOL   H18141313   2.579   6.128   3.194  0.3054  1.5837  0.8999
  227MOL   H18241314   2.634   6.512   3.148 -0.8867 -1.5818  2.4251
  228MOL     C141315   0.479   1.623   5.958  0.0187 -0.5110  0.3679
  228MOL     C241316   0.513   1.661   5.817 -0.0541  0.3580 -0.5630
  228MOL     C341317   0.464   1.547   5.729  0.0542  0.1120  0.1671
  228MOL     O441318   0.536   1.453   5.701 -0.1506 -0.4261  0.1229
  228MOL     O541319   0.340   1.563   5.694 -0.0810  0.2540 -0.1748
  228MOL     H641320   0.371   1.629   5.966 -0.0554 -0.1455 -0.7644
  228MOL     H741321   0.525   1.528   5.986  2.7130  1.1722  1.9828
  228MOL     H841322   0.470   1.758   5.792 -1.4288  0.6224  2.5468
  228MOL     H941323   0.324   1.515   5.614  0.2064  1.2345 -0.8287
  228MOL    H1041324   0.508   1.688   6.040 -0.9044 -2.9738  2.7105
  228MOL    C1141325   0.664   1.674   5.810  0.2394 -0.0996  0.2359
  228MOL    C1241326   0.719   1.718   5.674  0.1322 -0.0444 -0.1326
  228MOL    C1341327   0.857   1.650   5.645 -0.2691  0.2545 -0.2072
  228MOL    O1441328   0.968   1.697   5.657 -0.1912 -0.0774 -0.3389
  228MOL    O1541329   0.832   1.527   5.591 -0.0489  1.0717 -0.8235
  228MOL    H1641330   0.713   1.582   5.840  2.7721  0.7803 -1.0533
  228MOL    H1741331   0.690   1.750   5.883  0.8931 -0.4727  0.3879
  228MOL    H1841332   0.652   1.689   5.593 -0.1578 -0.4342  0.2500
  228MOL    H1941333   0.904   1.475   5.559  0.0783  0.6940  0.0581
  228MOL    C2041334   0.714   1.874   5.668 -0.0301 -0.2038  0.4733
  228MOL    C2141335   0.742   1.953   5.536 -0.9711 -0.1050  0.1097
  228MOL    C2241336   0.740   1.878   5.403  0.0672  0.3288  0.4809
  228MOL    O2341337   0.644   1.811   5.370  0.0530 -0.8401  0.2606
  228MOL    O2441338   0.854   1.870   5.338 -0.3976  0.6214 -0.6132
  228MOL    H2541339   0.776   1.909   5.751  0.3264  3.0437 -1.0871
  228MOL    H2641340   0.614   1.903   5.699 -0.1778 -2.0320  1.7578
  228MOL    H2741341   0.645   1.998   5.514 -1.8192 -2.8258 -2.0718
  228MOL    H2841342   0.868   1.808   5.268 -0.4124 -0.1234  0.0409
  228MOL    C2941343   0.858   2.058   5.546  0.3373 -0.9420 -0.2113
  228MOL    C3041344   0.835   2.171   5.645 -0.0878 -0.2478 -0.6193
  228MOL    C3141345   0.726   2.267   5.599  0.3498 -0.1038 -0.2216
  228MOL    O3241346   0.619   2.287   5.658  0.0452 -0.1865 -0.5159
  228MOL    O3341347   0.773   2.335   5.492  0.1393 -0.6627 -0.3726
  228MOL    H3441348   0.871   2.103   5.448 -0.8110 -1.5002 -0.6306
  228MOL    H3541349   0.947   2.001   5.575 -1.2330 -1.9286  2.9060
  228MOL    H3641350   0.795   2.126   5.736 -1.0215  0.4112 -0.7052
  228MOL    H3741351   0.716   2.403   5.460  0.6250  0.4582  1.0962
  228MOL    C3841352   0.966   2.233   5.705  0.1266  0.3860 -0.6551
  228MOL    C3941353   0.953   2.305   5.844  1.3505  0.7595  0.1492
  228MOL    C4041354   0.878   2.434   5.839 -0.3968 -0.0873 -0.2742
  228MOL    O4141355   0.891   2.508   5.743  0.0840  0.5269  0.8818
  228MOL    O4241356   0.786   2.447   5.939 -0.0052  0.7166  0.1275
  228MOL    H4341357   1.004   2.298   5.626  3.4736 -0.0529  0.5015
  228MOL    H4441358   1.034   2.149   5.721  0.2879  0.8446  1.1311
  228MOL    H4541359   0.890   2.242   5.907  0.1946  1.8922  0.1565
  228MOL    H4641360   0.737   2.526   5.920  2.0540  2.1446  0.5979
  228MOL    C4741361   1.093   2.310   5.909 -0.6374 -0.9092 -0.3915
  228MOL    C4841362   1.117   2.307   6.060 -0.0093 -0.3792  0.3800
  228MOL    C4941363   1.107   2.172   6.123  0.1520  0.0609  0.4146
  228MOL    O5041364   1.048   2.072   6.075 -0.0032  0.8192 -0.4848
  228MOL    O5141365   1.169   2.167   6.239  0.1864  0.3816 -0.3063
  228MOL    H5241366   1.143   2.396   5.864 -2.2758 -0.1305 -0.7580
  228MOL    H5341367   1.142   2.220   5.872  1.5002 -0.3869  1.1207
  228MOL    H5441368   1.221   2.338   6.069  0.3278 -1.7822  1.5906
  228MOL    H5541369   1.148   2.077   6.261  0.4387  0.2279 -0.6890
  228MOL    C5641370   1.035   2.411   6.146  0.0535 -0.0115  0.3233
  228MOL    C5741371   1.095   2.474   6.279 -0.1565  0.0581  0.1029
  228MOL    C5841372   1.023   2.434   6.412  0.3366  0.1533  0.2460
  228MOL    O5941373   0.977   2.322   6.440 -0.3901  0.0944 -0.4829
  228MOL    O6041374   1.014   2.541   6.495  0.0019 -0.2795 -1.1716
  228MOL    H6141375   0.937   2.369   6.168 -0.7871  0.6358 -2.0085
  228MOL    H6241376   1.009   2.494   6.080  0.2588 -1.3728 -1.5181
  228MOL    H6341377   1.188   2.418   6.293  0.3345  0.8743  0.1537
  228MOL    H6441378   0.985   2.511   6.580 -0.4599  0.2412 -1.1384
  228MOL    C6541379   1.126   2.624   6.261  0.0692  0.5576 -0.0225
  228MOL    C6641380   1.238   2.653   6.153 -0.1197  0.5207 -0.6062
  228MOL    C6741381   1.378   2.591   6.191  0.1594  0.9002  0.6973
  228MOL    O6841382   1.410   2.588   6.309 -0.4276  0.1480  0.2165
  228MOL    O6941383   1.443   2.539   6.089  0.1419  0.4046 -0.3335
  228MOL    H7041384   1.159   2.665   6.357  0.8674  4.6949 -1.9481
  228MOL    H7141385   1.037   2.678   6.230 -1.1258 -1.7707 -0.7817
  228MOL    H7241386   1.208   2.605   6.060 -1.2986 -0.8326  0.4438
  228MOL    H7341387   1.530   2.512   6.113  1.6786  0.9706 -4.7596
  228MOL    C7441388   1.254   2.801   6.119  0.0741  0.2582  0.4036
  228MOL    C7541389   1.194   2.840   5.986  0.0658 -0.4198  0.3692
  228MOL    C7641390   1.292   2.795   5.873 -0.0195  0.1238 -0.5415
  228MOL    O7741391   1.408   2.837   5.857  0.2342  0.3192  0.3137
  228MOL    O7841392   1.236   2.714   5.782 -0.4825  0.2904  0.3360
  228MOL    H7941393   1.357   2.836   6.125  0.1294  0.1765 -0.0579
  228MOL    H8041394   1.204   2.863   6.194 -0.9271 -0.5046  0.3775
  228MOL    H8141395   1.099   2.787   5.975  1.0007 -2.1840  0.5191
  228MOL    H8241396   1.296   2.677   5.720 -0.5556  1.2166 -0.2931
  228MOL    C8341397   1.186   3.003   5.972  0.2782 -0.4415  0.1627
  228MOL    C8441398   1.056   3.073   6.030  0.9022  0.2779 -0.5254
  228MOL    C8541399   0.943   3.077   5.931  0.5159  0.1897 -0.0511
  228MOL    O8641400   0.867   2.979   5.911 -0.1495  0.4929  0.6967
  228MOL    O8741401   0.933   3.199   5.868 -0.2315  0.2755 -0.4664
  228MOL    H8841402   1.185   3.035   5.868  0.6987  1.2806  0.6700
  228MOL    H8941403   1.276   3.044   6.018  0.6358 -1.0169 -0.0293
  228MOL    H9041404   1.027   3.004   6.109 -0.3295  1.1644 -0.2012
  228MOL    H9141405   0.862   3.182   5.807 -0.5664  0.8560 -0.2369
  228MOL    C9241406   1.076   3.211   6.092 -0.1226  0.7120 -0.7035
  228MOL    C9341407   1.151   3.227   6.233 -0.3438 -0.5562 -0.5608
  228MOL    C9441408   1.303   3.196   6.226  0.0099  0.1881 -0.1291
  228MOL    O9541409   1.370   3.099   6.275  0.2011  0.1522 -0.2360
  228MOL    O9641410   1.366   3.275   6.138 -0.0575 -0.0066  0.2656
  228MOL    H9741411   0.982   3.266   6.091 -1.1199 -0.8826  1.6401
  228MOL    H9841412   1.143   3.255   6.018  0.2370 -2.0623 -2.0781
  228MOL    H9941413   1.140   3.333   6.255 -2.4698 -0.6669 -0.9823
  228MOL   H10041414   1.455   3.245   6.132  0.2736  0.9792  0.2378
  228MOL   C10141415   1.085   3.157   6.353  0.3914 -0.1708 -0.4363
  228MOL   C10241416   0.930   3.185   6.374 -0.3231  0.0181 -0.8085
  228MOL   C10341417   0.914   3.336   6.403  0.1224 -0.3424 -0.1960
  228MOL   O10441418   0.839   3.405   6.340  0.0626  0.1231  0.0199
  228MOL   O10541419   0.995   3.377   6.504  0.2304  0.1351  0.5181
  228MOL   H10641420   1.134   3.192   6.444  1.3608 -1.5436 -0.4184
  228MOL   H10741421   1.095   3.050   6.338  1.7119  0.0494 -1.2864
  228MOL   H10841422   0.875   3.147   6.288  2.0816 -0.9892 -1.9444
  228MOL   H10941423   1.001   3.470   6.516  1.6174  0.0116  0.8527
  228MOL   C11041424   0.875   3.102   6.498  0.1418  0.2246 -0.0018
  228MOL   C11141425   0.892   2.951   6.495 -0.2725 -0.2156  0.4926
  228MOL   C11241426   0.820   2.886   6.373  0.1040 -0.1439 -0.0398
  228MOL   O11341427   0.872   2.869   6.263  0.1582 -0.2465  0.3502
  228MOL   O11441428   0.696   2.847   6.401  0.1776 -0.3156 -0.9866
  228MOL   H11541429   0.771   3.133   6.509  0.5438  2.4374 -1.8792
  228MOL   H11641430   0.928   3.149   6.581 -1.1500  2.3817 -0.3274
  228MOL   H11741431   0.996   2.924   6.479 -0.3260 -0.5946  0.7801
  228MOL   H11841432   0.652   2.826   6.320  2.8657 -0.9748 -2.3296
  228MOL   C11941433   0.844   2.896   6.638 -0.1909 -0.1364  0.1188
  228MOL   C12041434   0.925   2.932   6.766 -1.1151  0.5105  0.2173
  228MOL   C12141435   1.075   2.878   6.761  0.0833  0.1605 -0.3051
  228MOL   O12241436   1.105   2.789   6.681  0.2430  0.3499  0.4592
  228MOL   O12341437   1.161   2.932   6.857  0.1337 -0.1390 -0.2870
  228MOL   H12441438   0.835   2.788   6.626  0.4450 -0.2283  0.4725
  228MOL   H12541439   0.742   2.934   6.648  0.1582  0.3407  2.1178
  228MOL   H12641440   0.932   3.040   6.754 -0.1432  0.2659 -1.6362
  228MOL   H12741441   1.251   2.902   6.854  0.5808  1.1048  0.2031
  228MOL   C12841442   0.858   2.891   6.898  0.4187  0.0791  0.6479
  228MOL   C12941443   0.896   2.961   7.030  0.1332 -0.7463 -0.5743
  228MOL   C13041444   0.836   2.891   7.153  0.1944 -0.0432  0.1006
  228MOL   O13141445   0.721   2.850   7.166 -0.0466  0.0758  0.5791
  228MOL   O13241446   0.925   2.893   7.252 -0.3309  0.1372 -0.4512
  228MOL   H13341447   0.866   2.782   6.905  0.8990  0.1156  0.6871
  228MOL   H13441448   0.752   2.899   6.876  0.3667 -2.2685 -0.1556
  228MOL   H13541449   1.005   2.955   7.038 -0.0341 -0.7706  2.4299
  228MOL   H13641450   0.890   2.860   7.333  1.7804 -1.1728 -0.0169
  228MOL   C13741451   0.853   3.110   7.032 -0.4269 -0.6320  0.0292
  228MOL   C13841452   0.968   3.205   6.980  0.4089  0.2351  1.1401
  228MOL   C13941453   1.070   3.244   7.094  0.2890 -1.0969  0.1264
  228MOL   O14041454   1.068   3.200   7.210  0.2214 -0.2514  0.4513
  228MOL   O14141455   1.168   3.325   7.038  0.0429  0.1854  0.1994
  228MOL   H14241456   0.838   3.146   7.134 -0.0253  2.3583 -0.9271
  228MOL   H14341457   0.764   3.125   6.971  0.0198 -0.7231 -0.6399
  228MOL   H14441458   1.029   3.157   6.904 -1.1990  0.7363 -0.5149
  228MOL   H14541459   1.239   3.326   7.100 -0.2789  0.5987  0.5650
  228MOL   C14641460   0.917   3.331   6.903 -0.0838 -0.1833  0.8971
  228MOL   C14741461   0.837   3.443   6.974 -0.4927  0.0502  0.1290
  228MOL   C14841462   0.929   3.524   7.069 -0.5442 -0.5924  0.4934
  228MOL   O14941463   0.914   3.517   7.190 -0.7460 -0.5555  0.0115
  228MOL   O15041464   1.019   3.615   7.014 -0.0985  0.2540 -0.7104
  228MOL   H15141465   0.868   3.300   6.811  2.2530 -0.3985 -0.3235
  228MOL   H15241466   0.999   3.384   6.855 -2.0534  0.9067 -1.3845
  228MOL   H15341467   0.823   3.502   6.883  0.1653  0.6491  0.4148
  228MOL   H15441468   1.047   3.665   7.089 -0.8615  0.7430 -0.7379
  228MOL   C15541469   0.701   3.406   7.032  0.4616  0.0884 -0.0822
  228MOL   C15641470   0.581   3.365   6.944  0.4067  0.8359  0.2309
  228MOL   C15741471   0.572   3.447   6.812  0.4508  0.4939  0.4752
  228MOL   O15841472   0.505   3.538   6.787  0.5085 -0.6911 -0.3057
  228MOL   O15941473   0.649   3.389   6.717  0.1678 -0.0723 -0.6027
  228MOL   H16041474   0.679   3.493   7.094 -0.8933 -0.7247  0.5986
  228MOL   H16141475   0.721   3.324   7.100  0.8651  1.1499  1.0869
  228MOL   H16241476   0.593   3.263   6.909 -1.6472  1.2957 -1.9570
  228MOL   H16341477   0.636   3.428   6.632  1.3950  0.8611 -0.3764
  228MOL   C16441478   0.452   3.373   7.019  0.2407  0.2969 -0.1961
  228MOL   C16541479   0.438   3.276   7.143  0.4422  0.8800  0.0753
  228MOL   C16641480   0.429   3.126   7.103  0.0826  1.0240 -0.4200
  228MOL   O16741481   0.330   3.066   7.055 -0.0101 -0.0484 -0.0114
  228MOL   O16841482   0.546   3.061   7.134  0.0440 -0.3945  0.0078
  228MOL   H16941483   0.369   3.351   6.952  2.8187 -1.2711 -2.9929
  228MOL   H17041484   0.444   3.473   7.061  2.0208  0.0500  0.7529
  228MOL   H17141485   0.527   3.291   7.204  1.1490 -0.4523 -0.5827
  228MOL   H17241486   0.538   2.971   7.106  0.4688 -0.3038 -0.4039
  228MOL   C17341487   0.313   3.320   7.223 -0.8560  0.2218 -0.1119
  228MOL   C17441488   0.177   3.319   7.149 -0.2307 -0.3324  0.6283
  228MOL   C17541489   0.052   3.364   7.235 -0.9123 -0.3119 -0.3072
  228MOL   O17641490   0.054   3.415   7.347  0.1024  0.1660  0.1579
  228MOL   O17741491   7.792   3.332   7.169 -0.3027  0.3129  0.4960
  228MOL   H17841492   0.332   3.423   7.253  0.3581 -0.3666  1.2222
  228MOL   H17941493   0.312   3.256   7.312  1.4479  0.7664  0.3295
  228MOL   H18041494   0.180   3.376   7.056  1.3365 -1.6342 -0.1284
  228MOL   H18141495   7.712   3.357   7.212 -1.2574  0.9725 -1.6169
  228MOL   H18241496   0.162   3.217   7.115 -1.9438 -0.6188  2.1203
  229MOL     C141497   4.712   4.979   3.818 -0.6083 -0.0152 -0.0794
  229MOL     C241498   4.828   4.896   3.881 -0.4750  0.4893  0.7418
  229MOL     C341499   4.844   4.760   3.812  0.2177  0.8162  0.0363
  229MOL     O441500   4.856   4.651   3.875 -0.4926  0.4154 -0.1977
  229MOL     O541501   4.836   4.769   3.679  0.6178 -0.1832 -0.5224
  229MOL     H641502   4.717   5.086   3.836  1.8390  0.1998 -1.6920
  229MOL     H741503   4.715   4.973   3.709 -2.2704 -0.3395 -0.1144
  229MOL     H841504   4.910   4.964   3.856 -0.7961  1.4495  2.2286
  229MOL     H941505   4.832   4.858   3.647 -0.9740 -0.3022 -0.6663
  229MOL    H1041506   4.614   4.949   3.853 -0.4332  1.3339  1.5980
  229MOL    C1141507   4.826   4.880   4.030  0.2740 -0.1307  0.1743
  229MOL    C1241508   4.835   5.014   4.111  0.0780 -0.4465 -0.2129
  229MOL    C1341509   4.976   5.056   4.139 -0.2686 -0.6762  0.0068
  229MOL    O1441510   5.061   5.005   4.218 -0.5848 -0.7562  0.4711
  229MOL    O1541511   5.006   5.157   4.049  0.0549 -0.2120 -0.1895
  229MOL    H1641512   4.911   4.820   4.065  1.5961  2.1513  1.0354
  229MOL    H1741513   4.738   4.822   4.057  0.2813  0.0216  0.5359
  229MOL    H1841514   4.797   5.101   4.058  1.6696  2.7405  3.6669
  229MOL    H1941515   5.089   5.198   4.065 -0.5365  0.1531  2.1595
  229MOL    C2041516   4.758   5.001   4.245 -0.1131 -0.4052 -0.8639
  229MOL    C2141517   4.599   5.004   4.222 -0.5953 -0.1837 -0.3700
  229MOL    C2241518   4.542   5.138   4.174 -0.3597 -0.3826  0.1228
  229MOL    O2341519   4.437   5.145   4.111 -0.1244 -0.2885 -0.1789
  229MOL    O2441520   4.613   5.245   4.202  0.0233  0.2823  0.1563
  229MOL    H2541521   4.775   5.076   4.323  1.8297 -1.9087  0.2161
  229MOL    H2641522   4.789   4.911   4.297 -1.0352 -0.3777 -0.2592
  229MOL    H2741523   4.580   4.948   4.130  2.3907 -2.0983  0.1099
  229MOL    H2841524   4.560   5.320   4.178  0.3286 -0.1651 -1.9624
  229MOL    C2941525   4.511   4.935   4.329  0.3506  0.1378 -0.2179
  229MOL    C3041526   4.548   4.968   4.472  0.5455  0.2373  0.4661
  229MOL    C3141527   4.531   4.853   4.571 -0.0060  0.6127 -0.2889
  229MOL    O3241528   4.633   4.806   4.625  0.0415 -0.4483  0.4012
  229MOL    O3341529   4.403   4.803   4.573  0.4546 -0.0638 -0.1971
  229MOL    H3441530   4.517   4.827   4.313  1.0822  0.0910  0.3468
  229MOL    H3541531   4.409   4.970   4.313 -0.1147 -1.3899 -0.7230
  229MOL    H3641532   4.656   4.975   4.485  0.6972  1.0647 -1.0854
  229MOL    H3741533   4.392   4.727   4.627  0.0162  0.4340  0.4168
  229MOL    C3841534   4.492   5.115   4.509 -0.4051 -0.1162 -0.2706
  229MOL    C3941535   4.593   5.199   4.592 -0.4709 -0.0632  0.3114
  229MOL    C4041536   4.659   5.128   4.710  0.0109  0.2456  0.5884
  229MOL    O4141537   4.596   5.082   4.805 -0.1990  0.2599  0.0463
  229MOL    O4241538   4.794   5.121   4.699  0.5542  0.0615  0.4745
  229MOL    H4341539   4.401   5.112   4.568 -0.3194 -0.7704 -0.1641
  229MOL    H4441540   4.469   5.177   4.423  0.3634 -1.7002 -1.6622
  229MOL    H4541541   4.672   5.225   4.522  1.2045 -1.0815  1.7982
  229MOL    H4641542   4.830   5.067   4.767  2.8037  0.5056 -0.3324
  229MOL    C4741543   4.528   5.336   4.638 -0.1711  0.5216  0.5920
  229MOL    C4841544   4.522   5.453   4.534  0.4311 -0.3497 -0.0480
  229MOL    C4941545   4.647   5.542   4.539 -0.4453  0.3970 -0.6419
  229MOL    O5041546   4.645   5.659   4.513  0.0853  0.1010  0.7981
  229MOL    O5141547   4.766   5.479   4.575  0.5303  0.3680  0.1659
  229MOL    H5241548   4.574   5.351   4.735 -0.8743  1.5591  0.7683
  229MOL    H5341549   4.429   5.309   4.674 -1.9763  2.1045 -2.8645
  229MOL    H5441550   4.539   5.408   4.436 -0.5907 -0.1057 -0.3396
  229MOL    H5541551   4.842   5.533   4.565  0.5823  0.1623 -0.6238
  229MOL    C5641552   4.388   5.531   4.526  0.0290  0.1730 -0.1506
  229MOL    C5741553   4.283   5.461   4.447 -0.8565  0.5891  0.0722
  229MOL    C5841554   4.308   5.486   4.287  0.6405  0.8211 -0.1558
  229MOL    O5941555   4.408   5.443   4.230 -0.0946  0.3371 -0.3807
  229MOL    O6041556   4.217   5.564   4.224 -0.3152 -0.6651 -0.3991
  229MOL    H6141557   4.400   5.636   4.501  1.9792  0.0268  0.1077
  229MOL    H6241558   4.353   5.535   4.629  0.7975 -1.4073  0.1915
  229MOL    H6341559   4.300   5.354   4.458 -1.1089  0.6475  1.0284
  229MOL    H6441560   4.246   5.567   4.135  1.3830  0.3129  0.1645
  229MOL    C6541561   4.139   5.484   4.503  0.4311  0.5053  0.2868
  229MOL    C6641562   4.092   5.618   4.554  0.3486 -0.0326 -0.9432
  229MOL    C6741563   3.953   5.603   4.609  0.4781  0.7306  0.0971
  229MOL    O6841564   3.857   5.590   4.533  0.5944 -0.5018  0.2739
  229MOL    O6941565   3.939   5.602   4.744  0.5184 -0.0921  0.4685
  229MOL    H7041566   4.130   5.415   4.587  0.4024 -1.9962 -1.6792
  229MOL    H7141567   4.079   5.446   4.420  0.0663  0.3276  0.6356
  229MOL    H7241568   4.150   5.627   4.646 -0.5362  0.1800 -0.3891
  229MOL    H7341569   3.849   5.587   4.770  0.6238  0.2369  1.0299
  229MOL    C7441570   4.097   5.736   4.452  0.2024  0.3319 -0.0230
  229MOL    C7541571   4.078   5.882   4.507 -0.5581  0.2773 -0.1507
  229MOL    C7641572   4.003   5.971   4.405  0.1623  0.2288 -0.3645
  229MOL    O7741573   4.018   5.966   4.281  0.7651 -0.0104 -0.4253
  229MOL    O7841574   3.913   6.047   4.478 -0.5912 -0.0372 -0.3592
  229MOL    H7941575   4.027   5.713   4.372 -0.7837 -1.5386  1.3284
  229MOL    H8041576   4.190   5.755   4.399  0.2569 -0.0001 -0.0465
  229MOL    H8141577   4.019   5.879   4.598 -0.4759  1.1875 -0.0597
  229MOL    H8241578   3.875   6.116   4.426  0.7091  0.1114 -1.1344
  229MOL    C8341579   4.227   5.953   4.528  0.4024  0.2845  0.4779
  229MOL    C8441580   4.232   6.071   4.635 -0.2735  0.3713 -0.2001
  229MOL    C8541581   4.232   6.208   4.566  0.0217  0.4185  0.0327
  229MOL    O8641582   4.129   6.268   4.534  0.2225  0.1494  0.0192
  229MOL    O8741583   4.355   6.250   4.532  0.3098  0.0608 -0.0956
  229MOL    H8841584   4.266   5.992   4.434  0.0366  0.5356  0.4284
  229MOL    H8941585   4.294   5.873   4.557  0.5852  0.1872 -0.1962
  229MOL    H9041586   4.130   6.060   4.674 -0.5634 -2.6832 -1.6835
  229MOL    H9141587   4.349   6.328   4.478 -2.1225  0.1752  0.2671
  229MOL    C9241588   4.337   6.051   4.746 -0.7297  0.0260  0.2329
  229MOL    C9341589   4.330   5.933   4.849  0.4370  0.5320  0.4575
  229MOL    C9441590   4.194   5.924   4.921 -0.1854  0.6554  0.4075
  229MOL    O9541591   4.164   5.982   5.026  0.0356  0.2857  0.4845
  229MOL    O9641592   4.099   5.855   4.846 -0.2730 -0.4211 -0.1336
  229MOL    H9741593   4.355   6.144   4.800  1.9339  1.2688 -2.6249
  229MOL    H9841594   4.431   6.048   4.690 -0.3767 -2.8809  0.9154
  229MOL    H9941595   4.323   5.840   4.792 -1.4749  0.4358  0.8072
  229MOL   H10041596   4.012   5.879   4.875 -0.0881  0.7535 -0.5127
  229MOL   C10141597   4.453   5.940   4.948  0.3407  0.2920  0.3212
  229MOL   C10241598   4.454   5.845   5.073 -0.0983 -0.0142 -0.2768
  229MOL   C10341599   4.598   5.863   5.136  0.0320 -0.0599  0.1552
  229MOL   O10441600   4.704   5.817   5.093  0.0503 -0.1225 -0.3528
  229MOL   O10541601   4.600   5.940   5.248  0.4632  0.4815  0.0740
  229MOL   H10641602   4.455   6.044   4.979 -0.2536  0.4474 -0.1450
  229MOL   H10741603   4.543   5.949   4.886 -0.9787  2.0454 -1.4085
  229MOL   H10841604   4.385   5.895   5.141  2.1920  2.2883  0.4483
  229MOL   H10941605   4.690   5.940   5.275  0.6795  1.7328 -0.6291
  229MOL   C11041606   4.435   5.701   5.032  0.3588 -0.3870  0.0405
  229MOL   C11141607   4.316   5.629   5.107  0.7664 -0.0030 -0.1474
  229MOL   C11241608   4.367   5.610   5.248 -0.3673 -0.4282 -0.0420
  229MOL   O11341609   4.462   5.536   5.270 -0.1025  0.3224 -0.8243
  229MOL   O11441610   4.302   5.684   5.336  0.1388  0.4552 -0.0547
  229MOL   H11541611   4.524   5.643   5.058 -0.4785 -1.3992  0.6996
  229MOL   H11641612   4.429   5.678   4.925 -0.5159 -1.1071  0.2405
  229MOL   H11741613   4.218   5.677   5.108  0.5173 -0.5004 -0.3563
  229MOL   H11841614   4.340   5.682   5.422  0.4589 -2.7406 -0.2228
  229MOL   C11941615   4.277   5.498   5.033  0.1366 -0.5505  0.1537
  229MOL   C12041616   4.187   5.391   5.094  0.6125 -0.1966 -0.1837
  229MOL   C12141617   4.183   5.266   5.012  0.2745  0.5579 -0.1192
  229MOL   O12241618   4.079   5.216   4.968 -0.7281  0.2679  0.4439
  229MOL   O12341619   4.302   5.204   5.011 -0.0074 -0.1461  0.2469
  229MOL   H12441620   4.368   5.448   4.999  0.2310  0.0354 -0.4552
  229MOL   H12541621   4.233   5.525   4.937 -0.2707 -0.2147  0.4333
  229MOL   H12641622   4.235   5.360   5.187  0.1578 -2.5424 -0.6922
  229MOL   H12741623   4.290   5.127   4.957  1.4935 -0.5415  0.4557
  229MOL   C12841624   4.042   5.449   5.131 -0.1873  0.6490 -0.0099
  229MOL   C12941625   3.973   5.383   5.258  0.7170 -0.1266 -0.0552
  229MOL   C13041626   3.913   5.249   5.210 -0.1512 -0.2738 -0.2949
  229MOL   O13141627   3.831   5.239   5.118 -0.5946 -0.6311  0.3129
  229MOL   O13241628   3.984   5.144   5.257 -0.2954 -0.1445 -0.0282
  229MOL   H13341629   3.973   5.452   5.047 -0.5655  0.6668  0.3038
  229MOL   H13441630   4.059   5.554   5.155  0.5185 -0.0579  2.7925
  229MOL   H13541631   4.037   5.364   5.345  1.2286 -0.7902 -0.5683
  229MOL   H13641632   3.955   5.063   5.218 -0.6852 -1.2116  2.3654
  229MOL   C13741633   3.847   5.460   5.308 -0.3972  0.0677  0.0248
  229MOL   C13841634   3.872   5.607   5.352  0.5460  0.5720  0.3128
  229MOL   C13941635   3.985   5.632   5.451  0.3481 -0.3658 -0.1028
  229MOL   O14041636   4.068   5.555   5.488  0.1757  0.8228 -0.2667
  229MOL   O14141637   3.987   5.764   5.483 -0.2218 -0.2582  0.1338
  229MOL   H14241638   3.800   5.401   5.387  1.1843  0.4738  1.3104
  229MOL   H14341639   3.773   5.473   5.229 -0.6121  0.8444  0.3489
  229MOL   H14441640   3.901   5.667   5.265  1.1762 -0.5216 -0.2412
  229MOL   H14541641   4.071   5.786   5.520  0.4802  0.9294 -2.0705
  229MOL   C14641642   3.730   5.665   5.397  0.3833 -0.3763 -0.7259
  229MOL   C14741643   3.646   5.746   5.292  0.3151 -0.5474  0.2372
  229MOL   C14841644   3.611   5.662   5.169 -0.7423 -0.1175 -0.0287
  229MOL   O14941645   3.681   5.675   5.068  0.2317 -0.0788 -0.0583
  229MOL   O15041646   3.503   5.582   5.174 -0.1273  0.0217 -0.6674
  229MOL   H15141647   3.741   5.725   5.488  1.2925 -3.0089  0.9454
  229MOL   H15241648   3.662   5.590   5.437  1.2181 -1.0596 -0.5686
  229MOL   H15341649   3.554   5.771   5.345  0.7276  0.5078  0.4548
  229MOL   H15441650   3.487   5.528   5.099 -1.8499  0.2185 -0.4576
  229MOL   C15541651   3.721   5.879   5.255  0.2713 -0.1888  0.2906
  229MOL   C15641652   3.644   5.990   5.175  0.5487  0.3195  0.2877
  229MOL   C15741653   3.744   6.081   5.102 -0.0669  0.0272  0.6026
  229MOL   O15841654   3.770   6.193   5.150  0.7152 -0.4482  0.7900
  229MOL   O15941655   3.802   6.033   4.993 -0.3290  0.5312  0.1283
  229MOL   H16041656   3.802   5.846   5.190 -0.2838  0.7805 -0.9249
  229MOL   H16141657   3.754   5.917   5.351  2.8164  1.4483 -1.1681
  229MOL   H16241658   3.588   5.938   5.097 -0.7035 -1.0533  2.0549
  229MOL   H16341659   3.847   6.101   4.945 -0.5092  0.1227 -0.6323
  229MOL   C16441660   3.534   6.067   5.255 -0.3035  0.2684 -0.6626
  229MOL   C16541661   3.437   6.167   5.182  0.1833  0.0482 -0.0063
  229MOL   C16641662   3.387   6.287   5.276  0.5569 -0.5128  0.3137
  229MOL   O16741663   3.412   6.297   5.393  0.3487  0.2027  0.2946
  229MOL   O16841664   3.328   6.379   5.207  0.6058 -0.5153  0.3980
  229MOL   H16941665   3.576   6.113   5.345  1.3350  0.2609 -1.3978
  229MOL   H17041666   3.468   6.001   5.312  1.5493  0.2298  1.5421
  229MOL   H17141667   3.494   6.221   5.107 -1.1287  0.0876 -0.9996
  229MOL   H17241668   3.295   6.450   5.260 -0.8258  0.4747 -1.7345
  229MOL   C17341669   3.317   6.099   5.108 -0.3522 -0.0687  0.3123
  229MOL   C17441670   3.219   6.022   5.200 -0.2057  0.1428  0.0515
  229MOL   C17541671   3.083   5.987   5.143 -0.2655  0.0782 -0.2722
  229MOL   O17641672   2.993   5.934   5.211  0.6198  1.0402  0.4841
  229MOL   O17741673   3.088   5.991   5.005 -0.0121 -0.5866 -0.0961
  229MOL   H17841674   3.348   6.023   5.036 -1.7108  0.9014 -1.3353
  229MOL   H17941675   3.258   6.168   5.047  0.2899  0.2370  0.0250
  229MOL   H18041676   3.256   5.935   5.253  1.7208  1.8803  1.6727
  229MOL   H18141677   3.001   5.959   4.989 -0.8296  1.7117 -0.4285
  229MOL   H18241678   3.198   6.089   5.285  0.0098  0.0597  0.1694
  230MOL     C141679   6.652   7.315   2.721  0.0692  0.0283 -0.1143
  230MOL     C241680   6.743   7.195   2.681  0.0871  0.0621 -0.1882
  230MOL     C341681   6.719   7.064   2.755 -0.0189  0.2997  0.0025
  230MOL     O441682   6.771   6.958   2.719  0.0743 -0.0933  0.1224
  230MOL     O541683   6.629   7.080   2.855 -0.3879 -0.0130  0.4209
  230MOL     H641684   6.545   7.297   2.710 -0.1010  1.1458 -0.3216
  230MOL     H741685   6.675   7.355   2.819  0.3053 -0.0645 -0.1317
  230MOL     H841686   6.713   7.183   2.577 -0.8011 -0.0257  0.0692
  230MOL     H941687   6.599   7.003   2.900  1.0006 -1.3080 -0.8650
  230MOL    H1041688   6.657   7.409   2.665 -2.9294 -1.1935 -2.6361
  230MOL    C1141689   6.885   7.247   2.694  0.2388  0.7945 -0.4529
  230MOL    C1241690   6.992   7.163   2.615  0.1118  0.7430 -0.3037
  230MOL    C1341691   7.137   7.179   2.676  0.7393  0.5777  0.3562
  230MOL    O1441692   7.233   7.219   2.611 -0.5446  0.2181 -0.0911
  230MOL    O1541693   7.146   7.153   2.807  0.2500  0.0513 -0.3152
  230MOL    H1641694   6.913   7.251   2.799  2.3144  1.4936 -0.9933
  230MOL    H1741695   6.875   7.346   2.650  0.3731  2.2728  2.7700
  230MOL    H1841696   6.976   7.057   2.634  0.4301  0.8417  0.5511
  230MOL    H1941697   7.235   7.155   2.838  0.0269 -1.3587  0.4479
  230MOL    C2041698   7.000   7.188   2.460  0.3776 -0.7588 -1.1865
  230MOL    C2141699   7.044   7.065   2.368 -0.0750 -0.3677  0.2010
  230MOL    C2241700   7.198   7.068   2.355  0.4839 -0.2099 -0.1468
  230MOL    O2341701   7.265   7.165   2.333 -0.0592 -0.6117 -0.1789
  230MOL    O2441702   7.241   6.942   2.357 -0.3284 -0.2951 -0.2222
  230MOL    H2541703   7.044   7.286   2.441 -1.7544  0.9589  2.1561
  230MOL    H2641704   6.898   7.200   2.425 -0.3340  0.1348  1.0789
  230MOL    H2741705   7.002   6.980   2.422 -0.4925  0.2599  0.8719
  230MOL    H2841706   7.336   6.943   2.357 -0.2872  2.6404 -1.1341
  230MOL    C2941707   6.995   7.066   2.224 -0.2117  0.0502 -0.4212
  230MOL    C3041708   7.007   6.934   2.150  0.9587  0.0901 -0.2944
  230MOL    C3141709   6.946   6.941   2.009 -0.0654  0.2815  0.2582
  230MOL    O3241710   6.830   6.966   1.981  0.5893  0.8985  0.4206
  230MOL    O3341711   7.032   6.889   1.907  0.7518  0.2212 -0.1589
  230MOL    H3441712   7.043   7.145   2.167  0.6606 -1.6286 -2.0867
  230MOL    H3541713   6.891   7.099   2.215 -0.1748  0.4163  0.4159
  230MOL    H3641714   7.110   6.900   2.137  0.4857 -1.4830 -0.0405
  230MOL    H3741715   6.989   6.874   1.824 -2.1795  2.9759  0.7610
  230MOL    C3841716   6.945   6.810   2.225 -0.2699 -0.5961  0.2302
  230MOL    C3941717   6.794   6.811   2.270 -0.5284 -0.3074  0.4212
  230MOL    C4041718   6.764   6.874   2.402  0.1389 -0.3839 -0.1630
  230MOL    O4141719   6.675   6.961   2.412 -0.7198 -0.5310 -0.2845
  230MOL    O4241720   6.837   6.834   2.506 -0.1632 -0.1989 -0.4486
  230MOL    H4341721   7.006   6.780   2.310  1.8229 -0.3391 -1.1294
  230MOL    H4441722   6.942   6.724   2.158  0.3148 -0.5982  0.2081
  230MOL    H4541723   6.747   6.880   2.201  2.5399  2.0094  0.5364
  230MOL    H4641724   6.795   6.868   2.583 -1.6838  2.4847 -2.3636
  230MOL    C4741725   6.722   6.676   2.256 -0.4474  0.1006  0.1370
  230MOL    C4841726   6.581   6.684   2.226 -0.0598  0.6916 -0.8320
  230MOL    C4941727   6.522   6.536   2.213 -0.2839  0.0966 -0.6348
  230MOL    O5041728   6.570   6.447   2.142 -0.5407 -0.1979  0.2037
  230MOL    O5141729   6.412   6.518   2.292  0.8491  0.2274  0.0907
  230MOL    H5241730   6.735   6.622   2.350 -1.6284 -0.7148 -0.1456
  230MOL    H5341731   6.762   6.614   2.175  1.5352  0.1567  1.0402
  230MOL    H5441732   6.530   6.733   2.309  1.5073  0.1309  0.4805
  230MOL    H5541733   6.382   6.429   2.290  1.1690  0.1419 -1.0112
  230MOL    C5641734   6.546   6.770   2.106 -0.1794  0.2465  0.3315
  230MOL    C5741735   6.411   6.755   2.036  0.1209  0.1339 -0.1209
  230MOL    C5841736   6.289   6.784   2.126  0.5850 -0.2424 -0.6586
  230MOL    O5941737   6.182   6.731   2.133  0.3112  0.2649 -0.0877
  230MOL    O6041738   6.320   6.882   2.210  0.1477  0.1648 -0.5254
  230MOL    H6141739   6.626   6.770   2.032 -0.4917  1.6785 -0.0340
  230MOL    H6241740   6.536   6.873   2.142 -0.5844 -0.2346  1.6357
  230MOL    H6341741   6.409   6.847   1.978 -0.6719  1.1717  1.5138
  230MOL    H6441742   6.239   6.896   2.257 -0.2273 -1.1356 -0.7708
  230MOL    C6541743   6.387   6.633   1.947 -0.5768 -0.0953  0.0793
  230MOL    C6641744   6.304   6.657   1.819 -0.6160  0.3731 -0.3152
  230MOL    C6741745   6.253   6.528   1.754 -0.4476  0.4166 -0.6057
  230MOL    O6841746   6.301   6.475   1.650 -0.1402  1.0445  0.7302
  230MOL    O6941747   6.138   6.484   1.809  0.2158 -0.0967 -0.2448
  230MOL    H7041748   6.337   6.559   2.011 -3.4670  2.9555  1.5247
  230MOL    H7141749   6.482   6.588   1.919  0.6115  2.7601 -0.6409
  230MOL    H7241750   6.209   6.699   1.851  0.6391  3.2735 -0.2082
  230MOL    H7341751   6.097   6.421   1.752 -0.6483  0.9542 -0.7933
  230MOL    C7441752   6.373   6.742   1.714  0.5332  0.4655 -0.1433
  230MOL    C7541753   6.296   6.851   1.632  0.1239  0.2970 -0.2239
  230MOL    C7641754   6.261   6.974   1.719 -0.2948  0.0980  0.1807
  230MOL    O7741755   6.166   6.968   1.801 -0.2145 -0.2563 -0.3804
  230MOL    O7841756   6.335   7.084   1.689  0.2408  0.7406  0.2342
  230MOL    H7941757   6.436   6.682   1.650 -2.5523 -0.2193 -2.6905
  230MOL    H8041758   6.451   6.794   1.769 -1.3963  3.3660 -0.0166
  230MOL    H8141759   6.376   6.890   1.570 -0.2492  1.8731  0.2833
  230MOL    H8241760   6.303   7.165   1.726 -2.1894  0.2081 -0.6139
  230MOL    C8341761   6.180   6.800   1.541  0.1335 -0.3472 -0.3750
  230MOL    C8441762   6.229   6.775   1.402  0.5017  0.1847 -0.1653
  230MOL    C8541763   6.254   6.904   1.315  0.2432  0.5905  0.1050
  230MOL    O8641764   6.184   7.001   1.323 -0.4806 -0.1702  0.0928
  230MOL    O8741765   6.353   6.883   1.229 -0.7884 -0.2123  0.3971
  230MOL    H8841766   6.094   6.866   1.534  0.7007  0.5339  0.8731
  230MOL    H8941767   6.138   6.708   1.582  0.3045  0.4938  1.7157
  230MOL    H9041768   6.331   6.738   1.414 -0.0946 -1.0340  1.1959
  230MOL    H9141769   6.391   6.796   1.231 -3.4338 -1.4018  0.5324
  230MOL    C9241770   6.132   6.686   1.316  0.3907 -0.4473  0.1397
  230MOL    C9341771   6.173   6.532   1.329  0.4911 -0.3929  0.1946
  230MOL    C9441772   6.302   6.493   1.253  0.8688  0.2891  0.1194
  230MOL    O9541773   6.348   6.557   1.162  0.0747 -0.4691  0.2362
  230MOL    O9641774   6.353   6.371   1.296  0.1249 -0.0957  0.6064
  230MOL    H9741775   6.126   6.712   1.210 -1.4147 -2.7821 -0.3977
  230MOL    H9841776   6.033   6.686   1.363  1.0258  1.9072  1.5709
  230MOL    H9941777   6.200   6.526   1.434  0.2693  0.9368  0.3407
  230MOL   H10041778   6.429   6.346   1.245 -0.6207 -0.3308 -0.3941
  230MOL   C10141779   6.056   6.440   1.282  0.0445 -0.5408  0.3648
  230MOL   C10241780   5.994   6.333   1.382 -0.5433  0.8226 -0.0271
  230MOL   C10341781   5.922   6.397   1.507  0.0326  0.2490 -1.1561
  230MOL   O10441782   5.973   6.410   1.620 -0.5889  0.4829  0.2292
  230MOL   O10541783   5.795   6.432   1.477 -0.5010  0.0013  0.7431
  230MOL   H10641784   6.083   6.387   1.190 -0.1121  0.1976 -0.1112
  230MOL   H10741785   5.968   6.490   1.241  1.9667  0.8599 -2.2278
  230MOL   H10841786   5.921   6.277   1.323 -1.7992  0.9407  1.3838
  230MOL   H10941787   5.749   6.463   1.554  0.9454  1.1196  1.1810
  230MOL   C11041788   6.110   6.237   1.423 -0.5275  0.6467 -0.3972
  230MOL   C11141789   6.063   6.112   1.509  0.4829  0.1043  0.1959
  230MOL   C11241790   6.167   6.067   1.609  0.1049 -1.0247  0.1242
  230MOL   O11341791   6.249   5.980   1.596 -0.0294 -0.1442 -0.3348
  230MOL   O11441792   6.159   6.143   1.724 -0.1735 -0.3631  0.1205
  230MOL   H11541793   6.184   6.294   1.479 -2.2842  2.7538 -0.1400
  230MOL   H11641794   6.166   6.201   1.337 -1.0030  0.7850 -0.7703
  230MOL   H11741795   5.965   6.141   1.547  0.1095 -0.9887  0.0838
  230MOL   H11841796   6.213   6.107   1.792 -0.4120 -1.2180 -0.1374
  230MOL   C11941797   6.022   5.998   1.417 -0.1514  0.3123  0.1841
  230MOL   C12041798   5.941   5.880   1.479  0.0221 -0.0745  0.0697
  230MOL   C12141799   5.946   5.765   1.382  0.7883 -0.0753  0.1327
  230MOL   O12241800   5.977   5.652   1.423  0.0521 -0.4515  0.3476
  230MOL   O12341801   5.916   5.796   1.255 -0.7084  0.6583 -0.0118
  230MOL   H12441802   6.116   5.960   1.378 -0.5778 -0.4539 -0.1069
  230MOL   H12541803   5.966   6.042   1.335  0.4972 -0.3547 -0.6261
  230MOL   H12641804   5.997   5.841   1.564  2.4869 -0.6437 -1.7899
  230MOL   H12741805   5.948   5.735   1.191  0.0195  0.4644  0.5258
  230MOL   C12841806   5.797   5.911   1.529 -0.5616  0.3709 -0.6748
  230MOL   C12941807   5.766   5.906   1.680 -0.3838 -0.1592  0.8483
  230MOL   C13041808   5.849   5.998   1.768 -0.0622 -0.4112 -0.2125
  230MOL   O13141809   5.938   5.966   1.853  0.5238 -0.0550 -0.4100
  230MOL   O13241810   5.817   6.128   1.741 -0.0914  0.3621  0.1674
  230MOL   H13341811   5.729   5.843   1.478 -1.9898  0.3557  1.1912
  230MOL   H13441812   5.762   6.003   1.483 -2.4994 -0.8392 -1.7112
  230MOL   H13541813   5.667   5.951   1.692 -1.2215 -1.7159 -0.0221
  230MOL   H13641814   5.881   6.193   1.765  1.0198 -0.5493 -0.3044
  230MOL   C13741815   5.775   5.756   1.737 -0.0739 -0.2863 -0.0665
  230MOL   C13841816   5.651   5.706   1.811 -0.2132 -0.2864 -0.3604
  230MOL   C13941817   5.631   5.792   1.942  0.4732  0.2184  0.4710
  230MOL   O14041818   5.694   5.781   2.047 -0.2844 -0.2039  0.2122
  230MOL   O14141819   5.537   5.879   1.914  0.0662  0.2310 -0.4844
  230MOL   H14241820   5.861   5.739   1.803 -0.2726  2.7435  1.0339
  230MOL   H14341821   5.781   5.695   1.647 -0.8528  0.7096 -0.7982
  230MOL   H14441822   5.558   5.713   1.754  0.4460 -0.6253 -1.4943
  230MOL   H14541823   5.514   5.932   1.988  1.7001 -0.8351  0.8232
  230MOL   C14641824   5.650   5.557   1.849  0.8589  0.8769 -0.2780
  230MOL   C14741825   5.688   5.458   1.728  0.1241  0.5929  0.9920
  230MOL   C14841826   5.581   5.461   1.621  0.2787  0.1062  0.7771
  230MOL   O14941827   5.458   5.452   1.641 -0.3353  0.1383 -0.2526
  230MOL   O15041828   5.622   5.486   1.494 -0.3419  0.5921  0.3859
  230MOL   H15141829   5.560   5.516   1.895 -1.4997  2.2588 -3.5027
  230MOL   H15241830   5.728   5.538   1.924 -0.8669  1.4351  1.6875
  230MOL   H15341831   5.783   5.484   1.683  0.5347  0.2477  1.6581
  230MOL   H15441832   5.554   5.492   1.429 -1.1216 -0.5653  1.0763
  230MOL   C15541833   5.692   5.307   1.771  0.1505 -0.1904  0.5989
  230MOL   C15641834   5.804   5.265   1.871 -0.3638  0.9137  0.4315
  230MOL   C15741835   5.951   5.274   1.823  0.2651  0.5198  0.5540
  230MOL   O15841836   6.018   5.177   1.789 -0.4698  0.5075 -0.3624
  230MOL   O15941837   6.004   5.402   1.841 -0.6272  0.5435  0.6347
  230MOL   H16041838   5.697   5.241   1.685  0.7619  0.6288 -0.0054
  230MOL   H16141839   5.590   5.296   1.806 -1.3385 -2.6563 -4.0389
  230MOL   H16241840   5.806   5.336   1.954 -1.2493  1.5692 -0.0980
  230MOL   H16341841   6.097   5.414   1.831 -0.5507 -1.2751 -1.0949
  230MOL   C16441842   5.772   5.128   1.937  0.1080  0.1581  0.8954
  230MOL   C16541843   5.638   5.114   2.007  0.3508  0.5608 -0.0769
  230MOL   C16641844   5.622   5.231   2.107  0.1489  0.6635 -0.0045
  230MOL   O16741845   5.532   5.307   2.092  0.0729 -0.4252 -0.1718
  230MOL   O16841846   5.714   5.231   2.204  0.0155 -0.1939 -0.6283
  230MOL   H16941847   5.854   5.107   2.006 -0.4036 -0.6118  1.2716
  230MOL   H17041848   5.791   5.046   1.868  1.7172  0.5010  0.9138
  230MOL   H17141849   5.557   5.111   1.934 -0.0670  2.5555  0.2616
  230MOL   H17241850   5.681   5.303   2.255 -0.4254  0.0635 -1.2730
  230MOL   C17341851   5.631   4.981   2.090  0.2235 -0.7188  0.4428
  230MOL   C17441852   5.502   4.952   2.173 -0.3329 -0.8189  0.1439
  230MOL   C17541853   5.380   4.897   2.096 -0.0324 -0.4216  0.2017
  230MOL   O17641854   5.379   4.876   1.972  0.1503  0.0664  0.1798
  230MOL   O17741855   5.285   4.881   2.185 -0.3207  0.1866  0.2879
  230MOL   H17841856   5.712   4.967   2.161  1.6009 -1.9411 -1.3202
  230MOL   H17941857   5.642   4.902   2.015  0.3962 -0.7946  0.5483
  230MOL   H18041858   5.538   4.869   2.233  1.7152 -0.5510 -0.6624
  230MOL   H18141859   5.212   4.845   2.137  1.0079 -0.6243 -1.1547
  230MOL   H18241860   5.476   5.029   2.246  2.4409  1.3239 -1.0306
  231MOL     C141861   0.065   5.609   4.021  0.2493  0.2854 -1.0403
  231MOL     C241862   0.129   5.753   4.020  0.1621 -0.0568 -0.1025
  231MOL     C341863   0.264   5.741   3.950  0.8360  0.1814  0.1147
  231MOL     O441864   0.315   5.635   3.922  0.1862  0.5659  0.2225
  231MOL     O541865   0.314   5.862   3.917  0.1460  0.0156  0.5710
  231MOL     H641866   7.820   5.617   4.070  0.3417  1.6489 -1.0765
  231MOL     H741867   0.042   5.557   3.928 -1.5398  0.2664 -0.6219
  231MOL     H841868   0.070   5.816   3.954  0.8645  2.0389  1.2433
  231MOL     H941869   0.394   5.858   3.867 -0.2952  0.2777 -0.1705
  231MOL    H1041870   0.127   5.540   4.078 -1.2409  0.1349  0.4677
  231MOL    C1141871   0.161   5.801   4.158 -0.1806 -0.8939  0.0812
  231MOL    C1241872   0.027   5.812   4.245 -0.1524 -0.1994 -0.4228
  231MOL    C1341873   7.782   5.908   4.177  0.5785 -0.0213 -0.0545
  231MOL    O1441874   7.811   5.999   4.105 -0.4840 -0.1985  0.1597
  231MOL    O1541875   7.657   5.887   4.211  0.1727  0.1631  0.6721
  231MOL    H1641876   0.214   5.896   4.155  1.1136 -1.6227 -0.1120
  231MOL    H1741877   0.222   5.730   4.215 -1.1399 -0.4648  1.6996
  231MOL    H1841878   7.836   5.714   4.262  0.6541 -0.5271 -0.2211
  231MOL    H1941879   7.609   5.952   4.162  0.7638  1.7701  2.1848
  231MOL    C2041880   0.057   5.876   4.381  0.2725  0.4299 -0.4826
  231MOL    C2141881   7.807   5.860   4.492  0.0266  0.0689 -0.2369
  231MOL    C2241882   7.765   5.995   4.547 -0.0261 -0.0472 -0.4212
  231MOL    O2341883   7.659   6.054   4.526  0.3131 -0.2219 -0.1829
  231MOL    O2441884   0.010   6.049   4.631  0.2225 -0.3364  0.0715
  231MOL    H2541885   0.079   5.980   4.358 -2.0023  0.3764 -3.3417
  231MOL    H2641886   0.158   5.851   4.410  0.1981  0.2440 -0.3861
  231MOL    H2741887   7.725   5.825   4.430  0.8731 -0.0125 -1.3366
  231MOL    H2841888   7.829   6.120   4.683 -2.7386 -1.2529 -0.4647
  231MOL    C2941889   7.848   5.754   4.600  0.6215 -0.1673  0.7030
  231MOL    C3041890   7.743   5.710   4.691 -0.0960  0.0233  0.0709
  231MOL    C3141891   7.800   5.674   4.828 -1.2036  0.5413  0.0953
  231MOL    O3241892   0.033   5.728   4.890  1.1974 -0.6225  0.2421
  231MOL    O3341893   7.740   5.571   4.886 -0.2363 -0.7059 -0.2632
  231MOL    H3441894   0.079   5.789   4.661 -1.2216  0.5664  2.8629
  231MOL    H3541895   0.032   5.666   4.548  1.7500  1.3826 -1.2075
  231MOL    H3641896   7.692   5.803   4.717  0.3570  0.5163 -0.7668
  231MOL    H3741897   7.786   5.561   4.968  1.1034  1.1660 -0.7551
  231MOL    C3841898   7.645   5.611   4.636 -0.1367 -0.4726 -0.3196
  231MOL    C3941899   7.510   5.664   4.582 -0.1411  0.3946  0.3190
  231MOL    C4041900   7.421   5.706   4.708  0.0590  0.5786  0.0923
  231MOL    O4141901   7.394   5.818   4.733  0.1736  0.2768 -0.0463
  231MOL    O4241902   7.376   5.596   4.780 -0.2278 -0.5586  0.7021
  231MOL    H4341903   7.625   5.524   4.699  2.4926 -0.3235  0.8245
  231MOL    H4441904   7.692   5.564   4.549  0.4797  0.6971 -0.6294
  231MOL    H4541905   7.538   5.753   4.526  1.9890 -0.6023 -0.2764
  231MOL    H4641906   7.324   5.629   4.852 -0.6797 -0.9112  0.5397
  231MOL    C4741907   7.442   5.556   4.490 -0.0400  0.3489  0.4220
  231MOL    C4841908   7.351   5.612   4.379  0.4623  0.1154 -0.5689
  231MOL    C4941909   7.205   5.561   4.405  0.2213 -0.1700 -0.1906
  231MOL    O5041910   7.164   5.450   4.367  0.2836 -0.0872  0.6361
  231MOL    O5141911   7.144   5.643   4.491  0.2643  0.3314  0.0634
  231MOL    H5241912   7.388   5.484   4.550  3.5980 -1.0849  2.1291
  231MOL    H5341913   7.515   5.485   4.452 -0.9837  0.6539 -2.0770
  231MOL    H5441914   7.352   5.721   4.389 -1.2912  0.0430  0.5270
  231MOL    H5541915   7.056   5.614   4.508  0.3230  0.4291  0.5467
  231MOL    C5641916   7.409   5.576   4.241 -0.4070 -0.0327  0.2306
  231MOL    C5741917   7.361   5.636   4.110  0.7628 -0.5493  0.5315
  231MOL    C5841918   7.218   5.585   4.077 -0.6663  1.1191  0.0220
  231MOL    O5941919   7.212   5.479   4.006  0.3106  0.1407 -0.1810
  231MOL    O6041920   7.114   5.649   4.126  0.1532 -0.2755 -0.1748
  231MOL    H6141921   7.401   5.468   4.227 -1.2690  0.0286  0.2022
  231MOL    H6241922   7.515   5.600   4.242 -0.7547  1.6630 -1.1021
  231MOL    H6341923   7.361   5.745   4.106 -0.0401 -0.5879 -1.4617
  231MOL    H6441924   7.033   5.630   4.080  0.8508 -1.1762 -1.0387
  231MOL    C6541925   7.460   5.595   4.002 -0.7130 -0.4328 -0.2847
  231MOL    C6641926   7.437   5.632   3.850  0.0045 -1.0607  0.1556
  231MOL    C6741927   7.554   5.580   3.765  0.2975  0.2623  0.5506
  231MOL    O6841928   7.645   5.655   3.726  0.0379  0.2075  0.1634
  231MOL    O6941929   7.566   5.441   3.751  0.2145  0.4057  0.2904
  231MOL    H7041930   7.485   5.490   4.014 -2.9062 -1.5311 -4.2508
  231MOL    H7141931   7.555   5.643   4.027  0.3635 -1.9610 -1.3358
  231MOL    H7241932   7.348   5.584   3.811 -0.0460 -1.3215  0.5811
  231MOL    H7341933   7.650   5.415   3.716  0.4083  0.1911  0.8954
  231MOL    C7441934   7.416   5.793   3.831  0.6089  0.8529  0.5406
  231MOL    C7541935   7.275   5.843   3.851 -0.1022 -0.3333 -0.0607
  231MOL    C7641936   7.173   5.788   3.751  0.1215 -0.3986 -0.1866
  231MOL    O7741937   7.200   5.744   3.637 -0.2706  0.7283  0.3445
  231MOL    O7841938   7.048   5.772   3.811  0.0056 -0.4273 -0.0758
  231MOL    H7941939   7.452   5.816   3.730 -3.1826 -0.5579 -1.2377
  231MOL    H8041940   7.490   5.834   3.899 -0.1796 -0.0660  1.9739
  231MOL    H8141941   7.246   5.807   3.949 -1.9065 -0.8487 -0.7552
  231MOL    H8241942   7.001   5.714   3.754  2.1670 -0.7553 -1.5796
  231MOL    C8341943   7.261   6.001   3.852  0.6155  0.6216 -0.2905
  231MOL    C8441944   7.308   6.078   3.978  0.1320  0.0687  0.6135
  231MOL    C8541945   7.471   6.086   3.996  0.2930 -0.4768  0.4405
  231MOL    O8641946   7.536   6.081   4.100 -0.8204  0.1456  0.3917
  231MOL    O8741947   7.528   6.103   3.877  0.4610 -0.3188  0.3587
  231MOL    H8841948   7.155   6.023   3.841  0.0280 -1.2780  1.1924
  231MOL    H8941949   7.299   6.038   3.757 -1.0223  1.1151 -0.7613
  231MOL    H9041950   7.265   6.175   3.954 -0.1686 -0.3058 -0.3792
  231MOL    H9141951   7.621   6.090   3.884  0.5074 -0.0457  0.2689
  231MOL    C9241952   7.240   6.038   4.106 -0.2008  0.3715 -0.3310
  231MOL    C9341953   7.088   6.054   4.122  0.4556 -0.4995  0.1103
  231MOL    C9441954   7.044   6.203   4.135  0.0305 -0.0108  0.2140
  231MOL    O9541955   6.979   6.259   4.050 -0.3268  0.5436  0.0673
  231MOL    O9641956   7.085   6.260   4.250  0.2534  0.0132  0.2881
  231MOL    H9741957   7.298   6.093   4.181 -0.8075  0.7156 -0.1157
  231MOL    H9841958   7.280   5.938   4.121  2.0936  1.5353  1.7460
  231MOL    H9941959   7.048   6.020   4.026 -2.9754  2.7212  0.2887
  231MOL   H10041960   7.148   6.203   4.291  1.0957 -0.1222 -1.1628
  231MOL   C10141961   7.020   5.958   4.225  0.0588 -0.5242  0.9736
  231MOL   C10241962   6.863   5.947   4.221  0.6979  0.0270  1.0777
  231MOL   C10341963   6.804   5.844   4.324 -0.1044 -0.4322  0.3959
  231MOL   O10441964   6.731   5.875   4.416  0.2228 -0.3113  0.1257
  231MOL   O10541965   6.834   5.716   4.283 -0.6892  0.1774  0.1898
  231MOL   H10641966   7.049   5.977   4.328 -0.6746 -0.6625  1.2084
  231MOL   H10741967   7.062   5.859   4.207 -2.4804 -1.2118 -1.6197
  231MOL   H10841968   6.829   6.043   4.259  0.1905 -0.6305  2.2973
  231MOL   H10941969   6.788   5.656   4.340  1.8598  0.7472  2.9190
  231MOL   C11041970   6.803   5.927   4.073  0.5661  0.8566  0.5313
  231MOL   C11141971   6.655   5.885   4.049  0.4092  0.7510 -0.1287
  231MOL   C11241972   6.630   5.862   3.900  0.4868 -0.0858  0.0351
  231MOL   O11341973   6.666   5.940   3.809  0.4155 -0.1583 -0.2772
  231MOL   O11441974   6.563   5.746   3.873 -0.1780 -0.2374 -0.0799
  231MOL   H11541975   6.868   5.868   4.009  0.1273  0.9104  0.0275
  231MOL   H11641976   6.808   6.028   4.031 -0.1231  0.2015 -1.1827
  231MOL   H11741977   6.640   5.795   4.109  1.7250  0.0618 -0.7942
  231MOL   H11841978   6.550   5.726   3.782 -2.0197 -3.4163  0.8003
  231MOL   C11941979   6.552   5.985   4.106  0.5152  0.5578 -0.5603
  231MOL   C12041980   6.397   5.939   4.122 -0.4734  0.5174 -0.1392
  231MOL   C12141981   6.310   5.950   3.999  0.4170  0.3521  0.4160
  231MOL   O12241982   6.261   5.845   3.946  0.1908 -0.2220  0.4953
  231MOL   O12341983   6.302   6.074   3.939  0.4538  0.2337  1.1957
  231MOL   H12441984   6.560   6.075   4.045  1.8611 -1.4813 -3.4970
  231MOL   H12541985   6.587   6.014   4.205  0.9739 -1.7707 -0.0329
  231MOL   H12641986   6.398   5.834   4.150 -2.4308  0.2784 -0.9103
  231MOL   H12741987   6.260   6.064   3.855 -1.1209  0.6216  1.9361
  231MOL   C12841988   6.326   6.030   4.231  0.5460  0.1672 -0.1315
  231MOL   C12941989   6.266   5.946   4.353  0.1721 -0.0324 -0.4346
  231MOL   C13041990   6.368   5.856   4.429 -0.1112  0.9315 -0.3287
  231MOL   O13141991   6.403   5.738   4.403 -0.3352  0.3950 -0.1667
  231MOL   O13241992   6.429   5.927   4.527 -0.4118 -0.6512 -0.4276
  231MOL   H13341993   6.257   6.105   4.194 -0.3497 -0.2312  0.6970
  231MOL   H13441994   6.405   6.094   4.272  0.3713 -0.1079  0.6505
  231MOL   H13541995   6.232   6.020   4.425  1.6636 -0.6987  1.0008
  231MOL   H13641996   6.485   5.874   4.583  0.9337  1.9053  0.7298
  231MOL   C13741997   6.142   5.857   4.306  0.1075 -0.7431  0.6558
  231MOL   C13841998   6.023   5.934   4.230  0.2315  0.2070 -0.2722
  231MOL   C13941999   5.932   6.002   4.334  0.4509 -0.4414  0.5181
  231MOL   O14042000   5.836   5.944   4.396 -0.4953 -0.3451 -0.5968
  231MOL   O14142001   5.954   6.135   4.335  0.3862 -0.9637  0.0836
  231MOL   H14242002   6.113   5.798   4.393  0.1102  0.9089  1.7982
  231MOL   H14342003   6.179   5.778   4.241 -0.1719  0.9459 -1.6053
  231MOL   H14442004   6.057   6.001   4.152 -1.5243  1.3775 -0.0852
  231MOL   H14542005   5.893   6.182   4.391 -0.0153  1.0592 -1.9685
  231MOL   C14642006   5.944   5.833   4.143 -0.3620 -0.6286 -0.2857
  231MOL   C14742007   5.866   5.919   4.034 -0.0742 -0.2193  0.4937
  231MOL   C14842008   5.728   5.859   4.008 -0.6122  0.4947 -0.6191
  231MOL   O14942009   5.623   5.919   4.027  0.2678 -0.3592  1.1017
  231MOL   O15042010   5.734   5.725   3.975  0.0372 -0.0139  0.8135
  231MOL   H15142011   5.889   5.765   4.208  1.6210 -2.5983 -0.6121
  231MOL   H15242012   6.004   5.760   4.088 -0.9703 -1.7621  0.5225
  231MOL   H15342013   5.849   6.014   4.085  0.9647  0.7071 -0.8793
  231MOL   H15442014   5.646   5.700   3.949 -0.4538  0.6804  1.7517
  231MOL   C15542015   5.945   5.940   3.904 -0.0922 -0.7417 -0.0819
  231MOL   C15642016   5.883   6.032   3.793 -0.0709  0.3619 -0.2861
  231MOL   C15742017   5.975   6.014   3.671  0.1021 -0.3826 -0.5799
  231MOL   O15842018   6.094   6.045   3.674 -0.4104 -0.1176 -0.1075
  231MOL   O15942019   5.911   5.951   3.568  0.0864 -0.7460 -0.4083
  231MOL   H16042020   5.976   5.846   3.858 -1.4725 -1.4826  0.4604
  231MOL   H16142021   6.038   5.990   3.929 -1.7201  2.5573 -0.2592
  231MOL   H16242022   5.781   6.000   3.776  0.6231 -0.5907 -2.7964
  231MOL   H16342023   5.972   5.970   3.497  1.9655 -2.0907  0.7817
  231MOL   C16442024   5.891   6.177   3.845  0.1234  0.0228 -0.3979
  231MOL   C16542025   5.791   6.275   3.778 -0.0406  1.0835 -1.1020
  231MOL   C16642026   5.858   6.412   3.765  0.3547  0.0904  0.1042
  231MOL   O16742027   5.900   6.445   3.657 -0.7375 -0.0180  0.1191
  231MOL   O16842028   5.866   6.492   3.876  0.2058 -0.3267  0.9587
  231MOL   H16942029   5.992   6.217   3.841  0.2391 -0.3048 -0.9241
  231MOL   H17042030   5.865   6.165   3.950  1.1930 -1.4010 -0.2757
  231MOL   H17142031   5.787   6.255   3.671  1.1016  0.9041 -1.1190
  231MOL   H17242032   5.815   6.473   3.954 -2.0278  1.3605 -0.0342
  231MOL   C17342033   5.640   6.281   3.829  0.2387  0.2113  0.5324
  231MOL   C17442034   5.550   6.391   3.780  0.3102  0.1878 -0.1865
  231MOL   C17542035   5.494   6.353   3.639 -0.4086  0.5517  0.7584
  231MOL   O17642036   5.407   6.267   3.636  0.4020  0.3851  0.3491
  231MOL   O17742037   5.565   6.404   3.534  0.1439 -0.3301 -0.0371
  231MOL   H17842038   5.656   6.290   3.937  0.3514 -1.1196  0.6368
  231MOL   H17942039   5.591   6.184   3.816 -0.1404  0.6559 -1.4947
  231MOL   H18042040   5.466   6.410   3.847  1.6548  1.0263  1.3149
  231MOL   H18142041   5.626   6.470   3.563 -0.4673 -0.0613  0.6416
  231MOL   H18242042   5.597   6.490   3.777 -2.3568  1.4717 -2.2027
  232MOL     C142043   5.128   5.646   1.345  0.2540 -0.5715 -0.1659
  232MOL     C242044   5.208   5.760   1.417 -1.0661  0.4753  0.1722
  232MOL     C342045   5.320   5.702   1.511  0.7083 -0.1010  0.4926
  232MOL     O442046   5.436   5.735   1.494  0.0753  0.4264 -0.2789
  232MOL     O542047   5.264   5.622   1.607  0.2232 -0.6575  0.1872
  232MOL     H642048   5.191   5.588   1.279  1.7400 -1.6493  2.1293
  232MOL     H742049   5.091   5.587   1.429  0.9425  0.1968  0.6880
  232MOL     H842050   5.253   5.815   1.335 -1.8155 -0.7575 -1.0955
  232MOL     H942051   5.332   5.572   1.650  2.0655  0.1842 -1.6430
  232MOL    H1042052   5.053   5.692   1.281 -0.3429 -2.0305 -0.5441
  232MOL    C1142053   5.123   5.869   1.478 -0.1652 -0.2635 -0.5130
  232MOL    C1242054   5.170   6.008   1.513  0.1945  0.1086  0.0719
  232MOL    C1342055   5.196   6.084   1.382  0.0812  0.3777  0.0624
  232MOL    O1442056   5.310   6.105   1.345 -0.3836 -0.1328 -0.2005
  232MOL    O1542057   5.086   6.108   1.304 -0.5439 -0.3241 -0.2745
  232MOL    H1642058   5.079   5.842   1.574 -0.9731  0.5098 -0.6577
  232MOL    H1742059   5.035   5.883   1.415  1.1910 -1.6106 -2.7401
  232MOL    H1842060   5.084   6.054   1.561  0.0269  1.9027 -1.8783
  232MOL    H1942061   5.124   6.154   1.230  0.5008 -0.5680  0.1104
  232MOL    C2042062   5.280   6.015   1.631  0.5415 -0.0423  0.7930
  232MOL    C2142063   5.316   6.161   1.673 -0.6346  0.2990 -1.0506
  232MOL    C2242064   5.463   6.199   1.635  0.7073  0.7743  0.6344
  232MOL    O2342065   5.540   6.241   1.722  0.2434  0.4385  0.0350
  232MOL    O2442066   5.495   6.201   1.503  0.3002  0.3705 -0.2308
  232MOL    H2542067   5.366   5.960   1.592 -0.7778 -0.9875 -0.8562
  232MOL    H2642068   5.257   5.955   1.719 -2.3227 -0.7489 -0.4061
  232MOL    H2742069   5.253   6.231   1.619 -1.6827 -1.0023 -1.5388
  232MOL    H2842070   5.432   6.154   1.450 -0.2637 -0.4923  1.1944
  232MOL    C2942071   5.281   6.186   1.821  0.0001 -0.4958 -0.0361
  232MOL    C3042072   5.140   6.160   1.877 -0.4462 -0.6125 -0.6941
  232MOL    C3142073   5.030   6.250   1.813 -0.4393 -1.0454  1.1634
  232MOL    O3242074   4.906   6.220   1.822 -0.8052  0.2311 -0.8455
  232MOL    O3342075   5.080   6.371   1.770 -0.2148 -0.1748  0.1054
  232MOL    H3442076   5.312   6.287   1.849 -0.8818 -0.2173 -0.0542
  232MOL    H3542077   5.351   6.130   1.884  0.3544  1.2007  1.1085
  232MOL    H3642078   5.098   6.062   1.854 -1.8249 -0.3985  0.7867
  232MOL    H3742079   5.013   6.435   1.752 -0.6648 -1.0274 -1.3383
  232MOL    C3842080   5.130   6.177   2.029  0.4683  0.1706 -0.5760
  232MOL    C3942081   5.034   6.069   2.085  0.2414  0.5672  0.1217
  232MOL    C4042082   4.921   6.142   2.161  0.3772 -0.6155 -0.3004
  232MOL    O4142083   4.930   6.187   2.275 -0.1256  0.0127  0.5134
  232MOL    O4242084   4.813   6.155   2.087  0.9397  0.3621 -0.1730
  232MOL    H4342085   5.097   6.273   2.066  0.5205 -0.0887  0.1479
  232MOL    H4442086   5.231   6.159   2.066 -0.0288  0.7080  1.1049
  232MOL    H4542087   4.984   6.008   2.009 -0.5127 -0.9838  1.8399
  232MOL    H4642088   4.735   6.182   2.134  0.2747  0.2303 -1.1815
  232MOL    C4742089   5.110   5.966   2.172 -0.4471  0.5029 -0.7471
  232MOL    C4842090   5.189   5.861   2.084  0.1363 -0.0822 -0.7250
  232MOL    C4942091   5.098   5.764   2.004 -0.6700 -0.8583 -0.0337
  232MOL    O5042092   4.976   5.747   2.034 -0.5341  0.0587  0.3007
  232MOL    O5142093   5.163   5.699   1.909  0.1764  0.0324 -0.4577
  232MOL    H5242094   5.035   5.917   2.234  0.0080 -0.9314 -1.3117
  232MOL    H5342095   5.178   6.027   2.231 -2.2352  1.0704  0.8049
  232MOL    H5442096   5.232   5.923   2.006 -1.0543  2.2318  0.3952
  232MOL    H5542097   5.099   5.654   1.856 -0.4393  0.2374  0.1064
  232MOL    C5642098   5.290   5.775   2.163 -0.5551 -0.2888  0.6832
  232MOL    C5742099   5.247   5.649   2.252 -0.4613 -0.8595 -0.2217
  232MOL    C5842100   5.166   5.686   2.373  0.3526  0.2364  0.0471
  232MOL    O5942101   5.059   5.637   2.397 -0.2313  0.5312 -0.3856
  232MOL    O6042102   5.217   5.794   2.435  0.1611  0.0105 -0.4887
  232MOL    H6142103   5.341   5.839   2.235 -2.5242 -0.6329  2.4789
  232MOL    H6242104   5.360   5.734   2.091 -0.8972 -1.3221  0.9264
  232MOL    H6342105   5.205   5.573   2.186  2.7292 -1.1072 -2.0601
  232MOL    H6442106   5.163   5.826   2.505  0.4480  0.8687 -0.6456
  232MOL    C6542107   5.378   5.575   2.297  1.0578 -0.5079 -0.3256
  232MOL    C6642108   5.374   5.458   2.399  0.6116 -0.3951 -0.2383
  232MOL    C6742109   5.514   5.406   2.440 -0.3721  0.2919 -0.1034
  232MOL    O6842110   5.546   5.291   2.413  0.1450  0.3544  0.1571
  232MOL    O6942111   5.594   5.505   2.486 -0.0580 -0.1908  0.0579
  232MOL    H7042112   5.448   5.653   2.328 -1.1760  1.4427  0.0165
  232MOL    H7142113   5.423   5.534   2.207  0.0021 -0.2748 -0.9631
  232MOL    H7242114   5.333   5.492   2.494 -0.0967 -0.5274 -0.4942
  232MOL    H7342115   5.675   5.462   2.508 -0.7458 -2.1780 -1.1612
  232MOL    C7442116   5.284   5.343   2.349 -0.5191 -0.1164 -1.3478
  232MOL    C7542117   5.232   5.250   2.468  0.1685 -0.0726 -0.6190
  232MOL    C7642118   5.169   5.120   2.404 -0.0361 -0.4203  0.3121
  232MOL    O7742119   5.195   5.008   2.438  0.1131  0.3013 -0.9032
  232MOL    O7842120   5.071   5.154   2.313  0.0720  0.0045  0.6579
  232MOL    H7942121   5.320   5.292   2.260  0.2477 -0.4447 -0.8501
  232MOL    H8042122   5.188   5.379   2.312  0.6461  2.8578 -1.6189
  232MOL    H8142123   5.323   5.215   2.517  0.9364 -0.3901 -2.2290
  232MOL    H8242124   5.027   5.072   2.293  0.1829 -0.0113  0.4838
  232MOL    C8342125   5.132   5.319   2.569  0.0539  0.6439  0.2303
  232MOL    C8442126   5.177   5.310   2.713  0.5674  0.2694 -0.0014
  232MOL    C8542127   5.310   5.383   2.742  0.0904 -0.7803  0.1079
  232MOL    O8642128   5.418   5.332   2.756 -0.3732  0.6188 -0.2193
  232MOL    O8742129   5.282   5.515   2.739  0.2815 -0.5432  0.1590
  232MOL    H8842130   5.040   5.259   2.563  0.6222 -0.4474  1.8594
  232MOL    H8942131   5.105   5.421   2.542  0.5941  0.7404  0.0540
  232MOL    H9042132   5.102   5.356   2.777  0.1477  1.1459 -1.0928
  232MOL    H9142133   5.355   5.574   2.754 -0.1750  0.3357 -0.9503
  232MOL    C9242134   5.191   5.153   2.752 -0.2499 -0.0360 -0.6203
  232MOL    C9342135   5.050   5.091   2.790 -0.2303  0.0113 -0.0643
  232MOL    C9442136   4.982   5.170   2.900 -0.2579 -0.5157 -0.3302
  232MOL    O9542137   4.887   5.244   2.881  0.6320 -0.1266  0.2705
  232MOL    O9642138   5.022   5.131   3.026  0.1122 -0.1061  0.2140
  232MOL    H9742139   5.249   5.157   2.844 -1.6804  2.0791  0.2045
  232MOL    H9842140   5.245   5.093   2.679 -1.0077 -0.8516 -0.5183
  232MOL    H9942141   4.986   5.094   2.701 -0.4550 -1.6922  0.0357
  232MOL   H10042142   4.993   5.185   3.097 -1.3424  0.7504 -1.0028
  232MOL   C10142143   5.077   4.939   2.828  0.1110  0.3262  0.5549
  232MOL   C10242144   4.954   4.839   2.827  0.3879  0.2255 -0.0448
  232MOL   C10342145   4.866   4.855   2.708  0.3113 -0.0607 -1.2578
  232MOL   O10442146   4.740   4.869   2.713 -0.0472  0.3946  0.3112
  232MOL   O10542147   4.932   4.836   2.591  0.2509 -0.1403  0.0606
  232MOL   H10642148   5.125   4.944   2.926  2.4498  1.5972 -0.6107
  232MOL   H10742149   5.154   4.897   2.764 -0.2720  0.6236 -0.0999
  232MOL   H10842150   4.998   4.739   2.816 -1.6333 -0.6517 -0.4541
  232MOL   H10942151   4.883   4.865   2.516  2.7786 -0.6559 -1.8341
  232MOL   C11042152   4.875   4.852   2.960 -0.2036 -0.2136  0.1362
  232MOL   C11142153   4.945   4.795   3.083 -0.8765  0.6325  0.1853
  232MOL   C11242154   4.992   4.649   3.072 -0.8645  0.4216 -0.0767
  232MOL   O11342155   4.920   4.549   3.091 -0.6020 -0.1591  0.7766
  232MOL   O11442156   5.118   4.633   3.030  0.2600 -0.3831  0.1267
  232MOL   H11542157   4.788   4.788   2.950  0.9099 -1.8478  0.6489
  232MOL   H11642158   4.832   4.952   2.972 -2.6074 -1.2653  0.4378
  232MOL   H11742159   5.026   4.864   3.104  1.4987 -1.5322 -1.4930
  232MOL   H11842160   5.147   4.543   3.020 -2.3037 -1.0939 -1.5795
  232MOL   C11942161   4.842   4.806   3.205 -0.2698 -0.2554  0.1159
  232MOL   C12042162   4.830   4.954   3.254 -0.0630  0.7663  0.0359
  232MOL   C12142163   4.917   4.986   3.379  0.0546  0.1695  0.6050
  232MOL   O12242164   4.874   4.974   3.492 -0.1741  0.5703  0.7729
  232MOL   O12342165   5.040   5.019   3.343 -0.4556  0.3435  0.6573
  232MOL   H12442166   4.875   4.737   3.283  0.1164  0.2999  0.4501
  232MOL   H12542167   4.748   4.764   3.170  0.2640  2.6378 -5.2995
  232MOL   H12642168   4.877   5.016   3.178  1.3973 -1.8512 -1.2875
  232MOL   H12742169   5.088   5.050   3.418  0.1067 -1.2455  0.9483
  232MOL   C12842170   4.679   5.002   3.274 -0.1043  0.2156 -0.3059
  232MOL   C12942171   4.628   5.126   3.194  0.3440  0.0121 -0.8176
  232MOL   C13042172   4.713   5.255   3.196 -0.4760  0.4022 -0.4159
  232MOL   O13142173   4.821   5.275   3.256  0.2367  0.0248  0.4162
  232MOL   O13242174   4.658   5.346   3.111 -0.3267  0.3377 -0.2038
  232MOL   H13342175   4.655   5.033   3.376 -1.6469  1.0044 -0.8989
  232MOL   H13442176   4.614   4.921   3.242  0.8642 -1.0994  0.9754
  232MOL   H13542177   4.645   5.091   3.093  1.5908 -0.4796 -0.4539
  232MOL   H13642178   4.705   5.426   3.126 -0.9018  1.0658 -2.1716
  232MOL   C13742179   4.482   5.167   3.235 -0.3675  0.2494  0.2893
  232MOL   C13842180   4.363   5.079   3.199 -0.4732  0.1445 -0.0285
  232MOL   C13942181   4.328   4.973   3.314 -0.6483  0.2012  0.4258
  232MOL   O14042182   4.384   4.958   3.423  0.5219  0.3906 -0.6942
  232MOL   O14142183   4.223   4.888   3.277 -0.2824  0.0480  0.5383
  232MOL   H14242184   4.452   5.259   3.187  0.9588  0.4359 -0.2124
  232MOL   H14342185   4.481   5.184   3.342  0.5328 -2.0832  0.7215
  232MOL   H14442186   4.275   5.143   3.195  0.5940  1.6337 -0.4282
  232MOL   H14542187   4.206   4.824   3.344 -0.4778 -1.2366 -0.7134
  232MOL   C14642188   4.369   5.018   3.051  0.1757 -0.4165  0.0686
  232MOL   C14742189   4.387   5.119   2.937  0.7361 -0.5950 -0.5138
  232MOL   C14842190   4.280   5.225   2.925 -0.4088  0.3159 -0.1416
  232MOL   O14942191   4.173   5.210   2.863  0.4144  0.0813  0.1304
  232MOL   O15042192   4.316   5.336   2.993 -0.4455 -0.3848 -0.2092
  232MOL   H15142193   4.282   4.955   3.031  0.2074 -0.4412  0.0079
  232MOL   H15242194   4.457   4.955   3.056  0.1911 -0.3287  1.0962
  232MOL   H15342195   4.484   5.166   2.953  1.2786 -2.0397  0.5013
  232MOL   H15442196   4.257   5.407   2.975 -1.5062 -1.9752 -3.3571
  232MOL   C15542197   4.411   5.037   2.806  0.1412 -0.5640  0.1739
  232MOL   C15642198   4.438   5.121   2.677  0.4029  0.2120  0.2360
  232MOL   C15742199   4.426   5.024   2.561  0.0068  0.8491 -0.1347
  232MOL   O15842200   4.353   5.047   2.461 -0.4354 -0.3394 -0.0694
  232MOL   O15942201   4.503   4.919   2.573 -0.3650 -0.0021  0.3564
  232MOL   H16042202   4.327   4.967   2.802  0.2574 -0.7065  0.2380
  232MOL   H16142203   4.492   4.965   2.817  0.4919 -0.6431 -2.5117
  232MOL   H16242204   4.368   5.203   2.661 -0.6436 -1.2380 -2.9671
  232MOL   H16342205   4.483   4.853   2.508 -0.1743 -0.0430  0.3389
  232MOL   C16442206   4.576   5.191   2.673  0.6540 -0.1386  0.0632
  232MOL   C16542207   4.625   5.250   2.542 -0.2605 -0.2262 -0.0854
  232MOL   C16642208   4.708   5.154   2.459 -0.8548  0.8539  0.6270
  232MOL   O16742209   4.823   5.126   2.493 -0.0320 -0.2298 -0.5166
  232MOL   O16842210   4.660   5.099   2.345 -0.2518 -0.1915  0.0315
  232MOL   H16942211   4.642   5.116   2.717  0.4835  0.9215  2.1872
  232MOL   H17042212   4.574   5.272   2.745  0.6289  0.8516 -1.0363
  232MOL   H17142213   4.540   5.279   2.480 -0.6816 -2.2700 -0.5038
  232MOL   H17242214   4.724   5.037   2.312 -2.2822 -1.6429 -1.3279
  232MOL   C17342215   4.716   5.372   2.561 -0.2167 -0.5222 -0.6925
  232MOL   C17442216   4.638   5.506   2.599  0.0562  0.6094 -0.5884
  232MOL   C17542217   4.741   5.616   2.617 -0.3726  0.0380 -0.1861
  232MOL   O17642218   4.791   5.651   2.721  0.3471 -0.1990 -0.1087
  232MOL   O17742219   4.774   5.670   2.496  0.4253 -0.9216  0.0036
  232MOL   H17842220   4.790   5.383   2.481  0.9347 -0.6942  0.3386
  232MOL   H17942221   4.780   5.345   2.644  1.7986  1.6004 -1.5135
  232MOL   H18042222   4.561   5.533   2.527  0.8575  0.0469 -1.6625
  232MOL   H18142223   4.735   5.621   2.425  0.6878 -0.2894 -0.5800
  232MOL   H18242224   4.602   5.495   2.702 -0.7589  0.2010 -0.9086
  233MOL     C142225   5.459   6.825   0.056  0.1750 -0.2777  0.1264
  233MOL     C242226   5.497   6.948   7.839  0.2862 -0.0539  0.4520
  233MOL     C342227   5.383   7.050   7.846 -0.1486  0.0956  0.3977
  233MOL     O442228   5.267   7.023   7.851  0.2082 -0.0109 -0.3252
  233MOL     O542229   5.435   7.179   7.838  0.1725  0.5092 -0.3425
  233MOL     H642230   5.383   6.768   0.003  1.0204 -0.2866 -1.1114
  233MOL     H742231   5.545   6.760   0.077 -1.3855 -1.7552  2.0850
  233MOL     H842232   5.588   6.994   0.022  1.1020 -1.1549 -0.1611
  233MOL     H942233   5.361   7.238   7.841  0.0716  0.3392  0.8208
  233MOL    H1042234   5.425   6.848   0.156 -1.7639  0.0582 -0.5841
  233MOL    C1142235   5.525   6.923   7.690  0.2774 -0.0064 -0.4665
  233MOL    C1242236   5.677   6.901   7.651  0.2103 -0.5140  0.0855
  233MOL    C1342237   5.690   6.909   7.495  0.1569  0.0633  0.0291
  233MOL    O1442238   5.601   6.924   7.415  0.0812 -0.6291 -0.4663
  233MOL    O1542239   5.818   6.912   7.452  0.1017  0.1319  0.3190
  233MOL    H1642240   5.479   7.005   7.634 -1.2265 -0.7040 -0.2854
  233MOL    H1742241   5.476   6.831   7.657  0.0243 -0.7017  1.7605
  233MOL    H1842242   5.751   6.968   7.695  0.2853 -0.6124  0.1109
  233MOL    H1942243   5.821   6.895   7.359  1.1760 -1.6939  0.6667
  233MOL    C2042244   5.740   6.764   7.696 -0.1204  0.6534  0.1960
  233MOL    C2142245   5.896   6.775   7.719 -0.1309  0.1184 -0.2751
  233MOL    C2242246   5.968   6.678   7.625 -0.4309 -0.7301  0.3261
  233MOL    O2342247   5.917   6.567   7.601  0.3273 -0.3487  0.1794
  233MOL    O2442248   6.092   6.713   7.568  0.2957  0.1689 -0.5853
  233MOL    H2542249   5.709   6.692   7.620  1.1769  1.0589 -0.7266
  233MOL    H2642250   5.693   6.728   7.788  1.1180 -1.9674 -0.1461
  233MOL    H2742251   5.938   6.867   7.678 -2.3718  0.7483 -1.1843
  233MOL    H2842252   6.113   6.645   7.505 -0.8632 -0.9216  0.1791
  233MOL    C2942253   5.940   6.769   0.018  0.1009 -0.8404  0.1115
  233MOL    C3042254   6.091   6.788   0.054 -0.6546 -0.1573  0.0321
  233MOL    C3142255   6.115   6.755   0.199 -0.2481  0.9014 -0.1573
  233MOL    O3242256   6.175   6.835   0.276  0.4528 -0.4616  0.5214
  233MOL    O3342257   6.097   6.621   0.232 -0.0016 -0.0251 -0.1220
  233MOL    H3442258   5.917   6.668   0.052 -1.1380 -0.0055  1.8286
  233MOL    H3542259   5.886   6.836   0.085  2.3843  0.3013  0.8770
  233MOL    H3642260   6.149   6.706   0.010 -1.3016 -1.4972  1.6209
  233MOL    H3742261   6.118   6.594   0.320 -1.4299 -1.3220 -0.1386
  233MOL    C3842262   6.166   6.917   0.013  0.6819  0.3093 -0.8421
  233MOL    C3942263   6.114   7.057   0.066 -0.1647 -0.6931  0.0539
  233MOL    C4042264   5.986   7.094   7.843  0.3500  0.7148 -0.0885
  233MOL    O4142265   5.983   7.110   7.718 -0.2859 -0.0224  0.3350
  233MOL    O4242266   5.875   7.118   0.069 -0.0727 -0.0225 -0.5634
  233MOL    H4342267   6.169   6.927   7.757 -1.3419 -1.6880 -1.1075
  233MOL    H4442268   6.270   6.910   0.043  0.3183  0.9963  0.6245
  233MOL    H4542269   6.094   7.055   0.173 -2.1336 -1.7346 -0.3027
  233MOL    H4642270   5.807   7.147   0.009  2.0095  1.4671 -2.2707
  233MOL    C4742271   6.224   7.166   0.052  0.2600  0.7810  0.6426
  233MOL    C4842272   6.218   7.292   0.148 -0.7682 -0.0885 -0.2513
  233MOL    C4942273   6.112   7.390   0.123 -0.7274  0.4034  0.0121
  233MOL    O5042274   6.043   7.394   0.019 -0.3310 -0.0363 -0.0793
  233MOL    O5142275   6.079   7.461   0.235  0.0014  0.1097  0.0500
  233MOL    H5242276   6.228   7.192   7.799  1.7274 -3.4738 -0.4360
  233MOL    H5342277   6.318   7.119   0.079 -0.0398  0.1305  0.5521
  233MOL    H5442278   6.211   7.247   0.247  1.8949 -1.1616 -0.5048
  233MOL    H5542279   6.004   7.516   0.220  0.2784  0.8622  1.3312
  233MOL    C5642280   6.358   7.365   0.140 -0.4702 -0.9712  0.1552
  233MOL    C5742281   6.487   7.304   0.212 -0.7791  0.2076  0.3698
  233MOL    C5842282   6.610   7.262   0.123 -0.8402  0.5880 -0.4013
  233MOL    O5942283   6.654   7.146   0.111 -0.5161 -0.0937 -0.2665
  233MOL    O6042284   6.656   7.367   0.044 -0.1792 -0.0358  0.1157
  233MOL    H6142285   6.346   7.463   0.188 -0.2237 -0.7805 -0.1692
  233MOL    H6242286   6.376   7.396   0.037  0.1119 -1.7558  0.0193
  233MOL    H6342287   6.538   7.386   0.262 -1.6750  0.9572  0.0585
  233MOL    H6442288   6.712   7.332   7.830  0.1100 -0.9989  0.8580
  233MOL    C6542289   6.476   7.190   0.316 -0.4322  0.4160  0.1151
  233MOL    C6642290   6.410   7.237   0.448 -0.0576  0.0582 -0.9757
  233MOL    C6742291   6.508   7.318   0.546 -0.3111 -0.2525 -0.0491
  233MOL    O6842292   6.589   7.263   0.623 -0.4122 -0.0402 -0.1637
  233MOL    O6942293   6.468   7.450   0.560  0.7115  0.3285 -0.1218
  233MOL    H7042294   6.569   7.137   0.335 -1.3491 -1.2253  0.1333
  233MOL    H7142295   6.408   7.115   0.277 -0.8632 -0.3433  2.2207
  233MOL    H7242296   6.338   7.305   0.403 -0.3224  0.2365 -0.2829
  233MOL    H7342297   6.409   7.483   0.494  0.3505 -0.3607 -0.1481
  233MOL    C7442298   6.341   7.120   0.521  0.4692 -0.5069  0.2044
  233MOL    C7542299   6.186   7.142   0.527 -0.3648 -0.2167 -0.6118
  233MOL    C7642300   6.148   7.257   0.617 -0.5860  0.3675  0.0100
  233MOL    O7742301   6.088   7.357   0.579  0.1693 -0.0666 -0.9276
  233MOL    O7842302   6.192   7.237   0.743  1.0964  0.0366 -0.1635
  233MOL    H7942303   6.395   7.108   0.615  0.4086 -0.3255  0.2634
  233MOL    H8042304   6.353   7.020   0.479 -0.2260 -0.4340 -0.1791
  233MOL    H8142305   6.146   7.165   0.428 -0.8768  2.4867  0.1795
  233MOL    H8242306   6.179   7.312   0.800  0.5011 -0.9118  0.9771
  233MOL    C8342307   6.110   7.014   0.578 -0.2058 -0.0160 -0.5582
  233MOL    C8442308   5.957   7.017   0.562  0.3631 -0.5056 -0.9984
  233MOL    C8542309   5.880   7.058   0.687  0.6559  0.2969  0.0799
  233MOL    O8642310   5.861   7.176   0.715  0.0246  0.3165 -0.0755
  233MOL    O8742311   5.827   6.960   0.768  0.3381  0.1809  0.5093
  233MOL    H8842312   6.123   6.983   0.681  0.1098  0.3967 -0.4709
  233MOL    H8942313   6.149   6.926   0.527 -1.1033  1.1625 -3.3995
  233MOL    H9042314   5.942   7.096   0.489  1.3856  0.4652 -0.1761
  233MOL    H9142315   5.782   6.998   0.842 -0.6920 -1.0417  0.5230
  233MOL    C9242316   5.900   6.890   0.484 -0.2110  0.3381 -0.0885
  233MOL    C9342317   5.745   6.892   0.457 -0.3236  0.3147 -0.3582
  233MOL    C9442318   5.711   6.763   0.381 -0.8493  0.4547 -0.2896
  233MOL    O9542319   5.797   6.694   0.322  0.0028  0.0829  0.0278
  233MOL    O9642320   5.583   6.727   0.408 -0.3000 -0.0545  0.0409
  233MOL    H9742321   5.939   6.801   0.533  1.1773  0.7165 -0.4753
  233MOL    H9842322   5.934   6.893   0.380 -1.0710  2.0484 -0.3462
  233MOL    H9942323   5.699   6.877   0.555  2.2446 -0.4478  0.7746
  233MOL   H10042324   5.526   6.793   0.443 -0.5680 -0.8752  1.2109
  233MOL   C10142325   5.686   7.008   0.381  0.4459 -0.2781 -0.1711
  233MOL   C10242326   5.594   7.105   0.466 -0.0396  0.0101  0.1390
  233MOL   C10342327   5.472   7.039   0.513  0.1653 -0.0611 -0.0032
  233MOL   O10442328   5.445   6.924   0.480 -0.0090 -0.9076 -0.2186
  233MOL   O10542329   5.394   7.113   0.591  0.7929 -0.1683 -0.4245
  233MOL   H10642330   5.633   6.975   0.292  1.4806 -1.1418 -0.4834
  233MOL   H10742331   5.769   7.065   0.340  0.4478  0.6344  1.0724
  233MOL   H10842332   5.653   7.138   0.552  0.9178 -2.9140  0.6378
  233MOL   H10942333   5.310   7.070   0.599  1.8535 -2.6265 -1.7725
  233MOL   C11042334   5.546   7.230   0.392  0.2001  0.0001  0.2479
  233MOL   C11142335   5.649   7.329   0.340 -0.7206  0.0715 -0.8242
  233MOL   C11242336   5.744   7.377   0.447 -0.2417 -0.5717 -0.0414
  233MOL   O11342337   5.717   7.433   0.550 -0.2236 -0.3994  0.8361
  233MOL   O11442338   5.872   7.334   0.420  0.3729  0.7801  0.3042
  233MOL   H11542339   5.475   7.290   0.448  2.2392 -0.0205  2.9842
  233MOL   H11642340   5.486   7.198   0.307 -1.9751  1.1848  1.3007
  233MOL   H11742341   5.706   7.273   0.266  1.7481  0.2660  0.8814
  233MOL   H11842342   5.930   7.365   0.488  2.2210 -1.0291 -0.3651
  233MOL   C11942343   5.571   7.448   0.272 -0.1542 -0.0261  0.2271
  233MOL   C12042344   5.645   7.525   0.158  0.6656 -0.6597 -0.5142
  233MOL   C12142345   5.731   7.639   0.210 -0.5436  0.8901  0.0494
  233MOL   O12242346   5.849   7.658   0.179 -0.1917  0.2352 -0.1173
  233MOL   O12342347   5.665   7.719   0.299  0.2847  0.7344 -0.5621
  233MOL   H12442348   5.536   7.513   0.353  0.7081  0.8553 -0.0953
  233MOL   H12542349   5.474   7.417   0.234 -0.2319  1.3304 -0.7287
  233MOL   H12642350   5.704   7.453   0.102  1.3211  0.3145 -1.0966
  233MOL   H12742351   5.735   7.773   0.331  1.9554 -1.2414 -0.7976
  233MOL   C12842352   5.542   7.563   0.053  0.5251 -0.0695  0.2724
  233MOL   C12942353   5.599   7.626   7.776  0.2735  1.0116 -1.0024
  233MOL   C13042354   5.492   7.695   7.683 -0.6404 -0.8499 -0.1731
  233MOL   O13142355   5.373   7.672   7.702 -0.3637 -0.1403  0.1743
  233MOL   O13242356   5.542   7.800   7.605 -0.0710  0.5798 -0.4718
  233MOL   H13342357   5.468   7.629   0.098  0.7962 -1.3893  2.7138
  233MOL   H13442358   5.486   7.474   0.024  0.8398 -0.7574  1.7363
  233MOL   H13542359   5.665   7.707   7.807  1.3723  1.0397 -3.3024
  233MOL   H13642360   5.467   0.001   7.584  0.9595  1.3541 -2.2589
  233MOL   C13742361   5.700   7.534   7.694 -0.0096  0.0721  0.1050
  233MOL   C13842362   5.639   7.410   7.617  0.0954 -0.2450 -0.4086
  233MOL   C13942363   5.729   7.289   7.641  0.1261  0.3553 -0.4693
  233MOL   O14042364   5.711   7.216   7.737 -0.1757  0.5531  0.4241
  233MOL   O14142365   5.835   7.285   7.562 -0.6321  0.1456  0.1280
  233MOL   H14242366   5.798   7.515   7.738  0.7762  0.6494 -1.3735
  233MOL   H14342367   5.736   7.601   7.617  0.9077 -0.3908  0.1291
  233MOL   H14442368   5.545   7.387   7.667 -0.2762 -0.6284 -1.2773
  233MOL   H14542369   5.885   7.216   7.603 -0.3082  0.7049  0.7009
  233MOL   C14642370   5.610   7.430   7.471 -0.4483  0.5745  0.2931
  233MOL   C14742371   5.506   7.328   7.403 -0.5232  0.2373  0.2185
  233MOL   C14842372   5.527   7.314   7.253 -0.3030 -0.3748 -0.4045
  233MOL   O14942373   5.455   7.346   7.161 -0.3078  0.0538 -0.3570
  233MOL   O15042374   5.649   7.260   7.237 -0.0851  0.0570  0.1429
  233MOL   H15142375   5.702   7.441   7.414  0.7698 -3.4054  1.3545
  233MOL   H15242376   5.566   7.530   7.467  0.7010  1.0861  0.4860
  233MOL   H15342377   5.518   7.227   7.443 -0.7087 -0.2400 -0.8971
  233MOL   H15442378   5.673   7.255   7.146 -1.2983  0.0142 -0.1893
  233MOL   C15542379   5.364   7.388   7.438 -0.1197  0.4696 -0.0362
  233MOL   C15642380   5.242   7.289   7.425  1.3377 -0.6817  0.1959
  233MOL   C15742381   5.112   7.365   7.428  0.4504 -0.0440 -0.2655
  233MOL   O15842382   5.008   7.314   7.387 -0.5366 -0.3785  0.3420
  233MOL   O15942383   5.120   7.482   7.498 -0.3062 -0.4236  0.2941
  233MOL   H16042384   5.343   7.480   7.384 -2.1330  0.1429  0.1356
  233MOL   H16142385   5.364   7.423   7.541 -0.9447  0.5726 -0.0672
  233MOL   H16242386   5.255   7.254   7.322 -1.0073  0.8506 -0.6399
  233MOL   H16342387   5.037   7.523   7.514 -1.2305 -1.8675 -0.7242
  233MOL   C16442388   5.241   7.172   7.524  0.7482 -0.2031 -0.1336
  233MOL   C16542389   5.146   7.053   7.490 -0.1994  0.7959  0.1696
  233MOL   C16642390   5.004   7.068   7.543 -0.2058  0.1492 -0.0315
  233MOL   O16742391   4.969   7.127   7.644 -0.5544 -0.4655 -0.5952
  233MOL   O16842392   4.916   7.029   7.453 -0.6035  0.3171  0.2505
  233MOL   H16942393   5.214   7.219   7.618  0.5298  3.6607 -2.0263
  233MOL   H17042394   5.340   7.131   7.544  0.6619 -0.3811 -0.0689
  233MOL   H17142395   5.135   7.048   7.382 -0.1162  0.4445  0.1777
  233MOL   H17242396   4.835   7.050   7.497  0.6407  1.5169  2.0793
  233MOL   C17342397   5.200   6.921   7.529  0.5962 -0.7899  0.3291
  233MOL   C17442398   5.158   6.796   7.443 -0.4059 -0.0958 -0.5091
  233MOL   C17542399   5.243   6.764   7.324 -0.3593 -0.0244  0.3434
  233MOL   O17642400   5.339   6.829   7.285  0.0407 -0.4054 -0.3548
  233MOL   O17742401   5.208   6.643   7.275  0.2298  0.0241  0.5396
  233MOL   H17842402   5.177   6.899   7.633  1.3116 -0.8446  0.4720
  233MOL   H17942403   5.308   6.911   7.525  0.5026 -1.4750 -0.8925
  233MOL   H18042404   5.161   6.713   7.514 -0.5263  0.5952  0.3264
  233MOL   H18142405   5.271   6.623   7.207  1.0686  1.4571  0.8747
  233MOL   H18242406   5.053   6.805   7.414  0.1517 -0.8885 -2.8620
  234MOL     C142407   1.670   3.544   7.004 -0.4423  0.2361  0.5358
  234MOL     C242408   1.812   3.597   7.001  0.3967  0.4913 -0.1270
  234MOL     C342409   1.818   3.726   6.914  0.7295  0.2089  0.2551
  234MOL     O442410   1.879   3.736   6.804  0.5034  0.1721  0.0414
  234MOL     O542411   1.746   3.833   6.962 -0.4120 -0.2579 -0.0151
  234MOL     H642412   1.654   3.487   7.096 -1.9566 -0.8352 -0.3596
  234MOL     H742413   1.592   3.620   7.002 -0.3073  0.4041  1.6517
  234MOL     H842414   1.829   3.646   7.097  0.7299 -0.7051  0.4392
  234MOL     H942415   1.716   3.810   7.049 -2.9143  2.0795 -0.2075
  234MOL    H1042416   1.647   3.476   6.922  0.3508  0.5348  0.0640
  234MOL    C1142417   1.930   3.496   6.969 -0.4210 -0.6706  0.5232
  234MOL    C1242418   1.915   3.350   7.026 -0.2701  1.0567  0.5290
  234MOL    C1342419   1.922   3.341   7.179 -0.2267 -0.8696 -0.5019
  234MOL    O1442420   1.924   3.235   7.245  0.0136 -0.1510 -0.1556
  234MOL    O1542421   1.921   3.463   7.237  0.2500  0.2773  0.1862
  234MOL    H1642422   2.018   3.537   7.018  1.2288 -0.2233 -2.6819
  234MOL    H1742423   1.949   3.506   6.862  0.6761 -0.1459  0.7656
  234MOL    H1842424   1.815   3.310   7.009  0.2369 -1.0674  2.2408
  234MOL    H1942425   1.914   3.455   7.331 -0.8348  0.0277  0.0857
  234MOL    C2042426   2.008   3.248   6.947  0.8541  0.0360 -0.3399
  234MOL    C2142427   1.934   3.142   6.864 -0.2371 -0.3453  0.3944
  234MOL    C2242428   1.887   3.016   6.946 -0.1074  0.2270  0.9102
  234MOL    O2342429   1.775   2.969   6.934 -0.0389 -0.7953 -0.5404
  234MOL    O2442430   1.996   2.953   7.008 -0.5230  0.4754  0.0405
  234MOL    H2542431   2.090   3.207   7.006 -0.1921 -0.6299  0.6851
  234MOL    H2642432   2.064   3.307   6.875 -0.0153  1.9402  0.4948
  234MOL    H2742433   1.852   3.200   6.821  0.3246  0.1820  0.0367
  234MOL    H2842434   1.961   2.883   7.062  0.3064  1.6397  2.1347
  234MOL    C2942435   2.010   3.085   6.741  0.7041  0.3519  0.0852
  234MOL    C3042436   1.932   2.996   6.638 -0.4856  0.5318 -0.0180
  234MOL    C3142437   2.028   2.934   6.530 -0.1291 -0.0218  0.6816
  234MOL    O3242438   2.042   2.815   6.506  0.4563 -0.0794 -0.2460
  234MOL    O3342439   2.092   3.027   6.456  0.3426  0.6479 -0.9224
  234MOL    H3442440   2.099   3.035   6.779  0.3253 -1.9827 -2.0315
  234MOL    H3542441   2.050   3.164   6.678  1.5984  0.2777  0.5485
  234MOL    H3642442   1.897   2.908   6.691 -0.2336 -1.0320 -2.3750
  234MOL    H3742443   2.153   2.983   6.399 -0.7097  0.0961 -1.6396
  234MOL    C3842444   1.816   3.070   6.567 -0.0788  0.9351  0.3032
  234MOL    C3942445   1.725   2.971   6.489  0.5782 -0.2267 -0.4026
  234MOL    C4042446   1.758   2.927   6.345  0.1897 -0.2393 -0.6368
  234MOL    O4142447   1.833   2.993   6.281  0.2481  0.1085 -0.4893
  234MOL    O4242448   1.693   2.811   6.319  0.0792 -0.6187 -0.5015
  234MOL    H4342449   1.842   3.154   6.502 -0.9632  0.8327 -0.1866
  234MOL    H4442450   1.759   3.122   6.644 -1.2395  0.4193 -0.2016
  234MOL    H4542451   1.733   2.884   6.555 -0.6489 -0.5207 -0.6172
  234MOL    H4642452   1.720   2.773   6.237  0.4425 -2.4677  0.4410
  234MOL    C4742453   1.575   3.021   6.475 -0.4357 -0.2918 -0.4523
  234MOL    C4842454   1.491   2.981   6.600  0.4527 -0.2880 -0.1413
  234MOL    C4942455   1.437   2.832   6.579 -0.5126  0.7013  0.3708
  234MOL    O5042456   1.498   2.738   6.626  0.1740 -0.0252 -0.0056
  234MOL    O5142457   1.333   2.820   6.490  0.2002 -0.8121  0.4523
  234MOL    H5242458   1.526   2.966   6.395 -2.1337 -0.8352  0.9236
  234MOL    H5342459   1.570   3.123   6.440 -4.7983 -0.1723  0.2472
  234MOL    H5442460   1.560   2.974   6.684 -1.1539  0.3087  1.2698
  234MOL    H5542461   1.328   2.728   6.469 -0.8753 -0.5414 -0.5289
  234MOL    C5642462   1.389   3.096   6.636 -0.0990  0.3530 -0.3419
  234MOL    C5742463   1.448   3.197   6.735 -0.0698 -0.6488 -0.2606
  234MOL    C5842464   1.461   3.148   6.876 -0.0900 -0.6021  0.7573
  234MOL    O5942465   1.385   3.074   6.932 -0.2365 -0.4309 -0.1909
  234MOL    O6042466   1.577   3.198   6.924  0.5800  0.0165  0.3626
  234MOL    H6142467   1.308   3.050   6.692 -0.3801  1.4783  0.1917
  234MOL    H6242468   1.341   3.134   6.547  0.4638  1.1142 -0.3277
  234MOL    H6342469   1.546   3.222   6.694  0.8401 -1.4211  1.4038
  234MOL    H6442470   1.596   3.162   7.010  0.9540 -0.3648  0.1213
  234MOL    C6542471   1.365   3.332   6.719 -0.2013 -0.1969 -0.4648
  234MOL    C6642472   1.388   3.407   6.590 -0.5342  0.4230  0.1238
  234MOL    C6742473   1.536   3.428   6.550  0.2083  0.4542 -0.1947
  234MOL    O6842474   1.632   3.447   6.625 -0.2368  0.4824 -0.1185
  234MOL    O6942475   1.552   3.423   6.415  0.4448 -0.2463 -0.0618
  234MOL    H7042476   1.396   3.391   6.805  1.7080 -0.4632 -0.9591
  234MOL    H7142477   1.258   3.317   6.734 -0.7938  0.8681 -3.2738
  234MOL    H7242478   1.341   3.337   6.521 -0.4438  1.4236 -0.9761
  234MOL    H7342479   1.644   3.433   6.395  0.9904 -2.1911  1.3435
  234MOL    C7442480   1.315   3.538   6.557 -0.3387 -0.7940 -0.0181
  234MOL    C7542481   1.358   3.661   6.651  0.2441 -0.7635  0.0149
  234MOL    C7642482   1.284   3.656   6.782 -0.7646 -0.4685  0.3606
  234MOL    O7742483   1.345   3.652   6.888  0.5897 -0.4149  0.1607
  234MOL    O7842484   1.148   3.628   6.770 -0.2608  0.0711 -0.1108
  234MOL    H7942485   1.210   3.516   6.544 -0.5153  0.5160 -0.9629
  234MOL    H8042486   1.339   3.574   6.456 -0.4903 -0.9149 -0.0967
  234MOL    H8142487   1.462   3.664   6.683  0.9133 -4.1099 -1.5285
  234MOL    H8242488   1.096   3.631   6.848  0.2142 -0.0076  0.2100
  234MOL    C8342489   1.315   3.785   6.576 -0.0229 -0.0357  0.0845
  234MOL    C8442490   1.304   3.919   6.648  0.1659  0.8947  0.3047
  234MOL    C8542491   1.289   4.038   6.545 -0.7978  0.1620  0.3982
  234MOL    O8642492   1.361   4.140   6.538 -0.3312 -0.3612  0.3757
  234MOL    O8742493   1.175   4.028   6.475 -0.4872 -0.2762  0.0323
  234MOL    H8842494   1.213   3.762   6.543  0.9046 -1.0727 -2.1849
  234MOL    H8942495   1.380   3.794   6.489  0.4349  0.8836  0.5157
  234MOL    H9042496   1.216   3.919   6.712  0.9073 -2.3171  1.4628
  234MOL    H9142497   1.161   4.106   6.423 -0.0445  1.1541  2.0211
  234MOL    C9242498   1.423   3.956   6.728  0.8440  0.0211 -0.6791
  234MOL    C9342499   1.388   4.063   6.837  0.1874 -1.2024 -0.2227
  234MOL    C9442500   1.511   4.151   6.860  0.0932 -0.2968 -0.8513
  234MOL    O9542501   1.580   4.142   6.964 -0.1298 -0.5199 -0.1236
  234MOL    O9642502   1.535   4.242   6.758  0.2966  0.0505 -0.2189
  234MOL    H9742503   1.506   3.978   6.661  1.6795  1.2175  0.6932
  234MOL    H9842504   1.460   3.867   6.779  0.1260  0.8196  1.2869
  234MOL    H9942505   1.307   4.126   6.802  2.9189  2.0060 -1.0020
  234MOL   H10042506   1.492   4.214   6.679  0.3899  1.9821 -0.9944
  234MOL   C10142507   1.333   4.001   6.967  0.0180 -0.4898  0.5047
  234MOL   C10242508   1.303   4.097   7.086  0.5188 -0.0142 -0.1512
  234MOL   C10342509   1.222   4.025   7.196 -0.3243  0.0996  0.4157
  234MOL   O10442510   1.139   3.938   7.166 -0.3096 -0.1273  0.6341
  234MOL   O10542511   1.231   4.073   7.323  0.3067 -0.0911  0.2421
  234MOL   H10642512   1.402   3.926   7.006 -1.7490 -2.3026  0.2245
  234MOL   H10742513   1.249   3.937   6.940 -0.2532  0.2758 -0.4681
  234MOL   H10842514   1.403   4.108   7.129 -0.0430 -0.8833  1.4252
  234MOL   H10942515   1.286   4.149   7.311  2.3737 -1.5183  0.2405
  234MOL   C11042516   1.239   4.241   7.056  0.8960  0.5200  0.7522
  234MOL   C11142517   1.334   4.366   7.073  0.1290 -0.0016  0.1194
  234MOL   C11242518   1.390   4.380   7.215  0.2177  0.6379 -1.1561
  234MOL   O11342519   1.375   4.294   7.300 -0.6417 -0.2876 -0.1252
  234MOL   O11442520   1.455   4.498   7.241 -0.5784 -0.1303  0.4538
  234MOL   H11542521   1.149   4.254   7.116  0.3577 -1.7238  0.4822
  234MOL   H11642522   1.200   4.243   6.954  1.6339 -1.4015  0.4006
  234MOL   H11742523   1.427   4.370   7.017  0.2446 -0.3274  0.2846
  234MOL   H11842524   1.473   4.515   7.332 -1.7612  1.6826  0.3733
  234MOL   C11942525   1.246   4.487   7.031 -0.2260 -0.2829  0.4467
  234MOL   C12042526   1.257   4.531   6.882  0.6213  0.9350  0.8041
  234MOL   C12142527   1.381   4.610   6.849 -0.0238  0.4798  0.6975
  234MOL   O12242528   1.393   4.695   6.762 -0.1651 -0.5556  0.2169
  234MOL   O12342529   1.474   4.589   6.944 -0.3425  0.3034 -0.1971
  234MOL   H12442530   1.276   4.571   7.094 -0.3766 -1.2007  1.7854
  234MOL   H12542531   1.140   4.474   7.054 -0.4296 -1.4861 -1.1362
  234MOL   H12642532   1.267   4.438   6.826  0.7639 -0.3155  2.8301
  234MOL   H12742533   1.541   4.652   6.924  0.3174  0.2349  1.7154
  234MOL   C12842534   1.127   4.592   6.814 -0.0409 -0.3915  0.1027
  234MOL   C12942535   0.994   4.507   6.808 -0.2572  0.0613 -0.1492
  234MOL   C13042536   1.026   4.370   6.751  0.6664  0.4077  0.2602
  234MOL   O13142537   1.105   4.351   6.656 -0.0909  0.0863 -0.5393
  234MOL   O13242538   0.963   4.271   6.821  0.6371  0.0581  0.1240
  234MOL   H13342539   1.139   4.624   6.711  1.2030  0.6037  0.5452
  234MOL   H13442540   1.105   4.691   6.857  2.8661  0.8241 -1.1345
  234MOL   H13542541   0.953   4.488   6.907 -2.6884  1.3036 -0.8734
  234MOL   H13642542   0.973   4.183   6.789  1.4174 -0.3568  1.4375
  234MOL   C13742543   0.879   4.580   6.714 -0.6997  1.2379 -0.6023
  234MOL   C13842544   0.742   4.520   6.714  0.3369  0.0922  0.1078
  234MOL   C13942545   0.655   4.592   6.610  0.6098  1.1946 -0.8219
  234MOL   O14042546   0.653   4.710   6.584  0.8206 -0.0440  0.3281
  234MOL   O14142547   0.560   4.508   6.557 -0.5587 -0.0671 -0.4062
  234MOL   H14242548   0.906   4.582   6.609 -0.5239 -0.8422 -0.6111
  234MOL   H14342549   0.870   4.683   6.750 -1.3793  0.4031  1.6795
  234MOL   H14442550   0.760   4.417   6.683  0.4006 -0.4122  1.7792
  234MOL   H14542551   0.497   4.563   6.512  0.8448  1.6374 -0.3636
  234MOL   C14642552   0.666   4.502   6.847 -0.0759 -0.5976 -0.1864
  234MOL   C14742553   0.595   4.619   6.924 -0.0741  0.9032 -0.0186
  234MOL   C14842554   0.676   4.751   6.929 -0.0622  0.5052 -0.6049
  234MOL   O14942555   0.798   4.752   6.959 -0.2554 -0.1294  0.3854
  234MOL   O15042556   0.609   4.852   6.868  0.5066  0.1841  0.3563
  234MOL   H15142557   0.743   4.458   6.912  0.5726  0.6614 -0.0938
  234MOL   H15242558   0.597   4.419   6.829  0.1377 -0.9929  0.7269
  234MOL   H15342559   0.505   4.649   6.870  1.2107 -0.2419 -2.8960
  234MOL   H15442560   0.663   4.930   6.875 -0.6994  0.8892  2.3206
  234MOL   C15542561   0.528   4.573   7.052 -0.2661  0.5058 -0.3274
  234MOL   C15642562   0.428   4.673   7.123  0.0932  0.9472  0.1512
  234MOL   C15742563   0.502   4.753   7.234  0.5751 -0.4752 -0.8026
  234MOL   O15842564   0.599   4.709   7.292  0.7070  0.2279 -0.5029
  234MOL   O15942565   0.444   4.874   7.255  0.5360 -0.3048 -0.1342
  234MOL   H16042566   0.609   4.542   7.118 -0.3824  0.3913 -0.2407
  234MOL   H16142567   0.474   4.484   7.023 -1.4636  0.7973  0.9834
  234MOL   H16242568   0.387   4.739   7.047  2.0917  0.6801 -1.1847
  234MOL   H16342569   0.388   4.893   7.181 -1.5607  0.9372  1.7093
  234MOL   C16442570   0.314   4.598   7.194 -0.2320 -0.4277  0.1744
  234MOL   C16542571   0.214   4.539   7.092 -0.4223  0.8501 -0.2915
  234MOL   C16642572   0.074   4.599   7.114  0.1251 -0.0128  0.4592
  234MOL   O16742573   0.006   4.580   7.214 -0.5009  0.4102  0.4143
  234MOL   O16842574   0.039   4.674   7.003 -0.4578 -0.1170 -0.3900
  234MOL   H16942575   0.266   4.661   7.268  1.7060  0.6193  0.5881
  234MOL   H17042576   0.354   4.523   7.262 -1.0647 -0.4089  0.6869
  234MOL   H17142577   0.243   4.572   6.992  2.6119  1.9860  0.8962
  234MOL   H17242578   7.804   4.710   7.011 -1.7074 -2.8259 -1.1763
  234MOL   C17342579   0.204   4.385   7.095 -1.0526 -0.1851 -0.0108
  234MOL   C17442580   0.169   4.323   6.959 -0.4648  0.5889  0.3828
  234MOL   C17542581   0.275   4.312   6.848  0.7437 -0.2578  0.0685
  234MOL   O17642582   0.311   4.405   6.786 -0.7407 -0.1691  0.0451
  234MOL   O17742583   0.322   4.183   6.836  0.6263  0.7293 -0.1869
  234MOL   H17842584   0.136   4.366   7.178  0.8949  1.2477  1.9829
  234MOL   H17942585   0.297   4.341   7.131 -0.9768 -0.3461 -0.4069
  234MOL   H18042586   0.135   4.222   6.981 -1.6887  0.9466  0.1789
  234MOL   H18142587   0.379   4.189   6.761  0.6488  0.2822 -0.2054
  234MOL   H18242588   0.089   4.371   6.903  0.6375 -0.0957 -1.7924
  235MOL     C142589   4.943   0.694   1.049 -0.0919  0.3731 -0.6213
  235MOL     C242590   4.813   0.613   1.060 -0.2037 -0.2740  0.3395
  235MOL     C342591   4.846   0.463   1.065 -0.0094  0.1304 -0.6025
  235MOL     O442592   4.953   0.421   1.103  0.2074  0.6883  0.0674
  235MOL     O542593   4.735   0.388   1.037 -0.1216  0.6483 -0.0498
  235MOL     H642594   4.927   0.801   1.053  0.7282  0.5712 -2.4601
  235MOL     H742595   5.010   0.675   1.133  2.0843 -0.7800 -2.5543
  235MOL     H842596   4.751   0.625   1.148 -3.1920 -0.1521 -1.6930
  235MOL     H942597   4.750   0.296   1.053  1.1352  0.6991 -0.8108
  235MOL    H1042598   4.987   0.680   0.950 -1.6981  2.5511 -1.6859
  235MOL    C1142599   4.727   0.648   0.939  0.1764 -0.0105  0.8903
  235MOL    C1242600   4.575   0.658   0.962 -0.4637  0.1914 -0.1402
  235MOL    C1342601   4.500   0.689   0.828 -0.5619  0.0558 -0.7132
  235MOL    O1442602   4.405   0.763   0.829  0.6113 -0.0578 -0.1903
  235MOL    O1542603   4.559   0.632   0.715  0.7570  0.0518 -0.0959
  235MOL    H1642604   4.760   0.581   0.859 -1.8032  1.6962 -1.4168
  235MOL    H1742605   4.751   0.746   0.899  2.4477 -0.9308 -0.1013
  235MOL    H1842606   4.539   0.559   0.991  0.8921 -0.4676 -0.6381
  235MOL    H1942607   4.533   0.677   0.636 -0.1018  1.1460  0.7801
  235MOL    C2042608   4.526   0.740   1.080 -0.0054  0.4639  0.2752
  235MOL    C2142609   4.595   0.870   1.120  0.3754  0.4964  0.7649
  235MOL    C2242610   4.564   0.898   1.267 -0.0826 -0.5338  0.7239
  235MOL    O2342611   4.452   0.882   1.318 -0.1382  0.4962  0.1600
  235MOL    O2442612   4.664   0.954   1.333  0.5715  0.0522 -0.6201
  235MOL    H2542613   4.535   0.682   1.172  1.4454 -0.8565 -0.6794
  235MOL    H2642614   4.418   0.751   1.075 -0.1451 -0.9360  0.0404
  235MOL    H2742615   4.701   0.849   1.112  0.2131 -0.1092  0.1941
  235MOL    H2842616   4.620   0.972   1.415  0.4211  0.1097 -0.7140
  235MOL    C2942617   4.554   0.990   1.021 -0.1419 -0.2083  0.3513
  235MOL    C3042618   4.642   1.121   1.025  0.3654  0.4816 -0.1294
  235MOL    C3142619   4.592   1.214   1.135  0.3331  0.4109 -0.0144
  235MOL    O3242620   4.474   1.223   1.176 -0.1144  0.0803  0.1890
  235MOL    O3342621   4.693   1.301   1.177 -0.6959 -0.5004  0.0575
  235MOL    H3442622   4.448   1.015   1.035  0.2083 -0.5006  4.2754
  235MOL    H3542623   4.565   0.930   0.931 -1.0929 -0.5255  0.4331
  235MOL    H3642624   4.749   1.102   1.029  0.5387  0.5650 -2.9658
  235MOL    H3742625   4.641   1.360   1.230  1.2344  0.6809  0.6644
  235MOL    C3842626   4.642   1.193   0.884  0.8782 -0.2724 -0.6036
  235MOL    C3942627   4.499   1.238   0.837  0.2748 -0.1526  0.2415
  235MOL    C4042628   4.440   1.142   0.728 -0.0842  0.1532 -0.2721
  235MOL    O4142629   4.457   1.153   0.604  0.4076 -0.2940  0.1065
  235MOL    O4242630   4.358   1.039   0.768 -0.5568 -0.4966  0.2311
  235MOL    H4342631   4.683   1.125   0.811 -0.3813  0.1274 -1.7066
  235MOL    H4442632   4.707   1.281   0.892 -0.8155  0.7831  2.6147
  235MOL    H4542633   4.430   1.239   0.921 -1.8863  1.8854 -1.4573
  235MOL    H4642634   4.329   0.990   0.693 -2.0187 -0.9095  1.0482
  235MOL    C4742635   4.510   1.388   0.775  0.2663  0.0838  0.4033
  235MOL    C4842636   4.381   1.466   0.754 -0.2453  0.7838 -0.2450
  235MOL    C4942637   4.405   1.568   0.640  1.2085 -0.5062  0.1470
  235MOL    O5042638   4.496   1.648   0.641 -0.2428 -0.0914 -0.0486
  235MOL    O5142639   4.298   1.568   0.555  0.2113  0.3059 -0.3656
  235MOL    H5242640   4.565   1.371   0.682 -1.5053 -1.3113 -0.4111
  235MOL    H5342641   4.580   1.457   0.822  1.2657 -1.2641  0.9192
  235MOL    H5442642   4.300   1.402   0.718  0.3170  0.0597 -0.2341
  235MOL    H5542643   4.308   1.637   0.491 -0.3161  1.2538  0.5657
  235MOL    C5642644   4.333   1.528   0.887 -0.3991 -0.6011 -0.4628
  235MOL    C5742645   4.196   1.595   0.916 -0.0329 -0.0949  0.4820
  235MOL    C5842646   4.068   1.506   0.885 -0.4320  0.8971 -0.0507
  235MOL    O5942647   4.040   1.458   0.771 -0.0362 -0.1385 -0.0059
  235MOL    O6042648   3.984   1.494   0.988  0.4580  0.3332 -0.4698
  235MOL    H6142649   4.415   1.595   0.912  1.2608 -3.2501  1.5062
  235MOL    H6242650   4.348   1.452   0.964  0.4706  0.2431  0.2187
  235MOL    H6342651   4.203   1.593   1.025  0.9666 -2.3516  0.3990
  235MOL    H6442652   3.905   1.449   0.961  0.1417 -0.2538  1.3995
  235MOL    C6542653   4.173   1.744   0.867  0.4638 -0.1005  0.1340
  235MOL    C6642654   4.138   1.850   0.970 -0.4484 -0.4050  0.2207
  235MOL    C6742655   4.260   1.887   1.054 -0.1849  0.6165  0.3077
  235MOL    O6842656   4.371   1.833   1.036 -0.2060 -0.3051  0.3171
  235MOL    O6942657   4.239   1.994   1.135 -0.0166 -0.5874 -0.6773
  235MOL    H7042658   4.095   1.743   0.790 -1.0363 -0.4610  1.6273
  235MOL    H7142659   4.259   1.788   0.816 -0.5247  1.1030 -0.5234
  235MOL    H7242660   4.115   1.943   0.919 -1.0518 -0.6004  0.1408
  235MOL    H7342661   4.329   2.001   1.160  0.1385  0.0184 -1.3789
  235MOL    C7442662   4.022   1.824   1.069  0.0678 -0.0037  0.2379
  235MOL    C7542663   3.879   1.810   0.998  0.7630 -0.1601  0.1773
  235MOL    C7642664   3.844   1.925   0.900  0.0002  0.5049 -0.6061
  235MOL    O7742665   3.808   1.907   0.783 -0.3090 -0.0293 -0.2693
  235MOL    O7842666   3.840   2.043   0.959 -0.4571 -0.0402 -0.1315
  235MOL    H7942667   4.006   1.904   1.142  1.5158 -1.1228  1.8341
  235MOL    H8042668   4.040   1.731   1.124  1.2348  1.1848  1.9177
  235MOL    H8142669   3.886   1.715   0.945 -0.5643 -0.4547  0.5280
  235MOL    H8242670   3.847   2.114   0.897 -0.7037 -1.4100 -1.7423
  235MOL    C8342671   3.772   1.793   1.116  0.5435  0.4146  0.4916
  235MOL    C8442672   3.652   1.700   1.082 -0.0145 -0.0565 -0.6197
  235MOL    C8542673   3.559   1.756   0.975 -0.3320 -0.8729  0.3746
  235MOL    O8642674   3.558   1.711   0.861  0.3111  0.5643 -0.0087
  235MOL    O8742675   3.499   1.872   1.009  0.5740  0.3862  0.3421
  235MOL    H8842676   3.741   1.889   1.155  1.2030  0.9714 -0.3392
  235MOL    H8942677   3.813   1.728   1.194  0.2590 -1.6808 -1.0375
  235MOL    H9042678   3.685   1.598   1.059 -1.9193 -1.3549  2.1838
  235MOL    H9142679   3.446   1.914   0.943 -3.5499 -1.3884  2.3206
  235MOL    C9242680   3.552   1.663   1.205  0.1656 -0.4483  0.3817
  235MOL    C9342681   3.596   1.591   1.339  0.7167  0.2346 -0.0621
  235MOL    C9442682   3.632   1.444   1.314 -0.2516  0.6109  0.5920
  235MOL    O9542683   3.639   1.398   1.201 -0.0593 -0.1055  0.9609
  235MOL    O9642684   3.649   1.367   1.420 -0.6112 -0.4539  0.1429
  235MOL    H9742685   3.467   1.605   1.169 -0.0548  1.4876 -2.4129
  235MOL    H9842686   3.498   1.752   1.236 -4.0281 -2.4665 -0.7613
  235MOL    H9942687   3.684   1.642   1.380 -0.5809  0.4088  2.6651
  235MOL   H10042688   3.655   1.417   1.499 -2.6547 -0.0487  0.0680
  235MOL   C10142689   3.479   1.609   1.441  0.5803  0.5765  0.0496
  235MOL   C10242690   3.514   1.682   1.577 -0.4647 -0.1778 -0.3036
  235MOL   C10342691   3.585   1.598   1.678 -0.0733 -0.2818 -0.5671
  235MOL   O10442692   3.591   1.477   1.663 -0.5792 -0.3800 -0.7227
  235MOL   O10542693   3.649   1.661   1.777 -0.2417 -0.1896  0.6679
  235MOL   H10642694   3.433   1.515   1.473 -0.9328  1.0643 -0.6498
  235MOL   H10742695   3.392   1.651   1.391  0.3372 -1.2064 -1.0704
  235MOL   H10842696   3.589   1.760   1.562 -1.8480  1.1371 -0.5489
  235MOL   H10942697   3.699   1.609   1.838  1.5912  0.2463 -0.4371
  235MOL   C11042698   3.394   1.758   1.647  0.6730  0.5330 -0.2407
  235MOL   C11142699   3.353   1.882   1.573 -0.2476  0.1559  0.4530
  235MOL   C11242700   3.470   1.979   1.541  0.5018  0.1316 -0.0413
  235MOL   O11342701   3.544   2.015   1.628  0.3564 -0.5618  0.3969
  235MOL   O11442702   3.491   2.009   1.413  0.3818 -0.3739 -0.3429
  235MOL   H11542703   3.416   1.780   1.752  1.3143  0.8448 -0.4382
  235MOL   H11642704   3.302   1.700   1.655 -0.2105  1.9141 -0.1579
  235MOL   H11742705   3.319   1.838   1.479 -0.8182  0.3778  0.5499
  235MOL   H11842706   3.571   2.060   1.412 -0.2863  0.7042 -1.6217
  235MOL   C11942707   3.228   1.955   1.637 -0.0025  0.0219 -0.4262
  235MOL   C12042708   3.173   2.078   1.560  1.0355 -0.3919  0.3592
  235MOL   C12142709   3.232   2.212   1.597 -0.0468 -1.0789  0.8147
  235MOL   O12242710   3.266   2.290   1.504  0.3045  0.3169 -0.0234
  235MOL   O12342711   3.238   2.231   1.730 -0.3106  0.5883  0.1512
  235MOL   H12442712   3.249   1.991   1.737 -3.9683  0.6489  0.2655
  235MOL   H12542713   3.153   1.878   1.658  0.1174  0.5289  1.9680
  235MOL   H12642714   3.196   2.058   1.456  0.5559  0.3969  0.0946
  235MOL   H12742715   3.267   2.317   1.757 -0.7599  0.3389  1.4395
  235MOL   C12842716   3.018   2.098   1.577 -0.0674  0.3737  0.3023
  235MOL   C12942717   2.939   2.156   1.459 -1.4524  0.1436  0.0084
  235MOL   C13042718   2.911   2.308   1.482  0.1195  0.0611  0.5011
  235MOL   O13142719   2.938   2.397   1.398 -0.0057  0.6814 -0.1918
  235MOL   O13242720   2.854   2.323   1.602  0.3893 -0.1126  0.0479
  235MOL   H13342721   3.001   2.153   1.670  0.2002  0.0412  0.5467
  235MOL   H13442722   2.980   2.000   1.604  0.4013  0.2370  0.4696
  235MOL   H13542723   2.995   2.150   1.366 -0.0855 -2.2068  0.9487
  235MOL   H13642724   2.834   2.415   1.596  2.5923  0.5509  2.2236
  235MOL   C13742725   2.820   2.073   1.420  0.4789  0.5266  0.6931
  235MOL   C13842726   2.845   1.940   1.346 -0.0191  0.2498  0.1475
  235MOL   C13942727   2.712   1.897   1.277 -0.6293 -1.0140  0.2120
  235MOL   O14042728   2.639   1.818   1.330  0.5237 -0.1025 -0.1382
  235MOL   O14142729   2.682   1.963   1.166 -0.1410  0.1745 -0.4803
  235MOL   H14242730   2.758   2.128   1.350  0.7730 -1.4476 -1.1554
  235MOL   H14342731   2.762   2.047   1.509  1.6806  0.1195  1.3692
  235MOL   H14442732   2.902   1.968   1.258 -0.2403  0.7201  0.1480
  235MOL   H14542733   2.595   1.943   1.136 -0.3032  0.6214 -0.3111
  235MOL   C14642734   2.915   1.827   1.423 -0.0465  0.1589  0.1532
  235MOL   C14742735   2.928   1.686   1.363  0.2823  0.0101  0.6680
  235MOL   C14842736   2.976   1.588   1.469 -0.1773 -0.2653  0.3211
  235MOL   O14942737   3.061   1.618   1.558 -0.1398 -0.1949 -0.3405
  235MOL   O15042738   2.938   1.463   1.448 -0.0118  0.0520  0.2465
  235MOL   H15142739   2.868   1.831   1.522  0.4671  1.3120  0.3558
  235MOL   H15242740   3.014   1.872   1.425 -0.4292  1.0054  3.5402
  235MOL   H15342741   2.830   1.645   1.337  0.6183  0.6087 -1.6691
  235MOL   H15442742   2.995   1.409   1.500  0.8116  0.2494 -0.4373
  235MOL   C15542743   3.021   1.691   1.247 -0.9703  0.1107  0.4801
  235MOL   C15642744   3.018   1.567   1.158  1.1514  0.0388  0.4447
  235MOL   C15742745   3.144   1.558   1.064  0.6232  0.2163 -0.4646
  235MOL   O15842746   3.244   1.495   1.107 -0.1836  0.3238  0.4340
  235MOL   O15942747   3.147   1.641   0.953 -0.0164 -0.3089  0.4093
  235MOL   H16042748   3.126   1.704   1.274 -0.3416 -0.7761 -1.4386
  235MOL   H16142749   2.998   1.775   1.182 -2.2522  1.2304  2.3235
  235MOL   H16242750   3.028   1.475   1.215 -1.8072 -2.1976 -2.4474
  235MOL   H16342751   3.235   1.639   0.921 -0.0038  1.2032  0.3213
  235MOL   C16442752   2.879   1.560   1.072  0.2871  0.4910 -0.3742
  235MOL   C16542753   2.776   1.462   1.137 -0.2428  0.2946 -0.1565
  235MOL   C16642754   2.802   1.320   1.090  0.0241  0.1518 -0.1203
  235MOL   O16742755   2.808   1.283   0.977  0.1479 -0.1025 -0.2776
  235MOL   O16842756   2.834   1.249   1.203 -0.0594  0.1976  0.3867
  235MOL   H16942757   2.903   1.541   0.968  2.0069  0.7954 -0.0542
  235MOL   H17042758   2.847   1.664   1.071  0.3550  0.5102 -0.6286
  235MOL   H17142759   2.776   1.467   1.245  1.1691  1.1523 -0.1824
  235MOL   H17242760   2.875   1.166   1.185 -1.9218 -0.5578 -0.4412
  235MOL   C17342761   2.629   1.515   1.105  0.1129  0.2988 -0.4348
  235MOL   C17442762   2.587   1.503   0.957 -0.3192  0.2409 -0.0494
  235MOL   C17542763   2.459   1.582   0.928 -0.1203 -0.3411  0.4494
  235MOL   O17642764   2.378   1.609   1.014 -0.0432 -1.1613 -0.3689
  235MOL   O17742765   2.454   1.615   0.797  0.2969 -0.8619 -0.0995
  235MOL   H17842766   2.623   1.619   1.137 -1.8382  0.6370 -1.7538
  235MOL   H17942767   2.557   1.467   1.171  1.2453 -0.3272  0.3550
  235MOL   H18042768   2.666   1.542   0.893  0.6924 -2.5481 -0.5685
  235MOL   H18142769   2.385   1.677   0.781  1.9632  1.1897  0.4612
  235MOL   H18242770   2.567   1.400   0.925 -2.6686  0.5104  0.4831
  236MOL     C142771   0.004   0.198   5.477  0.2937  0.1656  0.3205
  236MOL     C242772   7.730   0.198   5.385  0.1648  0.2921  0.3704
  236MOL     C342773   7.683   0.341   5.353 -0.6499  0.3481  0.0236
  236MOL     O442774   7.594   0.393   5.417 -0.7181 -0.3369 -1.0743
  236MOL     O542775   7.741   0.398   5.246 -0.5092  0.0248 -0.4210
  236MOL     H642776   0.078   0.275   5.454 -1.2718  1.8788  0.8167
  236MOL     H742777   7.832   0.192   5.583 -0.4132  1.6574  0.2578
  236MOL     H842778   7.757   0.149   5.292  1.4957 -1.4227  1.6147
  236MOL     H942779   7.693   0.472   5.210  0.3289  1.7034  1.8134
  236MOL    H1042780   0.059   0.106   5.462  0.2081 -0.0365  1.2288
  236MOL    C1142781   7.617   0.105   5.441 -0.0891 -0.4450 -0.1123
  236MOL    C1242782   7.656   7.815   5.475 -0.1478 -0.5578  0.0689
  236MOL    C1342783   7.695   7.734   5.342  0.1850 -0.7999  0.5764
  236MOL    O1442784   7.615   7.669   5.280  0.8058 -0.5817 -0.0154
  236MOL    O1542785   7.830   7.740   5.314 -0.2637  0.1016 -0.4660
  236MOL    H1642786   7.534   0.106   5.370  0.4103  0.0851 -0.6982
  236MOL    H1742787   7.587   0.152   5.535 -3.3659 -1.4180 -0.6222
  236MOL    H1842788   7.741   7.815   5.543 -0.2380 -0.2229  0.1814
  236MOL    H1942789   7.848   7.675   5.248 -2.5249 -0.9043 -0.1651
  236MOL    C2042790   7.535   7.752   5.548  0.0399 -0.6309 -0.7569
  236MOL    C2142791   7.523   7.601   5.571 -0.7125 -0.3866  0.0741
  236MOL    C2242792   7.407   7.564   5.660 -0.1292 -0.6907  0.2241
  236MOL    O2342793   7.300   7.512   5.625  0.1962  0.3554 -0.4445
  236MOL    O2442794   7.436   7.601   5.788  0.3584  0.9302  0.6963
  236MOL    H2542795   7.458   7.792   5.482 -0.0679 -1.5931 -1.2097
  236MOL    H2642796   7.508   7.799   5.643  0.8075 -0.0433 -0.8222
  236MOL    H2742797   7.505   7.557   5.473 -1.0773 -1.4649  0.6210
  236MOL    H2842798   7.360   7.596   5.843  0.0578 -0.3432  0.1959
  236MOL    C2942799   7.657   7.537   5.622  0.1541  0.5879 -0.8565
  236MOL    C3042800   7.665   7.384   5.625 -0.2037 -0.2649  0.5345
  236MOL    C3142801   7.777   7.337   5.721  0.4641 -0.2183 -0.0547
  236MOL    O3242802   7.760   7.274   5.825  0.3164 -0.3611 -0.3667
  236MOL    O3342803   0.045   7.377   5.678  0.1700 -0.1234 -0.3042
  236MOL    H3442804   7.675   7.576   5.722 -0.4681  0.2168 -0.5962
  236MOL    H3542805   7.747   7.581   5.580  0.4028  0.3938 -0.5314
  236MOL    H3642806   7.579   7.338   5.673  0.4898  0.2273  2.3146
  236MOL    H3742807   0.124   7.353   5.725 -0.0743  0.0864  0.2154
  236MOL    C3842808   7.691   7.331   5.479 -0.1497 -0.3206 -0.3582
  236MOL    C3942809   7.575   7.241   5.423  0.4333 -0.6032 -0.3886
  236MOL    C4042810   7.572   7.105   5.497 -0.0154  0.5747  0.6072
  236MOL    O4142811   7.642   7.011   5.465 -0.5730  0.6366  0.1078
  236MOL    O4242812   7.487   7.106   5.599 -0.2232 -0.1552 -0.1238
  236MOL    H4342813   7.782   7.272   5.473 -0.6831 -0.9726 -3.3704
  236MOL    H4442814   7.731   7.413   5.420  0.3555 -1.2323 -1.3206
  236MOL    H4542815   7.480   7.283   5.454  1.4362  0.4939  1.2923
  236MOL    H4642816   7.479   7.019   5.634  1.5117  0.2809  1.4288
  236MOL    C4742817   7.582   7.221   5.270 -0.2253 -0.0710  0.6716
  236MOL    C4842818   7.569   7.346   5.183 -0.6923 -0.1125 -0.0802
  236MOL    C4942819   7.427   7.382   5.141 -0.0656  0.3840 -0.5573
  236MOL    O5042820   7.378   7.367   5.027  0.2141 -0.5949 -0.1238
  236MOL    O5142821   7.356   7.429   5.243 -0.1009  0.0848 -0.6207
  236MOL    H5242822   7.507   7.148   5.240 -0.3404  0.1250  0.4818
  236MOL    H5342823   7.682   7.180   5.252 -0.2653  0.1250  0.0073
  236MOL    H5442824   7.608   7.425   5.247  0.4940 -0.9378  0.2230
  236MOL    H5542825   7.271   7.455   5.210  0.1088  0.8450 -0.5678
  236MOL    C5642826   7.653   7.352   5.056 -0.2677  0.6812 -0.8802
  236MOL    C5742827   7.806   7.346   5.084 -0.4867  0.0095  0.1975
  236MOL    C5842828   0.019   7.479   5.041 -0.2017 -0.2264 -0.6568
  236MOL    O5942829   0.055   7.563   5.119  0.2075 -0.3537  0.0496
  236MOL    O6042830   0.047   7.493   4.907 -0.3707  0.9003  0.0780
  236MOL    H6142831   7.628   7.437   4.993  0.5428  2.1674  0.7632
  236MOL    H6242832   7.625   7.269   4.991  0.7705 -1.2501  1.0434
  236MOL    H6342833   7.828   7.331   5.190 -0.3323  0.5886  0.2469
  236MOL    H6442834   0.063   7.585   4.893 -1.1704  1.3102  1.7160
  236MOL    C6542835   0.019   7.208   5.023  0.7596  0.4985  0.7262
  236MOL    C6642836   0.178   7.203   5.017  0.2476 -0.3401  0.2915
  236MOL    C6742837   0.215   7.075   4.939  0.1441 -0.6574  0.1010
  236MOL    O6842838   0.134   6.995   4.896  0.4014 -0.3303 -0.1135
  236MOL    O6942839   0.349   7.061   4.935 -0.2334 -0.8698 -0.1933
  236MOL    H7042840   0.008   7.217   4.915 -1.1128 -4.1692  0.4301
  236MOL    H7142841   7.823   7.117   5.055  0.5110  0.3602 -0.0394
  236MOL    H7242842   0.221   7.285   4.959  0.6397 -2.3124 -2.3072
  236MOL    H7342843   0.362   6.970   4.912  0.0936 -1.3215  1.6536
  236MOL    C7442844   0.239   7.199   5.164  0.0633 -0.2167  0.9927
  236MOL    C7542845   0.203   7.083   5.257  0.5967  0.4371 -1.0951
  236MOL    C7642846   0.157   7.131   5.398 -0.8508 -0.9028  0.0035
  236MOL    O7742847   0.194   7.244   5.440 -0.1100  0.3270  0.7384
  236MOL    O7842848   0.093   7.038   5.469 -0.0565 -0.3553  0.0966
  236MOL    H7942849   0.206   7.295   5.204 -0.7286 -0.8044  1.7736
  236MOL    H8042850   0.347   7.216   5.166 -0.2119  2.0759 -0.9720
  236MOL    H8142851   0.117   7.031   5.216 -1.8811  1.1930  2.9173
  236MOL    H8242852   0.076   7.069   5.556 -0.9982 -2.2330  0.6258
  236MOL    C8342853   0.321   6.978   5.265  0.1462  0.2063  0.1950
  236MOL    C8442854   0.467   7.023   5.290  0.0400  0.4476  0.9414
  236MOL    C8542855   0.554   6.895   5.284 -0.3920  0.0325  0.0251
  236MOL    O8642856   0.592   6.839   5.387  0.2370 -0.6232 -0.4300
  236MOL    O8742857   0.579   6.861   5.159 -0.2456  0.2063  0.7574
  236MOL    H8842858   0.324   6.938   5.164 -2.6012 -0.5645  0.3754
  236MOL    H8942859   0.280   6.886   5.308  0.4987  0.4906  1.1392
  236MOL    H9042860   0.488   7.065   5.192 -2.0588  1.1182  0.7449
  236MOL    H9142861   0.559   6.918   5.086  1.8908  0.1117  0.0751
  236MOL    C9242862   0.498   7.128   5.399  0.5490 -0.2324  0.0005
  236MOL    C9342863   0.644   7.166   5.419 -0.8408  0.2499  0.3177
  236MOL    C9442864   0.681   7.237   5.558 -0.8024  0.7551  1.0504
  236MOL    O9542865   0.631   7.344   5.593  0.0878 -0.3667 -0.2055
  236MOL    O9642866   0.769   7.165   5.625 -0.0450 -0.1388  0.3151
  236MOL    H9742867   0.465   7.093   5.496  0.0751 -0.6725 -0.3139
  236MOL    H9842868   0.440   7.217   5.375 -2.3843 -1.4991  2.1112
  236MOL    H9942869   0.700   7.073   5.413  0.2333  1.0053 -2.0324
  236MOL   H10042870   0.785   7.214   5.704 -0.2700  2.0040 -0.9068
  236MOL   C10142871   0.681   7.259   5.293 -1.0492 -0.2063  0.6314
  236MOL   C10242872   0.809   7.224   5.218  0.1159 -0.1542 -0.3340
  236MOL   C10342873   0.943   7.231   5.300  1.0113  0.1028 -0.4557
  236MOL   O10442874   1.030   7.142   5.299 -0.1979  0.0279 -0.1099
  236MOL   O10542875   0.959   7.352   5.351 -0.0157 -0.1097 -0.2691
  236MOL   H10642876   0.683   7.363   5.325 -1.8922  0.2351 -0.7258
  236MOL   H10742877   0.604   7.264   5.217 -1.5584 -0.4888  1.1205
  236MOL   H10842878   0.800   7.118   5.192 -0.0228 -0.2439  0.0777
  236MOL   H10942879   1.051   7.356   5.369  0.1024 -4.6454  0.6352
  236MOL   C11042880   0.817   7.314   5.092  0.3434  0.3235  0.1120
  236MOL   C11142881   0.787   7.240   4.956  1.2248  0.5342  0.5511
  236MOL   C11242882   0.648   7.175   4.954 -0.4004 -0.1090  0.8564
  236MOL   O11342883   0.630   7.052   4.978 -0.2413  0.3725 -0.2632
  236MOL   O11442884   0.546   7.257   4.927  0.2873  0.1016 -0.2342
  236MOL   H11542885   0.904   7.381   5.093 -0.2728  1.1460  1.6419
  236MOL   H11642886   0.735   7.386   5.092  0.5790  0.5958  0.5550
  236MOL   H11742887   0.773   7.311   4.875 -0.5043  1.9063  2.0104
  236MOL   H11842888   0.466   7.209   4.941 -0.3570  1.4489  0.8542
  236MOL   C11942889   0.903   7.144   4.925 -0.0214 -0.4123 -0.6275
  236MOL   C12042890   1.035   7.212   4.872  0.1464  0.4740 -0.2901
  236MOL   C12142891   1.017   7.256   4.724  0.4107  0.1054 -0.1153
  236MOL   O12242892   1.067   7.189   4.630  0.2945  0.1622  0.0822
  236MOL   O12342893   0.939   7.366   4.707  0.2308 -0.3096  0.3048
  236MOL   H12442894   0.862   7.077   4.849 -0.0536 -0.4491 -0.5775
  236MOL   H12542895   0.934   7.074   5.002  1.8089  1.3482  0.2650
  236MOL   H12642896   1.034   7.307   4.925 -0.1844 -0.0222  0.5947
  236MOL   H12742897   0.927   7.377   4.614 -2.5674  0.4239  0.7009
  236MOL   C12842898   1.168   7.133   4.902 -0.8744 -0.7223  0.4521
  236MOL   C12942899   1.297   7.222   4.914 -0.0275  0.6978 -0.4828
  236MOL   C13042900   1.302   7.301   5.045  1.2077 -0.0435 -0.5148
  236MOL   O13142901   1.209   7.368   5.085  0.2427  0.4764 -0.4117
  236MOL   O13242902   1.424   7.313   5.095 -0.3678 -0.1306  0.0861
  236MOL   H13342903   1.194   7.065   4.820  2.9432  0.0445  0.9042
  236MOL   H13442904   1.162   7.073   4.992 -1.0692 -0.2974  0.7218
  236MOL   H13542905   1.371   7.141   4.919 -1.0399 -0.1272  2.1866
  236MOL   H13642906   1.431   7.383   5.158 -2.8054  1.6559 -1.5262
  236MOL   C13742907   1.328   7.315   4.799 -0.4067  0.5628  0.9557
  236MOL   C13842908   1.468   7.385   4.795 -0.3605 -0.2834 -0.0995
  236MOL   C13942909   1.475   7.478   4.665  0.3764  0.1390 -0.5895
  236MOL   O14042910   1.373   7.521   4.606 -0.1057  0.1715 -0.0645
  236MOL   O14142911   1.600   7.519   4.644  0.7653 -0.3072 -0.2702
  236MOL   H14242912   1.260   7.399   4.803  0.5584  1.4014  0.1457
  236MOL   H14342913   1.321   7.263   4.703 -2.7449  2.3751  0.1062
  236MOL   H14442914   1.462   7.471   4.862 -4.7660 -0.6574  0.1678
  236MOL   H14542915   1.615   7.583   4.576  0.8992  2.8289  2.5945
  236MOL   C14642916   1.599   7.305   4.813 -0.8073 -0.6506  0.1109
  236MOL   C14742917   1.653   7.224   4.692 -0.0032 -0.8867  0.0976
  236MOL   C14842918   1.563   7.111   4.638 -0.2368  0.1054 -0.0699
  236MOL   O14942919   1.472   7.046   4.697  0.5846 -0.1410 -0.8780
  236MOL   O15042920   1.594   7.088   4.509 -0.6637  0.4464  0.1237
  236MOL   H15142921   1.608   7.236   4.897  1.7382  3.0828  3.0597
  236MOL   H15242922   1.678   7.374   4.842 -1.3329  0.2444 -0.5605
  236MOL   H15342923   1.658   7.288   4.604 -2.4148 -0.9951 -0.1299
  236MOL   H15442924   1.544   7.015   4.476 -2.8310  1.1058  1.8506
  236MOL   C15542925   1.789   7.164   4.725  0.5803  0.2333 -0.0650
  236MOL   C15642926   1.908   7.266   4.723  0.1524  0.1112  0.8040
  236MOL   C15742927   1.935   7.310   4.573 -0.0984  0.5459  0.3465
  236MOL   O15842928   1.887   7.414   4.522  0.0606 -0.6824 -0.3827
  236MOL   O15942929   1.998   7.217   4.495  0.3623  0.5704  0.3462
  236MOL   H16042930   1.814   7.086   4.654  0.9199 -0.7752  1.1441
  236MOL   H16142931   1.787   7.113   4.822 -1.7110  1.2476  0.4428
  236MOL   H16242932   1.864   7.354   4.770  0.7697 -0.6756  2.9099
  236MOL   H16342933   2.001   7.253   4.408 -1.4038  0.3957  0.2026
  236MOL   C16442934   2.041   7.246   4.808 -0.5768  0.0287 -0.7335
  236MOL   C16542935   2.086   7.379   4.883 -0.1564 -0.2448  0.1061
  236MOL   C16642936   2.100   7.500   4.787 -0.5343 -0.3748 -0.1643
  236MOL   O16742937   2.028   7.595   4.772 -0.3032 -0.3217 -0.1403
  236MOL   O16842938   2.211   7.489   4.703 -0.6061  0.0572 -0.2546
  236MOL   H16942939   2.128   7.212   4.753 -1.0382 -2.0187 -0.2629
  236MOL   H17042940   2.033   7.168   4.885 -2.8286 -1.2199 -2.1584
  236MOL   H17142941   2.003   7.411   4.947  0.7972  1.1966  0.6523
  236MOL   H17242942   2.217   7.548   4.629  0.3125  0.0082 -0.2229
  236MOL   C17342943   2.211   7.368   4.979 -0.3687  0.4863 -0.6100
  236MOL   C17442944   2.305   7.254   4.970  0.4335  0.1635  0.2618
  236MOL   C17542945   2.386   7.269   4.844  1.4030 -0.6073 -0.0823
  236MOL   O17642946   2.384   7.189   4.749 -0.4106 -0.2309 -0.5412
  236MOL   O17742947   2.474   7.364   4.849 -0.0981 -0.2761 -0.2007
  236MOL   H17842948   2.160   7.359   5.075 -0.3712  1.1117 -0.5502
  236MOL   H17942949   2.275   7.456   4.989  0.2543 -0.2149  1.8196
  236MOL   H18042950   2.363   7.269   5.061 -2.6366 -2.2046  2.7388
  236MOL   H18142951   2.500   7.367   4.758  1.2832 -1.1818  0.1493
  236MOL   H18242952   2.264   7.154   4.976 -1.0614  0.6256 -1.5850
  237MOL     C142953   2.966   2.551   7.635  0.3597 -0.6354 -0.0201
  237MOL     C242954   3.085   2.642   7.666  0.8162 -0.1756 -0.0812
  237MOL     C342955   3.215   2.571   7.620  0.5739  0.9462 -0.0560
  237MOL     O442956   3.260   2.475   7.680  0.2897 -0.2088 -0.4082
  237MOL     O542957   3.257   2.605   7.495  0.0679  0.1411  0.6569
  237MOL     H642958   2.970   2.500   7.539 -0.7285  0.1514 -0.4861
  237MOL     H742959   2.955   2.477   7.715  1.9312  1.1928  1.9755
  237MOL     H842960   3.068   2.731   7.607 -5.1525  0.0950  1.7407
  237MOL     H942961   3.197   2.669   7.461 -1.7186 -0.4460  2.6010
  237MOL    H1042962   2.874   2.608   7.634  0.0854 -1.0993 -1.0741
  237MOL    C1142963   3.079   2.668   7.825 -0.4923  0.0268 -0.7362
  237MOL    C1242964   3.172   2.781   0.021 -0.2314  0.2122  0.0364
  237MOL    C1342965   3.186   2.773   0.177 -0.2707  0.1743 -0.2832
  237MOL    O1442966   3.150   2.867   0.252  0.6236  0.3461 -0.3378
  237MOL    O1542967   3.250   2.662   0.223 -0.3041 -0.9705 -0.0059
  237MOL    H1642968   3.089   2.577   0.030  0.5624  2.1191  2.5067
  237MOL    H1742969   2.980   2.708   7.849  0.0099  0.1298  1.2700
  237MOL    H1842970   3.269   2.755   7.832 -1.0349 -0.5326 -1.3595
  237MOL    H1942971   3.291   2.619   0.149  0.3289 -1.0144  0.3719
  237MOL    C2042972   3.141   2.922   7.821  0.1123 -0.6149 -0.9820
  237MOL    C2142973   3.267   3.002   7.780 -0.5068  0.3323  0.2877
  237MOL    C2242974   3.338   2.944   7.653 -0.4642  0.2726  0.4881
  237MOL    O2342975   3.283   2.940   7.544  0.1684  0.8732  0.0670
  237MOL    O2442976   3.458   2.888   7.681  0.7156  0.2930 -0.5063
  237MOL    H2542977   3.087   2.979   0.044 -0.1633  1.6949 -2.8656
  237MOL    H2642978   3.082   2.909   7.730 -0.8771  0.9305 -0.5723
  237MOL    H2742979   3.223   3.097   7.753 -1.8423 -0.2816  0.2345
  237MOL    H2842980   3.482   2.848   7.599 -0.4924 -0.1913 -0.6331
  237MOL    C2942981   3.362   3.025   0.052 -0.3879  0.5245  0.1238
  237MOL    C3042982   3.482   3.124   0.027  0.4136 -0.2389 -0.7163
  237MOL    C3142983   3.608   3.100   0.108  0.8810  0.4069  0.5641
  237MOL    O3242984   3.604   3.081   0.229  0.1359  0.3831 -0.1114
  237MOL    O3342985   3.715   3.106   0.028 -0.4070 -0.1486 -0.0748
  237MOL    H3442986   3.395   2.929   0.092 -1.9450  0.2668  0.8444
  237MOL    H3542987   3.307   3.055   0.142 -3.3441 -0.2708 -1.3748
  237MOL    H3642988   3.508   3.126   7.774  1.2358  0.4391 -0.5062
  237MOL    H3742989   3.789   3.094   0.085  0.5232 -0.7034 -1.3691
  237MOL    C3842990   3.436   3.259   0.050 -0.0662  0.4835  0.3506
  237MOL    C3942991   3.530   3.382   0.026 -0.0259 -0.7902  0.4837
  237MOL    C4042992   3.547   3.463   0.159  0.3345 -0.5181 -0.3929
  237MOL    O4142993   3.464   3.542   0.198 -0.3098  0.2719 -0.0648
  237MOL    O4242994   3.670   3.451   0.221 -0.1881 -0.1039  0.3377
  237MOL    H4342995   3.398   3.264   0.152  0.2844  2.9715  0.3961
  237MOL    H4442996   3.347   3.279   7.844 -0.1509  0.5430  0.4979
  237MOL    H4542997   3.631   3.353   7.849  0.5066  0.7528  0.7184
  237MOL    H4642998   3.674   3.511   0.294 -0.2483 -1.0139  1.1058
  237MOL    C4742999   3.502   3.462   7.754  0.2991 -0.1113  0.2470
  237MOL    C4843000   3.518   3.396   7.618  0.6886  0.4511  0.6172
  237MOL    C4943001   3.661   3.355   7.587 -0.0263  0.0217  0.4733
  237MOL    O5043002   3.757   3.424   7.610  0.0792 -0.2462 -0.1579
  237MOL    O5143003   3.666   3.227   7.547 -0.0927 -0.3180 -0.4585
  237MOL    H5243004   3.568   3.548   7.755 -1.1330  1.0272 -0.9963
  237MOL    H5343005   3.407   3.515   7.762  1.0171  1.1647  0.5462
  237MOL    H5443006   3.469   3.300   7.632  1.7594  0.0138  1.3756
  237MOL    H5543007   3.757   3.200   7.551 -0.5051 -2.0146 -1.6497
  237MOL    C5643008   3.452   3.484   7.507  0.1009  0.2739  0.0017
  237MOL    C5743009   3.440   3.415   7.371  0.2927  0.1427  1.1793
  237MOL    C5843010   3.426   3.523   7.257 -0.1812 -0.5672  0.2132
  237MOL    O5943011   3.471   3.512   7.143 -0.4915  0.0952  0.3315
  237MOL    O6043012   3.353   3.629   7.300 -0.0660 -0.0104 -0.2673
  237MOL    H6143013   3.505   3.578   7.495 -1.0913  0.9046 -0.4158
  237MOL    H6243014   3.352   3.507   7.545 -0.2753  1.9476 -1.8924
  237MOL    H6343015   3.536   3.370   7.346  1.0802  3.6615 -2.8130
  237MOL    H6443016   3.342   3.692   7.230  1.5602  1.4955  0.7738
  237MOL    C6543017   3.320   3.317   7.365 -0.1500  0.5182  0.8969
  237MOL    C6643018   3.172   3.362   7.390  0.3103 -0.1706  0.4476
  237MOL    C6743019   3.122   3.293   7.522 -0.7826 -0.9108 -0.7982
  237MOL    O6843020   3.054   3.192   7.536 -0.0569  0.4316 -0.0206
  237MOL    O6943021   3.183   3.353   7.629 -0.0067  0.5797 -0.2673
  237MOL    H7043022   3.343   3.232   7.430  1.6666  0.6837  0.5021
  237MOL    H7143023   3.329   3.284   7.262 -1.5324  1.5067  0.4519
  237MOL    H7243024   3.146   3.465   7.411  2.4454  0.5469 -0.2226
  237MOL    H7343025   3.130   3.318   7.699 -1.0803  1.2683 -0.7245
  237MOL    C7443026   3.067   3.307   7.276  0.0979 -0.0698  0.0144
  237MOL    C7543027   3.079   3.370   7.138  0.0947  0.6049 -0.3711
  237MOL    C7643028   3.037   3.512   7.134 -0.1132 -0.3578  0.3449
  237MOL    O7743029   3.117   3.603   7.134 -0.4529  0.7664 -0.5194
  237MOL    O7843030   2.900   3.524   7.132 -0.3699  0.1199  0.1593
  237MOL    H7943031   2.968   3.330   7.316  0.6942 -0.3207  1.6785
  237MOL    H8043032   3.082   3.200   7.274 -0.4625 -0.1828  1.1516
  237MOL    H8143033   3.185   3.376   7.115 -0.1986  0.4820 -1.8460
  237MOL    H8243034   2.885   3.618   7.133 -1.2837  0.0039 -1.4887
  237MOL    C8343035   3.013   3.275   7.028 -0.4286  0.7159 -0.0256
  237MOL    C8443036   3.002   3.334   6.883  0.3350 -0.0220  0.1116
  237MOL    C8543037   2.907   3.251   6.801  0.2302 -0.8814 -0.0813
  237MOL    O8643038   2.945   3.154   6.739 -0.0748 -0.0934  0.2174
  237MOL    O8743039   2.784   3.304   6.791 -0.4395 -0.0144 -0.0377
  237MOL    H8843040   2.911   3.251   7.060 -0.5946  1.1997 -0.1942
  237MOL    H8943041   3.063   3.178   7.029 -1.7225  0.0307  2.8823
  237MOL    H9043042   2.957   3.433   6.890  0.5195  0.1471 -0.9512
  237MOL    H9143043   2.742   3.262   6.718  0.7240 -0.5206 -0.4196
  237MOL    C9243044   3.138   3.352   6.819 -0.8953  0.2148 -0.0302
  237MOL    C9343045   3.148   3.452   6.688 -0.0536  0.1370  0.1888
  237MOL    C9443046   3.153   3.371   6.560 -0.2096  0.0104  0.3020
  237MOL    O9543047   3.080   3.389   6.459 -0.5112 -0.7397 -0.1163
  237MOL    O9643048   3.249   3.275   6.567  0.2705 -0.1220 -0.3290
  237MOL    H9743049   3.187   3.257   6.796 -0.5438  1.0377 -2.9108
  237MOL    H9843050   3.211   3.391   6.890 -0.2256  1.2544 -1.2737
  237MOL    H9943051   3.051   3.502   6.685 -0.2029 -0.0770  1.4120
  237MOL   H10043052   3.253   3.206   6.502  2.6672 -0.1209 -0.2431
  237MOL   C10143053   3.268   3.550   6.712  0.1697  1.0063 -0.3678
  237MOL   C10243054   3.289   3.656   6.598  0.4931 -0.1828 -0.0487
  237MOL   C10343055   3.437   3.701   6.612  0.0096 -0.2444  0.3918
  237MOL   O10443056   3.490   3.731   6.719  0.6444  0.4558 -0.3397
  237MOL   O10543057   3.506   3.710   6.496 -0.0531  0.3080  0.2386
  237MOL   H10643058   3.353   3.495   6.752 -0.9665 -0.0425  0.6469
  237MOL   H10743059   3.252   3.601   6.807  0.6817 -0.6391  0.6073
  237MOL   H10843060   3.291   3.611   6.499 -1.2962  0.0966 -0.2351
  237MOL   H10943061   3.592   3.737   6.524 -0.7510 -0.7127  3.6041
  237MOL   C11043062   3.189   3.771   6.596  0.2219  0.5179  0.4854
  237MOL   C11143063   3.149   3.838   6.464 -0.6969 -0.1060 -0.0056
  237MOL   C11243064   3.116   3.724   6.357 -0.0202 -0.5205  0.8866
  237MOL   O11343065   3.182   3.717   6.250 -0.2286 -0.0830 -0.5705
  237MOL   O11443066   3.019   3.633   6.400 -0.1779 -0.2793  0.4034
  237MOL   H11543067   3.222   3.847   6.667  1.2276  1.3082 -0.8013
  237MOL   H11643068   3.100   3.727   6.641 -0.1964 -0.1802 -0.9854
  237MOL   H11743069   3.053   3.891   6.463 -0.6022  0.0684  0.1581
  237MOL   H11843070   3.014   3.565   6.335  1.4075  0.2691 -0.3179
  237MOL   C11943071   3.243   3.953   6.419 -0.1292  0.8867  0.2589
  237MOL   C12043072   3.190   4.039   6.298 -0.2034  0.4747  0.2268
  237MOL   C12143073   3.300   4.034   6.190 -0.5754  0.5122  1.0301
  237MOL   O12243074   3.364   4.136   6.156  0.7926  0.1585 -0.1988
  237MOL   O12343075   3.314   3.908   6.147 -0.0434  0.4387 -0.3008
  237MOL   H12443076   3.344   3.918   6.399 -0.1578  0.1001  1.4930
  237MOL   H12543077   3.265   4.016   6.505 -2.0170  2.5733 -0.4455
  237MOL   H12643078   3.104   3.987   6.257 -0.1475 -1.2752  2.2461
  237MOL   H12743079   3.261   3.845   6.193 -0.4704  2.3482  1.9371
  237MOL   C12843080   3.138   4.180   6.336 -0.0440 -0.4728 -0.2810
  237MOL   C12943081   2.992   4.196   6.379  0.6425 -0.1737  0.6120
  237MOL   C13043082   2.912   4.255   6.259  0.4993 -0.5512 -0.2297
  237MOL   O13143083   2.905   4.375   6.231  0.5489  0.1318  0.4493
  237MOL   O13243084   2.841   4.165   6.190  0.0574  0.5992  0.3862
  237MOL   H13343085   3.152   4.237   6.245  1.0287  0.3696  0.4053
  237MOL   H13443086   3.200   4.229   6.411  1.4753  0.4079 -2.0929
  237MOL   H13543087   2.948   4.097   6.389 -0.4068  0.1458 -0.5729
  237MOL   H13643088   2.790   4.213   6.126 -0.1068  0.9437  0.7711
  237MOL   C13743089   2.981   4.286   6.508  0.1236  0.5515  0.4978
  237MOL   C13843090   3.033   4.216   6.637 -0.3205 -0.1295  0.5103
  237MOL   C13943091   2.929   4.140   6.713  0.8617  0.2333 -0.7769
  237MOL   O14043092   2.944   4.024   6.745 -0.0120  0.0403  0.1646
  237MOL   O14143093   2.815   4.214   6.725 -0.2763  0.4811  0.1947
  237MOL   H14243094   2.888   4.341   6.521 -0.3364 -0.6468  2.6044
  237MOL   H14343095   3.053   4.362   6.477  0.4731 -0.0094 -0.0884
  237MOL   H14443096   3.106   4.138   6.617 -1.6006 -0.6619 -2.4214
  237MOL   H14543097   2.831   4.300   6.689 -0.7992 -0.1877 -1.6950
  237MOL   C14643098   3.083   4.325   6.734 -0.1429 -0.4640  0.4642
  237MOL   C14743099   3.209   4.282   6.809  0.2537  0.3849  0.6247
  237MOL   C14843100   3.332   4.282   6.717  1.1578  0.0189 -0.0052
  237MOL   O14943101   3.386   4.180   6.676 -0.6625  0.0421 -0.2275
  237MOL   O15043102   3.367   4.408   6.674  0.2781  0.3752  0.4767
  237MOL   H15143103   3.010   4.357   6.808  0.1606 -0.6461  0.8471
  237MOL   H15243104   3.108   4.418   6.684 -1.6763 -0.4762 -0.3388
  237MOL   H15343105   3.239   4.363   6.876  1.3288  1.0500 -0.6527
  237MOL   H15443106   3.317   4.476   6.715 -0.5976 -1.4663  2.6003
  237MOL   C15543107   3.204   4.153   6.890  0.2391  0.4133  0.2940
  237MOL   C15643108   3.323   4.104   6.985  0.1864  0.6535  0.2753
  237MOL   C15743109   3.368   3.958   6.950 -0.3456  0.1199  0.2539
  237MOL   O15843110   3.373   3.865   7.026  0.2521 -0.1989  0.2678
  237MOL   O15943111   3.418   3.946   6.827 -0.1230  0.0502  0.2535
  237MOL   H16043112   3.193   4.077   6.813 -1.5785 -0.4231  1.3591
  237MOL   H16143113   3.111   4.151   6.947 -1.1277  2.9157 -1.7180
  237MOL   H16243114   3.414   4.158   6.961  0.2041  1.2398  1.6167
  237MOL   H16343115   3.437   3.861   6.792  1.2757  0.7177 -0.6845
  237MOL   C16443116   3.273   4.125   7.138 -0.1599  0.0593 -0.0409
  237MOL   C16543117   3.302   4.266   7.184  0.0712 -0.4382  0.1786
  237MOL   C16643118   3.452   4.286   7.234 -0.9186  0.4776 -0.1103
  237MOL   O16743119   3.551   4.226   7.184  0.1433 -0.4401 -0.4928
  237MOL   O16843120   3.462   4.376   7.331  0.6309 -0.3080  0.5696
  237MOL   H16943121   3.315   4.054   7.209 -1.8110 -1.9902 -1.0654
  237MOL   H17043122   3.165   4.113   7.144 -0.3056  1.4331  0.4535
  237MOL   H17143123   3.301   4.336   7.100  0.6915  2.6291  2.6074
  237MOL   H17243124   3.554   4.387   7.347  0.5940  0.5463  0.1695
  237MOL   C17343125   3.199   4.304   7.292  0.5988 -0.1475 -0.1628
  237MOL   C17443126   3.192   4.214   7.419 -0.1748 -0.3298  0.3643
  237MOL   C17543127   3.115   4.292   7.532  0.8076 -0.7029 -0.4989
  237MOL   O17643128   3.164   4.383   7.596 -0.8352  0.5164 -0.4015
  237MOL   O17743129   2.986   4.245   7.540 -0.2355  0.0334 -0.2892
  237MOL   H17843130   3.107   4.307   7.234  0.0616  0.8325  0.7263
  237MOL   H17943131   3.208   4.406   7.331 -0.1865  0.7047 -2.1798
  237MOL   H18043132   3.133   4.129   7.385  0.0390  0.2180 -1.4513
  237MOL   H18143133   2.930   4.288   7.602 -0.0463 -1.5527  1.0102
  237MOL   H18243134   3.286   4.180   7.464 -0.8548 -1.5001  0.9030
  238MOL     C143135   6.273   7.139   4.188  0.4747 -0.5425 -0.2414
  238MOL     C243136   6.227   7.270   4.247 -0.0571 -0.0307 -0.1175
  238MOL     C343137   6.098   7.260   4.331 -0.8716  0.3154 -0.4740
  238MOL     O443138   6.060   7.158   4.392 -0.3346  0.0865 -0.2211
  238MOL     O543139   6.033   7.377   4.341 -0.3697  0.2973  0.3105
  238MOL     H643140   6.300   7.065   4.264  1.2433  2.5072  2.5966
  238MOL     H743141   6.192   7.088   4.135  0.0883 -1.2567  1.0130
  238MOL     H843142   6.314   7.295   4.309 -0.0879 -0.4081  0.0785
  238MOL     H943143   5.954   7.376   4.392 -0.6473  0.0778 -0.1189
  238MOL    H1043144   6.361   7.152   4.125  0.8632 -0.8609  0.2306
  238MOL    C1143145   6.227   7.385   4.146  0.5009  0.5570  0.2593
  238MOL    C1243146   6.112   7.389   4.031 -0.7929  0.8381  0.7250
  238MOL    C1343147   6.099   7.259   3.940  0.1342  0.6001 -1.1875
  238MOL    O1443148   6.184   7.182   3.903 -0.0797  0.7082  0.3959
  238MOL    O1543149   5.964   7.245   3.897 -0.2979  0.4235  0.5267
  238MOL    H1643150   6.321   7.374   4.093  0.0319  0.9245 -0.6658
  238MOL    H1743151   6.238   7.479   4.201 -1.5909  0.1392  1.4436
  238MOL    H1843152   6.016   7.409   4.077 -2.0452  1.2459 -1.9568
  238MOL    H1943153   5.951   7.159   3.859 -2.7850  1.7398 -1.8041
  238MOL    C2043154   6.153   7.508   3.936  0.5005  0.1021 -0.6186
  238MOL    C2143155   6.044   7.589   3.864  0.3913  0.7251  0.0303
  238MOL    C2243156   6.107   7.696   3.773 -0.1540  0.2715  0.2374
  238MOL    O2343157   6.226   7.735   3.772  0.3738  0.2566  0.1143
  238MOL    O2443158   6.013   7.755   3.693 -0.1824 -0.6535 -0.6676
  238MOL    H2543159   6.229   7.471   3.867 -0.6883  0.2291 -2.0261
  238MOL    H2643160   6.205   7.584   3.995  0.7529  0.4398 -1.2677
  238MOL    H2743161   5.995   7.517   3.798  0.4814 -2.1185  2.9735
  238MOL    H2843162   6.061   7.823   3.649 -1.6642  0.9207  0.0731
  238MOL    C2943163   5.935   7.647   3.959 -0.3590  0.8052 -0.4121
  238MOL    C3043164   5.968   7.781   4.029  0.0586 -0.2221  0.8119
  238MOL    C3143165   6.062   7.757   4.149  0.8942 -0.3200 -0.6759
  238MOL    O3243166   6.175   7.810   4.159  0.0269 -0.1768  0.0236
  238MOL    O3343167   6.017   7.662   4.238  0.4466  0.1702 -0.1174
  238MOL    H3443168   5.901   7.574   4.032 -2.4414  1.5020 -0.6617
  238MOL    H3543169   5.848   7.660   3.895 -0.7422  0.4824  0.0404
  238MOL    H3643170   6.019   7.850   3.963 -1.4595  0.9587  0.8543
  238MOL    H3743171   6.079   7.643   4.308  1.5459  1.5772 -0.6910
  238MOL    C3843172   5.846   0.004   4.081  0.2611 -0.0605 -0.6095
  238MOL    C3943173   5.835   0.155   4.054 -0.0926  0.8642  0.1099
  238MOL    C4043174   5.812   0.189   3.904  0.2173 -0.0312  0.6713
  238MOL    O4143175   5.801   0.111   3.813  0.0430  0.1890  0.0589
  238MOL    O4243176   5.797   0.322   3.883  0.1746 -0.4632  0.1596
  238MOL    H4343177   5.831   7.846   4.188  1.5283 -0.1806 -0.4458
  238MOL    H4443178   5.759   7.817   4.029  0.8107  0.5036 -1.9983
  238MOL    H4543179   5.738   0.176   4.099 -1.4916 -1.2861 -1.7954
  238MOL    H4643180   5.769   0.334   3.794 -1.2366 -1.2053  0.4948
  238MOL    C4743181   5.951   0.229   4.124 -0.7283 -0.4928 -0.0970
  238MOL    C4843182   5.913   0.368   4.191 -0.7512 -0.2275 -0.5322
  238MOL    C4943183   6.038   0.454   4.213 -0.2725 -0.0207  0.7421
  238MOL    O5043184   6.151   0.412   4.187  0.5842 -0.5489  0.1610
  238MOL    O5143185   6.009   0.571   4.263 -0.1527  0.7629  0.6124
  238MOL    H5243186   6.035   0.234   4.056  0.0301 -1.2208  0.7732
  238MOL    H5343187   5.991   0.165   4.202 -1.7362  0.1904  1.0071
  238MOL    H5443188   5.855   0.420   4.115  0.9390  1.3374 -0.8010
  238MOL    H5543189   6.091   0.617   4.271 -0.1864  0.7314  1.1636
  238MOL    C5643190   5.839   0.359   4.325 -0.0215 -0.2179 -0.3899
  238MOL    C5743191   5.695   0.426   4.332 -0.2057  0.1474  0.0531
  238MOL    C5843192   5.702   0.575   4.291  0.4137  0.1852  0.2600
  238MOL    O5943193   5.763   0.659   4.352  0.1010 -0.3439  0.2923
  238MOL    O6043194   5.636   0.598   4.177  0.0807 -0.6396  0.1642
  238MOL    H6143195   5.896   0.394   4.411  2.4382 -2.6748 -0.9290
  238MOL    H6243196   5.833   0.252   4.348  0.6298 -0.1378  0.1666
  238MOL    H6343197   5.633   0.380   4.255 -0.5090  1.3863 -0.4400
  238MOL    H6443198   5.668   0.680   4.143 -0.4200  0.1528  1.5766
  238MOL    C6543199   5.630   0.404   4.467  0.0660  0.2571 -0.0094
  238MOL    C6643200   5.479   0.361   4.470 -0.2287  0.1118  0.5853
  238MOL    C6743201   5.453   0.251   4.368  0.0580 -0.8536 -0.7615
  238MOL    O6843202   5.375   0.254   4.273 -0.0118  0.1286  0.6341
  238MOL    O6943203   5.516   0.144   4.409  0.5256 -0.2783 -0.3014
  238MOL    H7043204   5.644   0.487   4.535  2.6971 -0.0245 -0.1470
  238MOL    H7143205   5.687   0.331   4.525 -0.0213  0.8898  0.8761
  238MOL    H7243206   5.470   0.312   4.567  0.9097  0.8614  1.0856
  238MOL    H7343207   5.498   0.066   4.360  1.6979 -0.9087  0.2543
  238MOL    C7443208   5.386   0.483   4.458 -0.1608 -0.4862  0.2262
  238MOL    C7543209   5.371   0.585   4.575  0.3276 -0.2473 -0.0505
  238MOL    C7643210   5.257   0.538   4.674  0.9229 -0.5790  0.3413
  238MOL    O7743211   5.138   0.556   4.648  0.0270  0.0954 -0.4826
  238MOL    O7843212   5.304   0.464   4.776  0.2631 -0.1025 -0.8920
  238MOL    H7943213   5.284   0.452   4.433 -1.5875  3.6669  0.4912
  238MOL    H8043214   5.408   0.542   4.368  1.0546  3.2797  2.8506
  238MOL    H8143215   5.459   0.588   4.640  1.1840  1.5448 -1.2625
  238MOL    H8243216   5.398   0.449   4.780  0.4037  0.6866 -1.1096
  238MOL    C8343217   5.332   0.732   4.536 -0.1556 -0.1200  0.0796
  238MOL    C8443218   5.438   0.835   4.481  0.7198  0.8396  0.0978
  238MOL    C8543219   5.535   0.882   4.589  0.3392  0.4610  0.1408
  238MOL    O8643220   5.518   0.985   4.649  0.1188 -0.3437  0.7521
  238MOL    O8743221   5.639   0.792   4.616  0.3355 -0.1163 -0.0510
  238MOL    H8843222   5.292   0.778   4.626 -1.1316 -2.0482  0.6766
  238MOL    H8943223   5.263   0.723   4.452 -1.3139  1.8863  0.8144
  238MOL    H9043224   5.484   0.783   4.397 -0.8844 -0.8108  0.2147
  238MOL    H9143225   5.683   0.828   4.691 -0.1993  0.0800  0.1701
  238MOL    C9243226   5.374   0.947   4.397  0.1472 -0.0755 -0.6454
  238MOL    C9343227   5.458   1.027   4.288  0.2269  0.1656  0.1069
  238MOL    C9443228   5.510   1.160   4.346  0.4085  0.2521  0.5033
  238MOL    O9543229   5.459   1.274   4.335 -0.5058  0.0319  0.1574
  238MOL    O9643230   5.624   1.131   4.417 -0.2261  0.1865 -0.0052
  238MOL    H9743231   5.318   1.026   4.445 -1.9350 -1.6216 -0.4281
  238MOL    H9843232   5.298   0.898   4.335 -0.7235  1.8605 -1.1545
  238MOL    H9943233   5.544   0.970   4.256 -1.8055 -1.2670 -2.9835
  238MOL   H10043234   5.651   1.210   4.463  0.9498 -0.0211 -0.3270
  238MOL   C10143235   5.371   1.052   4.159  0.6841  0.7783  0.3562
  238MOL   C10243236   5.435   1.143   4.044 -0.4369 -0.9083 -0.5776
  238MOL   C10343237   5.359   1.277   4.010  0.1925  0.3520 -0.5735
  238MOL   O10443238   5.309   1.294   3.901 -0.0528 -0.2777  0.2115
  238MOL   O10543239   5.352   1.365   4.116  0.2870  0.4560  0.1892
  238MOL   H10643240   5.275   1.096   4.185  0.0783  0.7177 -1.7013
  238MOL   H10743241   5.344   0.954   4.120  1.1914  0.8017 -0.0554
  238MOL   H10843242   5.529   1.180   4.084 -0.7781  0.7128 -1.2515
  238MOL   H10943243   5.394   1.328   4.192  0.3499  0.1471  0.0084
  238MOL   C11043244   5.473   1.073   3.913  0.1532  0.3903  0.3654
  238MOL   C11143245   5.556   0.944   3.919  0.2485 -0.3077  0.0501
  238MOL   C11243246   5.678   0.964   4.010  0.4823 -0.9852 -0.5523
  238MOL   O11343247   5.730   1.073   4.023 -0.4596  0.1890 -0.9589
  238MOL   O11443248   5.719   0.843   4.068 -0.6428  0.0654  0.2646
  238MOL   H11543249   5.524   1.144   3.848  0.9334  0.4441  1.0261
  238MOL   H11643250   5.381   1.050   3.859  0.7103  0.0593 -0.4524
  238MOL   H11743251   5.490   0.861   3.943 -1.0122  0.2251 -1.4503
  238MOL   H11843252   5.787   0.879   4.123 -1.3664 -1.0452  1.9310
  238MOL   C11943253   5.617   0.914   3.777  0.2774  0.0492  0.2932
  238MOL   C12043254   5.703   0.786   3.744 -0.1834  0.3911  0.2949
  238MOL   C12143255   5.855   0.807   3.764 -0.1604  0.7867 -0.6715
  238MOL   O12243256   5.919   0.906   3.727  0.0388 -0.1491  0.2456
  238MOL   O12343257   5.916   0.694   3.805  0.5049  0.4573 -0.3497
  238MOL   H12443258   5.677   1.000   3.746  1.4648  0.4393  3.4405
  238MOL   H12543259   5.530   0.918   3.712  0.8466 -1.8797 -0.6093
  238MOL   H12643260   5.671   0.715   3.819 -1.7590 -0.1914 -0.8972
  238MOL   H12743261   6.010   0.701   3.793  0.7934  0.5967  1.7137
  238MOL   C12843262   5.659   0.728   3.614  0.2275 -0.3748 -0.0688
  238MOL   C12943263   5.714   0.779   3.478  0.3578  0.5498  0.2736
  238MOL   C13043264   5.849   0.721   3.448  0.1481 -0.5721 -1.0513
  238MOL   O13143265   5.940   0.792   3.406  0.5468 -0.1343  0.0751
  238MOL   O13243266   5.863   0.584   3.448  0.0373 -0.0006  0.3102
  238MOL   H13343267   5.550   0.728   3.611  0.2329 -0.6419 -0.2974
  238MOL   H13443268   5.681   0.622   3.629  0.0185 -0.4905 -0.5692
  238MOL   H13543269   5.650   0.723   3.410  3.4745 -1.5557 -1.0939
  238MOL   H13643270   5.801   0.529   3.494 -0.3044 -0.7789 -1.0638
  238MOL   C13743271   5.685   0.925   3.445 -0.3503 -1.0272 -0.4243
  238MOL   C13843272   5.668   0.961   3.293  0.1831 -0.0561  0.7073
  238MOL   C13943273   5.783   1.069   3.261  0.6182 -0.2265  0.1747
  238MOL   O14043274   5.890   1.043   3.209  0.1513 -0.4011  0.0320
  238MOL   O14143275   5.745   1.194   3.296  0.4237 -0.6692 -0.2179
  238MOL   H14243276   5.771   0.979   3.484 -0.2916 -2.6293  1.8282
  238MOL   H14343277   5.603   0.973   3.498  2.1739  1.3271  1.4972
  238MOL   H14443278   5.697   0.871   3.239  0.5603 -0.3219  1.3425
  238MOL   H14543279   5.819   1.244   3.263  0.8794 -0.8872  0.4574
  238MOL   C14643280   5.524   1.007   3.250 -0.5076 -0.0142  0.1788
  238MOL   C14743281   5.417   0.903   3.264  0.6018 -0.1429  0.2385
  238MOL   C14843282   5.434   0.793   3.165 -0.1180  0.6895 -0.1064
  238MOL   O14943283   5.454   0.678   3.203  0.0490 -0.0357 -0.0279
  238MOL   O15043284   5.435   0.843   3.045  0.0910  0.4363 -0.4166
  238MOL   H15143285   5.524   1.045   3.147  1.0523  2.2722  0.9732
  238MOL   H15243286   5.494   1.101   3.296  1.0645  1.2957 -1.3894
  238MOL   H15343287   5.453   0.867   3.361 -1.9540 -2.6580  0.3202
  238MOL   H15443288   5.442   0.775   2.980  0.2489 -1.1051  1.1679
  238MOL   C15543289   5.273   0.961   3.259 -0.3484  0.0539  0.1680
  238MOL   C15643290   5.168   0.880   3.337  0.9950 -0.6116 -0.3403
  238MOL   C15743291   5.026   0.906   3.293  0.4901  0.4042 -0.0285
  238MOL   O15843292   4.947   0.813   3.269  0.4402  0.3392 -0.1568
  238MOL   O15943293   4.994   1.033   3.267  0.2815 -0.5259  0.1345
  238MOL   H16043294   5.238   0.967   3.156 -2.6235 -0.9126  0.8530
  238MOL   H16143295   5.280   1.065   3.289 -0.8647  0.3972 -0.8668
  238MOL   H16243296   5.188   0.781   3.295 -0.9741 -0.9723 -0.4663
  238MOL   H16343297   4.906   1.042   3.234 -0.4255 -3.1964  1.1985
  238MOL   C16443298   5.182   0.885   3.495  0.3215 -0.3896 -0.4487
  238MOL   C16543299   5.140   1.017   3.568  0.4132 -0.2048  0.2326
  238MOL   C16643300   5.233   1.134   3.544  1.2159 -0.1630  0.8299
  238MOL   O16743301   5.352   1.123   3.553 -0.6905  0.1067  0.2142
  238MOL   O16843302   5.170   1.246   3.506 -0.0701 -0.0841  0.6566
  238MOL   H16943303   5.280   0.866   3.538  0.9281 -0.3562 -1.7881
  238MOL   H17043304   5.121   0.803   3.534  0.1047 -0.4227 -0.8501
  238MOL   H17143305   5.041   1.041   3.529 -0.4025 -3.3941  0.2329
  238MOL   H17243306   5.239   1.311   3.502 -0.6278  0.5745  1.4558
  238MOL   C17343307   5.125   0.986   3.719  0.1886 -0.2540  0.7673
  238MOL   C17443308   5.050   1.092   3.811  0.0942  0.5364  0.0974
  238MOL   C17543309   5.040   1.055   3.963 -0.4565  0.0050 -0.8432
  238MOL   O17643310   5.061   0.945   4.010  0.2633 -0.6988 -0.5796
  238MOL   O17743311   5.002   1.160   4.034 -0.2278  0.7679 -0.2542
  238MOL   H17843312   5.219   0.951   3.762  1.5310  1.5227 -0.6689
  238MOL   H17943313   5.070   0.894   3.742  1.2829 -0.7780  1.3450
  238MOL   H18043314   5.100   1.187   3.793  4.2260 -1.6169 -0.3009
  238MOL   H18143315   5.004   1.137   4.126  0.6966  0.5533 -0.3306
  238MOL   H18243316   4.946   1.110   3.784 -1.1828  1.0426  4.9237
  239MOL     C143317   5.237   5.520   5.868 -0.2510 -0.4177  1.2219
  239MOL     C243318   5.130   5.497   5.976 -0.1639 -0.2351  0.8386
  239MOL     C343319   5.179   5.393   6.076 -0.5258  0.1399 -0.3491
  239MOL     O443320   5.141   5.280   6.086 -1.2312  0.3878  0.2512
  239MOL     O543321   5.283   5.431   6.155  0.2531 -0.7006 -0.2977
  239MOL     H643322   5.218   5.607   5.804 -0.8419 -1.1803  0.3420
  239MOL     H743323   5.338   5.537   5.906 -1.2459 -0.2312  3.8437
  239MOL     H843324   5.117   5.592   6.028  1.3183  1.2809 -1.4580
  239MOL     H943325   5.294   5.373   6.228  1.4937 -0.9206 -0.6557
  239MOL    H1043326   5.244   5.434   5.801  0.4233 -0.3354  1.1770
  239MOL    C1143327   4.996   5.461   5.902 -0.3674 -0.5175 -0.3224
  239MOL    C1243328   4.940   5.556   5.798 -0.0866 -0.2816 -0.4692
  239MOL    C1343329   4.925   5.693   5.859 -0.2280  0.4928 -0.1166
  239MOL    O1443330   4.954   5.793   5.797  0.5853 -0.3437  0.3152
  239MOL    O1543331   4.867   5.692   5.979 -0.4586 -0.3090  0.7463
  239MOL    H1643332   4.916   5.443   5.974 -2.6710  0.3364 -2.5830
  239MOL    H1743333   5.018   5.363   5.860 -0.5481 -0.4698 -0.5269
  239MOL    H1843334   5.014   5.550   5.718 -0.4466 -0.6198 -0.7756
  239MOL    H1943335   4.856   5.774   6.025 -1.5808 -0.7786  1.3335
  239MOL    C2043336   4.802   5.515   5.735  0.1746 -0.4534  0.2723
  239MOL    C2143337   4.750   5.599   5.618  0.3866 -0.3361 -0.6581
  239MOL    C2243338   4.604   5.565   5.588  0.9745  0.5243  0.3678
  239MOL    O2343339   4.517   5.645   5.582 -0.0118 -0.1034  0.0646
  239MOL    O2443340   4.587   5.431   5.548 -0.4158 -0.6526 -0.6006
  239MOL    H2543341   4.727   5.507   5.814  0.5089  0.8805  0.7364
  239MOL    H2643342   4.804   5.413   5.698 -1.7480 -0.3512 -0.1726
  239MOL    H2743343   4.735   5.702   5.651 -3.5012 -0.8664 -0.5354
  239MOL    H2843344   4.496   5.415   5.529 -0.6926  1.6743 -1.3704
  239MOL    C2943345   4.828   5.588   5.486  0.4639  0.0034  0.0850
  239MOL    C3043346   4.947   5.682   5.478  0.5593  0.4432 -0.7403
  239MOL    C3143347   4.900   5.829   5.439  0.0028  0.1185 -0.2230
  239MOL    O3243348   4.852   5.861   5.331  0.4555 -0.2495 -0.1524
  239MOL    O3343349   4.912   5.913   5.543  0.1182 -0.2491 -0.2758
  239MOL    H3443350   4.769   5.599   5.395  0.2546 -3.4394 -0.2428
  239MOL    H3543351   4.856   5.483   5.488 -0.9618 -0.3702  1.3283
  239MOL    H3643352   4.989   5.684   5.578 -1.7925 -1.4054  0.3006
  239MOL    H3743353   4.951   5.869   5.617  0.7823  0.5870 -0.1189
  239MOL    C3843354   5.069   5.637   5.392 -0.5907 -0.1890 -0.2832
  239MOL    C3943355   5.206   5.625   5.474  0.4645  0.2086  0.5069
  239MOL    C4043356   5.264   5.765   5.501 -0.9765 -0.4828 -0.0538
  239MOL    O4143357   5.241   5.818   5.610  0.4340 -0.2834 -0.4437
  239MOL    O4243358   5.324   5.821   5.395 -0.1383 -0.0588  0.2401
  239MOL    H4343359   5.080   5.706   5.308  1.0810 -0.3833 -0.2394
  239MOL    H4443360   5.032   5.543   5.353  1.6906 -1.7715  1.2363
  239MOL    H4543361   5.183   5.557   5.556 -0.6031 -1.5928 -1.2383
  239MOL    H4643362   5.364   5.903   5.422 -0.7342  0.6235 -0.8792
  239MOL    C4743363   5.308   5.538   5.391 -0.0450 -0.2386  1.0227
  239MOL    C4843364   5.458   5.515   5.433 -0.0885 -0.3931 -0.0939
  239MOL    C4943365   5.539   5.456   5.317 -0.3206  0.2650  0.2380
  239MOL    O5043366   5.487   5.410   5.214  0.5326 -0.2065 -0.2488
  239MOL    O5143367   5.676   5.454   5.332 -0.2489  0.5744 -0.0868
  239MOL    H5243368   5.320   5.581   5.292 -1.7497 -1.5426  0.2307
  239MOL    H5343369   5.268   5.438   5.374 -0.0122 -0.0158 -0.3777
  239MOL    H5443370   5.505   5.612   5.447  0.3448 -0.5521 -0.4479
  239MOL    H5543371   5.721   5.421   5.255  2.0247 -1.4389  2.0172
  239MOL    C5643372   5.483   5.438   5.575  0.2830 -0.3751  0.6286
  239MOL    C5743373   5.496   5.284   5.578  0.0530  0.2342 -0.3875
  239MOL    C5843374   5.369   5.220   5.516 -0.4075 -0.2561 -0.6464
  239MOL    O5943375   5.356   5.189   5.401  0.1490 -0.0495 -0.3501
  239MOL    O6043376   5.266   5.212   5.603  0.1272  0.0564  0.4964
  239MOL    H6143377   5.410   5.465   5.651 -2.3527  2.1768 -2.6578
  239MOL    H6243378   5.587   5.464   5.597  0.2331  1.4696 -1.1819
  239MOL    H6343379   5.577   5.251   5.513  0.9956 -0.6453  1.2038
  239MOL    H6443380   5.196   5.166   5.560  1.0853 -1.4859  0.5811
  239MOL    C6543381   5.533   5.226   5.722  0.6642 -0.0561 -0.9620
  239MOL    C6643382   5.671   5.268   5.782  0.3317 -1.1421  0.9680
  239MOL    C6743383   5.791   5.234   5.693  0.1173 -0.5028 -0.3964
  239MOL    O6843384   5.861   5.137   5.712  0.0043 -0.2486 -0.4556
  239MOL    O6943385   5.797   5.318   5.588 -0.3004  0.5596 -0.5752
  239MOL    H7043386   5.528   5.117   5.721 -3.0552  0.0436 -0.5430
  239MOL    H7143387   5.452   5.248   5.791  0.8549 -1.5869 -0.2383
  239MOL    H7243388   5.663   5.376   5.793  1.0292 -0.6543 -2.6352
  239MOL    H7343389   5.882   5.288   5.558  0.0764  1.6570 -0.6093
  239MOL    C7443390   5.681   5.201   5.916  0.3046  0.3686 -0.6982
  239MOL    C7543391   5.611   5.247   6.043 -0.4531  0.1172 -0.0551
  239MOL    C7643392   5.652   5.392   6.066  0.2152  0.0247  0.4541
  239MOL    O7743393   5.763   5.425   6.098 -0.2757 -0.8421 -0.0640
  239MOL    O7843394   5.555   5.484   6.038 -0.0318 -0.4592  0.2253
  239MOL    H7943395   5.786   5.193   5.944 -0.2618 -0.0983  1.4044
  239MOL    H8043396   5.664   5.096   5.894  1.6056  0.6093 -2.9937
  239MOL    H8143397   5.505   5.233   6.024 -0.6200  1.7031 -0.2985
  239MOL    H8243398   5.587   5.570   6.058 -1.1525 -0.1249  0.6089
  239MOL    C8343399   5.646   5.144   6.158 -0.0884  0.4229  0.2686
  239MOL    C8443400   5.554   5.124   6.279  0.4504 -0.4789  0.0838
  239MOL    C8543401   5.516   5.250   6.340  0.2720  0.2482  0.2619
  239MOL    O8643402   5.404   5.296   6.330 -0.0822 -0.1324 -0.3917
  239MOL    O8743403   5.623   5.301   6.401  0.5253  0.3184 -0.2444
  239MOL    H8843404   5.745   5.166   6.196 -0.2020  0.9675  0.2567
  239MOL    H8943405   5.653   5.044   6.115 -0.1477 -1.2194  3.8761
  239MOL    H9043406   5.465   5.075   6.241  0.0510  0.4192 -0.1503
  239MOL    H9143407   5.603   5.393   6.399 -0.7525  0.0885  1.2402
  239MOL    C9243408   5.615   5.019   6.373 -0.2437 -0.0942 -0.3902
  239MOL    C9343409   5.516   4.991   6.493  0.2674  0.0783 -0.1593
  239MOL    C9443410   5.589   4.948   6.622 -0.0624  0.7780  0.0206
  239MOL    O9543411   5.697   4.889   6.620 -0.1004 -0.2121 -0.0236
  239MOL    O9643412   5.519   4.972   6.736  0.5694  0.2175 -0.4584
  239MOL    H9743413   5.713   5.052   6.406 -0.5138  0.0522  0.2632
  239MOL    H9843414   5.635   4.922   6.327  0.7393 -1.2037  2.2476
  239MOL    H9943415   5.453   5.076   6.520  1.1413  0.3906  0.9404
  239MOL   H10043416   5.578   4.964   6.809  0.6617 -1.1136 -0.6596
  239MOL   C10143417   5.420   4.870   6.460  0.1935 -0.0822  0.2379
  239MOL   C10243418   5.281   4.857   6.531  0.0273 -0.4111  0.1426
  239MOL   C10343419   5.227   4.714   6.499 -0.3253 -0.2298 -0.1396
  239MOL   O10443420   5.212   4.672   6.384  0.5420  0.6043 -0.1109
  239MOL   O10543421   5.198   4.641   6.611 -0.0428  0.0572 -0.1577
  239MOL   H10643422   5.468   4.773   6.473  2.9004  1.1354 -0.2300
  239MOL   H10743423   5.395   4.879   6.354 -0.5472  1.4044  0.5218
  239MOL   H10843424   5.289   4.855   6.640 -1.5745  0.8914  0.3123
  239MOL   H10943425   5.224   4.678   6.694  0.4057  1.0540 -0.7329
  239MOL   C11043426   5.174   4.964   6.492 -0.1877  0.6165  1.0261
  239MOL   C11143427   5.175   5.101   6.553 -0.2460  0.5939 -1.0085
  239MOL   C11243428   5.176   5.088   6.707  0.1862 -0.3731  0.2347
  239MOL   O11343429   5.096   5.025   6.776 -0.3189 -0.2722  0.0903
  239MOL   O11443430   5.260   5.169   6.770 -0.4968 -0.0332 -0.0090
  239MOL   H11543431   5.075   4.919   6.496  0.3792 -0.6234  1.2199
  239MOL   H11643432   5.200   4.982   6.388 -0.8774 -1.5184  0.4724
  239MOL   H11743433   5.268   5.152   6.524 -0.4037  1.7936  0.5623
  239MOL   H11843434   5.313   5.222   6.713 -1.8958  0.8295 -0.5357
  239MOL   C11943435   5.065   5.194   6.489 -0.3880 -0.6517 -0.1937
  239MOL   C12043436   5.075   5.352   6.511  0.3042  0.0288 -0.1558
  239MOL   C12143437   5.052   5.391   6.661 -0.1382  0.3105  0.1197
  239MOL   O12243438   4.941   5.407   6.710  0.2090  0.5145  0.1211
  239MOL   O12343439   5.169   5.418   6.725 -0.2711 -0.0242  0.3713
  239MOL   H12443440   4.966   5.156   6.512 -1.9723  1.0371 -3.8549
  239MOL   H12543441   5.073   5.178   6.382 -0.9081  1.7128 -0.6045
  239MOL   H12643442   5.179   5.375   6.491  0.1986 -0.5079 -1.3850
  239MOL   H12743443   5.136   5.428   6.813 -2.3165 -0.3414 -0.3419
  239MOL   C12843444   4.976   5.419   6.420 -0.4191 -0.0266 -0.7609
  239MOL   C12943445   4.981   5.578   6.424 -0.5610  0.4544 -0.6882
  239MOL   C13043446   4.859   5.627   6.344  0.4121 -0.5500 -0.4003
  239MOL   O13143447   4.758   5.676   6.393 -0.4946  0.5032 -0.2884
  239MOL   O13243448   4.880   5.591   6.212  0.7341 -0.3417  0.3219
  239MOL   H13343449   4.874   5.390   6.443 -0.2038  0.8095  1.3348
  239MOL   H13443450   5.002   5.394   6.317 -0.1399  1.8211 -1.1569
  239MOL   H13543451   4.972   5.625   6.522 -0.1152  1.6178 -1.1900
  239MOL   H13643452   4.809   5.617   6.155  1.8672  0.6116 -0.6603
  239MOL   C13743453   5.109   5.635   6.347  0.1219 -0.3514 -0.9077
  239MOL   C13843454   5.108   5.791   6.362 -0.8452  0.0191  0.0510
  239MOL   C13943455   5.175   5.858   6.246  0.6402 -0.0111 -0.2672
  239MOL   O14043456   5.282   5.924   6.260  0.0384 -0.2055 -0.2574
  239MOL   O14143457   5.098   5.840   6.136  0.1277  0.0387  0.6897
  239MOL   H14243458   5.111   5.602   6.243 -0.3229  2.4255 -1.8464
  239MOL   H14343459   5.198   5.594   6.394 -0.4373 -0.9880 -0.3828
  239MOL   H14443460   5.004   5.821   6.351 -0.3549  0.8858 -2.7173
  239MOL   H14543461   5.133   5.881   6.059  1.1663 -0.1708  1.0357
  239MOL   C14643462   5.157   5.837   6.499  0.3625 -0.7180  0.7989
  239MOL   C14743463   5.077   5.958   6.557  0.2908  0.2593 -0.8689
  239MOL   C14843464   5.096   6.092   6.481  0.5390 -0.2500  0.0965
  239MOL   O14943465   5.009   6.175   6.452  0.5949 -0.0288  0.3534
  239MOL   O15043466   5.220   6.117   6.447  0.3259  0.1430 -0.3233
  239MOL   H15143467   5.262   5.864   6.486 -0.2185  0.7653 -0.9300
  239MOL   H15243468   5.158   5.757   6.573 -1.2269 -0.3081  1.2748
  239MOL   H15343469   4.969   5.952   6.543 -0.1110  1.7812  1.1994
  239MOL   H15443470   5.229   6.201   6.405  0.2681 -0.0367 -0.7037
  239MOL   C15543471   5.105   5.974   6.711 -0.3552  0.3560 -1.0588
  239MOL   C15643472   5.048   6.101   6.795 -0.4063  0.2933  0.1434
  239MOL   C15743473   5.125   6.142   6.925  0.6572 -0.4353  0.2871
  239MOL   O15843474   5.186   6.060   6.993 -0.0160 -0.1747 -0.5217
  239MOL   O15943475   5.128   6.278   6.947  0.3719  0.3383  0.3480
  239MOL   H16043476   5.212   5.987   6.727 -0.6976  1.2487  0.6312
  239MOL   H16143477   5.079   5.881   6.761 -1.4012  0.8571 -0.6367
  239MOL   H16243478   5.056   6.190   6.733  1.4618  0.0587  0.0219
  239MOL   H16343479   5.154   6.297   7.036  0.8216  1.7413 -0.0745
  239MOL   C16443480   4.895   6.097   6.822 -0.0859  0.4858  0.0859
  239MOL   C16543481   4.840   5.969   6.886  0.0487  0.1317  0.2276
  239MOL   C16643482   4.787   5.865   6.784  1.1590  0.5310 -0.0817
  239MOL   O16743483   4.674   5.868   6.733 -0.2162  0.3756 -0.6036
  239MOL   O16843484   4.866   5.755   6.777 -0.4439 -0.0582  0.2653
  239MOL   H16943485   4.833   6.112   6.734  0.6832  1.0401 -0.3622
  239MOL   H17043486   4.869   6.184   6.881  2.6376 -0.0469  2.2033
  239MOL   H17143487   4.921   5.919   6.939  0.8756 -0.9373 -1.9664
  239MOL   H17243488   4.821   5.690   6.724  1.3444 -0.3386 -0.9633
  239MOL   C17343489   4.725   6.011   6.982  0.4630 -0.3550 -0.6474
  239MOL   C17443490   4.771   6.035   7.127 -0.2527 -0.6926 -0.2516
  239MOL   C17543491   4.807   6.184   7.147  0.2028 -0.6315 -0.3006
  239MOL   O17643492   4.918   6.220   7.193  0.1303  0.6727  0.2096
  239MOL   O17743493   4.699   6.268   7.116  0.1731  0.0152  0.2247
  239MOL   H17843494   4.655   5.928   6.983  1.1357 -0.9819 -2.4142
  239MOL   H17943495   4.663   6.092   6.944  0.1195 -0.8882 -1.2373
  239MOL   H18043496   4.700   6.004   7.203  0.6692 -0.9300  0.5130
  239MOL   H18143497   4.717   6.361   7.124  0.8397 -0.0276 -0.7668
  239MOL   H18243498   4.864   5.983   7.150 -1.5808 -3.3957 -0.8099
  240MOL     C143499   3.277   3.283   2.844  0.6295  1.1167  0.2755
  240MOL     C243500   3.395   3.232   2.757 -0.3913 -0.2002  0.0766
  240MOL     C343501   3.487   3.141   2.834 -0.6903  0.6853  0.3830
  240MOL     O443502   3.502   3.150   2.954  0.3322  0.0992 -0.1082
  240MOL     O543503   3.562   3.063   2.751 -0.0135 -0.1168  0.1484
  240MOL     H643504   3.322   3.332   2.930  0.4723 -0.0457  1.0275
  240MOL     H743505   3.208   3.348   2.789 -0.2072 -0.1375 -0.1755
  240MOL     H843506   3.340   3.177   2.681 -0.0928 -1.3364  0.6732
  240MOL     H943507   3.628   3.010   2.793  0.0234  0.8212  1.2856
  240MOL    H1043508   3.218   3.194   2.867  0.6885  0.5058 -1.8364
  240MOL    C1143509   3.470   3.342   2.684  0.3678 -0.7467  0.0015
  240MOL    C1243510   3.447   3.357   2.530  0.3746 -0.7022  0.0216
  240MOL    C1343511   3.300   3.396   2.516  0.6243  0.4210  0.8786
  240MOL    O1443512   3.213   3.316   2.468 -0.6015  0.7631 -0.5195
  240MOL    O1543513   3.277   3.519   2.567 -0.3782  0.0599  0.2304
  240MOL    H1643514   3.576   3.333   2.708  0.4350 -2.6180 -0.8720
  240MOL    H1743515   3.447   3.427   2.748  1.0181 -1.3957  1.1393
  240MOL    H1843516   3.515   3.436   2.499  0.8915 -1.0736  0.1887
  240MOL    H1943517   3.184   3.531   2.581 -0.4584 -1.1433  0.8503
  240MOL    C2043518   3.503   3.231   2.455  0.0338 -0.1890  0.3893
  240MOL    C2143519   3.559   3.252   2.312 -0.1764  0.7885  0.0251
  240MOL    C2243520   3.683   3.352   2.299  0.2071  0.5479 -0.2042
  240MOL    O2343521   3.723   3.409   2.398  1.0099 -0.4889 -0.3065
  240MOL    O2443522   3.732   3.373   2.176 -1.0960 -0.5027 -0.0764
  240MOL    H2543523   3.427   3.152   2.456  0.0542 -0.2132  1.6946
  240MOL    H2643524   3.585   3.184   2.510 -0.3673  0.5670  1.6613
  240MOL    H2743525   3.617   3.164   2.286  0.2385  0.6151  1.5118
  240MOL    H2843526   3.781   3.453   2.170  0.1767 -1.1573  1.3049
  240MOL    C2943527   3.447   3.294   2.210 -0.1120  0.1018 -0.0643
  240MOL    C3043528   3.427   3.211   2.083  0.3730  0.0362  0.4064
  240MOL    C3143529   3.429   3.065   2.122 -0.7127  0.6459 -0.1227
  240MOL    O3243530   3.519   2.982   2.102  0.4772 -0.2213  0.0848
  240MOL    O3343531   3.315   3.044   2.194 -0.0666 -0.1186 -0.3060
  240MOL    H3443532   3.465   3.395   2.173 -0.2190  0.4986  0.9648
  240MOL    H3543533   3.356   3.299   2.270  0.0018  0.5113  0.0698
  240MOL    H3643534   3.328   3.233   2.044  1.0710  1.2584 -0.7200
  240MOL    H3743535   3.307   2.950   2.200 -1.6873 -0.0650 -1.1354
  240MOL    C3843536   3.528   3.235   1.970 -0.4417  0.2098 -0.3095
  240MOL    C3943537   3.473   3.217   1.830 -0.2009 -0.4089  0.2458
  240MOL    C4043538   3.459   3.070   1.773 -0.5587  0.0868 -0.5081
  240MOL    O4143539   3.372   3.042   1.695  0.0840 -0.3482  0.1589
  240MOL    O4243540   3.564   2.991   1.803 -0.0460 -0.2675 -0.1490
  240MOL    H4343541   3.630   3.198   1.984 -0.6710  0.0324  0.9034
  240MOL    H4443542   3.549   3.341   1.988 -0.8201  0.3602 -0.7470
  240MOL    H4543543   3.382   3.275   1.821  1.2453  2.0083  0.7919
  240MOL    H4643544   3.572   2.912   1.752  0.6848  0.0449 -0.5173
  240MOL    C4743545   3.558   3.287   1.722 -0.6324 -0.4909 -0.4615
  240MOL    C4843546   3.710   3.264   1.728 -0.1887  0.3866 -0.2273
  240MOL    C4943547   3.785   3.369   1.820  0.6699  0.6744 -0.6924
  240MOL    O5043548   3.726   3.467   1.866  0.8954 -0.6216 -0.1988
  240MOL    O5143549   3.912   3.329   1.835  0.3428  0.1590 -0.0029
  240MOL    H5243550   3.529   3.391   1.740 -0.7158 -0.7280  0.8240
  240MOL    H5343551   3.519   3.268   1.622  0.3456 -1.2061 -0.7146
  240MOL    H5443552   3.740   3.172   1.779 -1.2095  0.2778  0.1947
  240MOL    H5543553   3.955   3.387   1.896 -0.6400  0.3018  0.5737
  240MOL    C5643554   3.774   3.259   1.581 -0.0620 -0.4702  0.0855
  240MOL    C5743555   3.741   3.126   1.502  0.3133  0.0984 -0.2535
  240MOL    C5843556   3.817   3.005   1.562  0.7130 -0.7771 -0.0539
  240MOL    O5943557   3.933   3.012   1.589  0.1232  0.3385 -0.4778
  240MOL    O6043558   3.742   2.891   1.566  0.4107 -0.0325 -0.1053
  240MOL    H6143559   3.883   3.261   1.583 -0.0730  1.0165 -0.2107
  240MOL    H6243560   3.752   3.351   1.526  4.9773  2.1641  2.1396
  240MOL    H6343561   3.635   3.106   1.514  0.5414 -1.3926 -0.6681
  240MOL    H6443562   3.794   2.817   1.596  1.2496  0.3386 -0.6115
  240MOL    C6543563   3.759   3.158   1.345 -0.5848 -0.0394  0.7190
  240MOL    C6643564   3.656   3.107   1.243 -0.3460 -0.0706 -0.2415
  240MOL    C6743565   3.642   2.952   1.248 -0.9495 -0.2977  0.1645
  240MOL    O6843566   3.721   2.882   1.180  0.4000  0.2208 -0.9975
  240MOL    O6943567   3.539   2.910   1.327 -0.6660 -0.8933  0.5523
  240MOL    H7043568   3.861   3.142   1.310 -0.9298 -1.4859  0.3273
  240MOL    H7143569   3.760   3.267   1.336  0.5694 -0.0557  0.5292
  240MOL    H7243570   3.555   3.140   1.267 -0.4472 -0.4431 -0.1588
  240MOL    H7343571   3.525   2.816   1.324 -1.3584 -0.7530 -1.1983
  240MOL    C7443572   3.706   3.147   1.093 -0.7680  0.0181 -0.0087
  240MOL    C7543573   3.653   3.287   1.048 -0.0992 -0.2237 -0.3617
  240MOL    C7643574   3.500   3.299   1.050 -0.6205  0.3439  0.1165
  240MOL    O7743575   3.442   3.406   1.075  0.1706 -0.5169 -0.6134
  240MOL    O7843576   3.438   3.172   1.040 -0.2731 -0.1053  0.2831
  240MOL    H7943577   3.675   3.069   1.023 -0.0493  0.0352 -0.3468
  240MOL    H8043578   3.813   3.155   1.074 -0.6169 -0.4442  0.6366
  240MOL    H8143579   3.685   3.358   1.125  0.8356  0.3130 -1.2377
  240MOL    H8243580   3.345   3.187   1.028 -0.3259 -0.1674  0.5922
  240MOL    C8343581   3.707   3.348   0.919 -0.8605 -0.5389  0.1803
  240MOL    C8443582   3.665   3.274   0.790 -0.4632 -0.5162  0.0640
  240MOL    C8543583   3.784   3.257   0.691  0.2163 -0.0208 -0.4492
  240MOL    O8643584   3.800   3.327   0.588 -0.6790  0.3078 -0.0259
  240MOL    O8743585   3.859   3.156   0.731 -0.3895 -0.4789 -0.0552
  240MOL    H8843586   3.816   3.349   0.928 -0.6866  0.3663 -1.6941
  240MOL    H8943587   3.680   3.454   0.911 -0.8468 -0.5497 -0.0084
  240MOL    H9043588   3.631   3.173   0.815 -0.1695 -0.7393 -0.4395
  240MOL    H9143589   3.920   3.135   0.663  1.1036 -1.1624  1.4605
  240MOL    C9243590   3.543   3.343   0.721  0.2767  0.0391  0.5228
  240MOL    C9343591   3.451   3.251   0.638 -0.4594  0.4207 -0.3849
  240MOL    C9443592   3.503   3.214   0.497 -0.1349  0.0088 -0.5127
  240MOL    O9543593   3.497   3.288   0.400 -0.3213  0.1849  0.6684
  240MOL    O9643594   3.530   3.076   0.480 -0.4221  0.0948  0.2817
  240MOL    H9743595   3.576   3.429   0.662  1.5974  0.5555  1.9966
  240MOL    H9843596   3.477   3.387   0.796 -0.1377 -0.1351  0.2642
  240MOL    H9943597   3.443   3.166   0.706  2.6753 -0.4270 -0.9999
  240MOL   H10043598   3.533   3.061   0.386 -0.8593 -1.6659  0.5363
  240MOL   C10143599   3.306   3.300   0.641 -0.4614 -0.4459 -0.2198
  240MOL   C10243600   3.194   3.199   0.654  0.1428 -0.0626  0.3033
  240MOL   C10343601   3.173   3.102   0.536  0.0816 -0.4139 -0.3963
  240MOL   O10443602   3.183   3.142   0.416  0.0059 -0.0281 -0.3120
  240MOL   O10543603   3.140   2.975   0.572  0.3941 -0.1941 -0.0790
  240MOL   H10643604   3.303   3.362   0.551  0.6561 -0.1254 -0.0422
  240MOL   H10743605   3.293   3.367   0.726 -1.6731 -0.1575 -0.6219
  240MOL   H10843606   3.224   3.135   0.737  0.6431 -1.5044 -0.9451
  240MOL   H10943607   3.121   2.935   0.488  2.5631  3.2014 -2.3335
  240MOL   C11043608   3.057   3.269   0.695 -0.5189 -0.5515 -0.0001
  240MOL   C11143609   3.042   3.332   0.832 -0.0091  0.5739  0.4151
  240MOL   C11243610   3.078   3.250   0.950  1.0148  0.1973  0.4258
  240MOL   O11343611   3.194   3.229   0.978  0.8157  0.3300 -0.3826
  240MOL   O11443612   2.969   3.197   1.018 -0.3267 -0.3685  0.2700
  240MOL   H11543613   2.974   3.200   0.675  0.7490 -2.3652  0.8192
  240MOL   H11643614   3.041   3.345   0.619  0.1162 -0.6590 -0.2476
  240MOL   H11743615   3.121   3.407   0.837  0.1457  0.3263  2.1149
  240MOL   H11843616   2.998   3.162   1.101 -1.1052 -0.5480  0.4686
  240MOL   C11943617   2.904   3.407   0.843  0.1448  0.3220 -0.8966
  240MOL   C12043618   2.894   3.537   0.753  0.3101  0.1397 -0.4582
  240MOL   C12143619   2.835   3.655   0.835 -0.1880 -0.2176 -0.4498
  240MOL   O12243620   2.905   3.753   0.862  0.5850 -0.3303 -0.4180
  240MOL   O12343621   2.706   3.635   0.864  0.0993  0.3470  0.2089
  240MOL   H12443622   2.883   3.430   0.947 -1.4136 -1.4227 -0.8117
  240MOL   H12543623   2.825   3.334   0.825  0.5452 -0.5944  0.9660
  240MOL   H12643624   2.988   3.579   0.717  1.3699 -0.3960  1.5836
  240MOL   H12743625   2.675   3.708   0.916 -2.3838 -1.9032  1.9935
  240MOL   C12843626   2.813   3.512   0.621  0.6190  0.2543 -0.1881
  240MOL   C12943627   2.819   3.602   0.492 -0.3283  0.0491 -0.5492
  240MOL   C13043628   2.782   3.750   0.514 -0.1568  0.2053  0.8272
  240MOL   O13143629   2.860   3.840   0.506 -0.2642 -0.3561 -0.1594
  240MOL   O13243630   2.649   3.758   0.536  0.5261 -0.1147 -0.0625
  240MOL   H13343631   2.709   3.499   0.650  1.1117  0.2387  1.6357
  240MOL   H13443632   2.840   3.413   0.586  0.3778 -0.0681  0.5359
  240MOL   H13543633   2.926   3.603   0.468  0.2266  0.3070  1.7874
  240MOL   H13643634   2.621   3.848   0.536  0.2086 -0.2041 -1.0210
  240MOL   C13743635   2.748   3.531   0.370 -0.7004 -0.0547 -0.5999
  240MOL   C13843636   2.842   3.476   0.265 -0.3214  0.2271 -0.5066
  240MOL   C13943637   2.927   3.586   0.211 -0.7652  0.2319  0.3450
  240MOL   O14043638   2.876   3.693   0.175 -0.6853 -0.6060  0.6005
  240MOL   O14143639   3.057   3.556   0.212 -0.6509  0.5126  0.1210
  240MOL   H14243640   2.674   3.597   0.324 -1.8360 -2.2487 -1.9990
  240MOL   H14343641   2.688   3.449   0.410 -0.8019 -0.3270 -1.3012
  240MOL   H14443642   2.900   3.402   0.319 -0.8469 -0.7841 -1.3210
  240MOL   H14543643   3.094   3.625   0.159 -0.2035  1.9887  2.2829
  240MOL   C14643644   2.771   3.406   0.149  0.1317  0.6093  0.9187
  240MOL   C14743645   2.834   3.274   0.084 -0.4706  0.1730  0.1033
  240MOL   C14843646   2.991   3.270   0.095  0.3152  0.0479 -0.9084
  240MOL   O14943647   3.071   3.302   0.006  0.3343 -0.1892  0.5991
  240MOL   O15043648   3.027   3.198   0.202 -0.5114  0.1113 -0.0063
  240MOL   H15143649   2.737   3.469   0.068 -1.6396 -1.1622  0.2381
  240MOL   H15243650   2.675   3.374   0.191  0.9961 -0.0802  2.4391
  240MOL   H15343651   2.805   3.191   0.148  2.4651 -0.7009  0.3845
  240MOL   H15443652   3.120   3.195   0.218 -0.3663 -0.1209 -0.8909
  240MOL   C15543653   2.778   3.259   7.792 -0.5182 -0.5277  0.5642
  240MOL   C15643654   2.626   3.221   7.797  0.2275 -0.0568 -1.1666
  240MOL   C15743655   2.601   3.096   0.022  0.1690  0.1152 -0.4547
  240MOL   O15843656   2.660   2.995   7.836  0.1405 -0.1974 -0.0623
  240MOL   O15943657   2.524   3.105   0.130  0.6711 -0.1520  0.4142
  240MOL   H16043658   2.831   3.181   7.737  0.9378  1.5419 -1.1017
  240MOL   H16143659   2.796   3.347   7.730  0.8245  0.9100  2.9247
  240MOL   H16243660   2.565   3.286   0.008 -0.1372 -1.1580 -0.3756
  240MOL   H16343661   2.506   3.022   0.170  0.6453 -2.2403 -3.6974
  240MOL   C16443662   2.556   3.219   7.660  0.0898  0.3376  0.1515
  240MOL   C16543663   2.552   3.344   7.567  0.7223  0.7424 -0.2852
  240MOL   C16643664   2.532   3.478   7.645  0.0440  0.1583  0.0806
  240MOL   O16743665   2.423   3.521   7.683 -0.0496 -0.2417 -0.5724
  240MOL   O16843666   2.649   3.528   7.678  0.0807 -0.3488  0.1137
  240MOL   H16943667   2.451   3.193   7.675 -0.8897  2.0024 -3.1807
  240MOL   H17043668   2.596   3.139   7.598  0.6609  1.9399 -1.5936
  240MOL   H17143669   2.653   3.341   7.527  0.5382 -3.1613 -0.6347
  240MOL   H17243670   2.637   3.585   7.752 -1.8274 -2.0586  1.1823
  240MOL   C17343671   2.457   3.331   7.442  0.4761  0.2768  0.9281
  240MOL   C17443672   2.516   3.387   7.304  0.5983  1.7338  0.0020
  240MOL   C17543673   2.607   3.283   7.231  0.0186  0.6681 -0.4386
  240MOL   O17643674   2.625   3.284   7.108 -0.5139 -0.0610 -0.1296
  240MOL   O17743675   2.656   3.192   7.316 -0.0929  0.3994  0.4978
  240MOL   H17843676   2.367   3.392   7.449  1.1577  1.4937 -0.6905
  240MOL   H17943677   2.419   3.229   7.435  0.6204  0.2679  0.2121
  240MOL   H18043678   2.428   3.409   7.243  0.0625 -0.5625 -0.1014
  240MOL   H18143679   2.713   3.125   7.282 -0.9021  1.2546 -2.7945
  240MOL   H18243680   2.575   3.476   7.326  3.1451  1.0937 -3.7797
  241MOL     C143681   1.942   1.728   1.410 -0.2659  0.3266 -0.5362
  241MOL     C243682   1.912   1.582   1.358  0.3482 -0.2121  0.0191
  241MOL     C343683   1.762   1.549   1.349  0.0602  0.1665 -0.3345
  241MOL     O443684   1.674   1.623   1.379  0.1574 -0.8629 -0.2182
  241MOL     O543685   1.748   1.422   1.299 -0.7800 -0.5297 -0.1113
  241MOL     H643686   1.925   1.755   1.514  0.2248 -0.7970 -0.1524
  241MOL     H743687   2.043   1.768   1.402  0.2489 -0.4684  1.5625
  241MOL     H843688   1.962   1.572   1.262  1.8899  1.7235  0.5883
  241MOL     H943689   1.658   1.396   1.292 -0.4394 -1.5625 -0.8480
  241MOL    H1043690   1.880   1.798   1.355 -1.4176 -2.2971 -2.7078
  241MOL    C1143691   1.994   1.478   1.440  0.2938 -0.2603 -0.7120
  241MOL    C1243692   2.149   1.491   1.443  0.3246 -0.8203  0.6212
  241MOL    C1343693   2.201   1.475   1.299 -0.6446 -0.5611  0.2027
  241MOL    O1443694   2.157   1.403   1.210  0.3149  0.3130 -0.4516
  241MOL    O1543695   2.291   1.566   1.274 -0.5747 -0.0130  0.4880
  241MOL    H1643696   1.973   1.373   1.417 -0.0363 -0.6177  1.1523
  241MOL    H1743697   1.954   1.496   1.539  1.5436 -0.4742 -0.1584
  241MOL    H1843698   2.170   1.595   1.467  0.7453 -0.0290 -2.9296
  241MOL    H1943699   2.311   1.569   1.182 -4.4756  0.1211 -0.4336
  241MOL    C2043700   2.216   1.389   1.535 -0.4168  0.5633 -0.1777
  241MOL    C2143701   2.363   1.399   1.564 -0.5692 -0.2598  0.0356
  241MOL    C2243702   2.430   1.272   1.630 -0.3816  0.2224 -0.1875
  241MOL    O2343703   2.369   1.176   1.681 -0.9454 -0.0671  0.1433
  241MOL    O2443704   2.561   1.299   1.638  0.3750  0.4304  0.3676
  241MOL    H2543705   2.204   1.291   1.488  1.3654 -1.2746  3.0230
  241MOL    H2643706   2.170   1.383   1.634 -0.4365  2.2523 -0.0838
  241MOL    H2743707   2.418   1.403   1.470  0.3883 -0.1055  0.5914
  241MOL    H2843708   2.607   1.227   1.679  1.0122  1.8533  2.1739
  241MOL    C2943709   2.397   1.527   1.644 -0.5716 -0.1844 -0.4701
  241MOL    C3043710   2.477   1.641   1.571  0.8768 -0.7672 -0.0243
  241MOL    C3143711   2.627   1.591   1.562 -0.3104  0.2526  0.7738
  241MOL    O3243712   2.715   1.631   1.638 -0.3381 -0.4009 -0.2448
  241MOL    O3343713   2.650   1.520   1.456 -0.0700 -0.0104  0.1058
  241MOL    H3443714   2.447   1.493   1.735  0.9995  1.4915 -0.6692
  241MOL    H3543715   2.304   1.566   1.684 -0.9257 -0.9756 -0.5190
  241MOL    H3643716   2.439   1.659   1.470  0.9833 -1.4507 -0.1899
  241MOL    H3743717   2.741   1.495   1.458  0.7570  2.6307 -1.7080
  241MOL    C3843718   2.455   1.773   1.653  0.5793 -0.0551 -0.2793
  241MOL    C3943719   2.313   1.831   1.633 -0.6232  0.1701 -0.3824
  241MOL    C4043720   2.300   1.910   1.505  0.3511 -0.1535  0.1135
  241MOL    O4143721   2.388   1.924   1.422 -0.1345  0.4231 -0.1963
  241MOL    O4243722   2.175   1.962   1.494  0.4491  0.2200  0.4000
  241MOL    H4343723   2.532   1.843   1.620  0.2304 -0.4191 -1.8894
  241MOL    H4443724   2.474   1.744   1.757  1.4221 -2.1174 -0.9907
  241MOL    H4543725   2.242   1.748   1.628  0.6593 -0.9084 -0.8620
  241MOL    H4643726   2.170   2.035   1.434 -0.8439  0.5455  0.8910
  241MOL    C4743727   2.282   1.929   1.750 -0.2256  0.0844 -0.6769
  241MOL    C4843728   2.229   1.859   1.884  0.3517  0.1790  0.2193
  241MOL    C4943729   2.117   1.762   1.857  0.7679  0.0285  0.0608
  241MOL    O5043730   2.118   1.645   1.895  0.1590  0.2993 -0.4363
  241MOL    O5143731   2.018   1.824   1.792  0.3141 -0.1463 -0.1023
  241MOL    H5243732   2.222   2.008   1.704 -1.3975  0.0159  0.6940
  241MOL    H5343733   2.375   1.983   1.764  0.4324 -0.7315 -1.8152
  241MOL    H5443734   2.305   1.794   1.928  1.1812  0.5201 -0.6826
  241MOL    H5543735   1.949   1.765   1.766 -1.1706  1.3322  0.4016
  241MOL    C5643736   2.201   1.968   1.993 -0.3907 -0.0134  0.8708
  241MOL    C5743737   2.133   1.918   2.126  0.2360  0.1173 -0.5435
  241MOL    C5843738   1.983   1.946   2.126  0.5907 -0.0531  0.6204
  241MOL    O5943739   1.926   2.051   2.142 -0.1844  0.1647 -0.0719
  241MOL    O6043740   1.913   1.833   2.109 -0.1643 -0.2527  0.9056
  241MOL    H6143741   2.138   2.043   1.945 -1.0300 -0.3901  1.1224
  241MOL    H6243742   2.294   2.024   2.006 -1.1982  2.2979 -2.4415
  241MOL    H6343743   2.156   1.812   2.132  0.9086  0.3425  1.2876
  241MOL    H6443744   1.820   1.844   2.127 -0.8056 -1.6981 -1.3123
  241MOL    C6543745   2.190   1.992   2.254 -0.3217  0.3861 -0.6041
  241MOL    C6643746   2.341   1.990   2.286  0.2984 -0.0288 -0.2358
  241MOL    C6743747   2.394   1.844   2.280 -0.0625 -0.5473 -0.1203
  241MOL    O6843748   2.493   1.814   2.224 -0.0469  0.8597  0.4695
  241MOL    O6943749   2.317   1.757   2.350 -0.6470  0.3903 -0.2801
  241MOL    H7043750   2.148   1.936   2.338 -0.7846  0.4395 -0.8004
  241MOL    H7143751   2.147   2.092   2.261 -1.0822 -0.0422  0.9292
  241MOL    H7243752   2.385   2.042   2.201 -0.0294 -0.5278 -0.7151
  241MOL    H7343753   2.352   1.669   2.353  2.0013  1.3319 -1.4079
  241MOL    C7443754   2.372   2.061   2.423 -0.2836 -0.4831 -0.4879
  241MOL    C7543755   2.520   2.073   2.485  0.6193  0.0359  0.9256
  241MOL    C7643756   2.627   2.099   2.370  0.1686  0.1977 -0.1988
  241MOL    O7743757   2.720   2.023   2.343  0.1946  0.1814  0.3771
  241MOL    O7843758   2.600   2.209   2.294  0.7435  0.1418  0.0738
  241MOL    H7943759   2.309   2.006   2.493  1.1049 -3.5850 -1.5441
  241MOL    H8043760   2.346   2.166   2.418  1.7677  0.1882  2.2367
  241MOL    H8143761   2.517   2.153   2.559 -0.3775  1.6503 -0.8169
  241MOL    H8243762   2.676   2.217   2.239  0.4321 -0.4941 -0.4431
  241MOL    C8343763   2.554   1.946   2.571 -0.0740 -0.2348 -0.0870
  241MOL    C8443764   2.686   1.952   2.660  0.4993 -0.3190 -0.2963
  241MOL    C8543765   2.782   1.837   2.630 -0.7046 -0.3594  0.2354
  241MOL    O8643766   2.803   1.749   2.709  0.1959 -0.3210 -0.5410
  241MOL    O8743767   2.827   1.840   2.500 -0.1597 -0.3202  0.2104
  241MOL    H8843768   2.559   1.857   2.509  0.1949 -0.7860  0.7258
  241MOL    H8943769   2.464   1.930   2.630 -0.8234 -1.3178 -1.4688
  241MOL    H9043770   2.744   2.041   2.635  1.3058 -0.8906 -0.4810
  241MOL    H9143771   2.795   1.922   2.466  2.0030  0.0228 -1.1219
  241MOL    C9243772   2.659   1.946   2.813 -0.0659  0.1037 -0.6309
  241MOL    C9343773   2.576   2.060   2.872  0.7581 -0.2229 -0.7989
  241MOL    C9443774   2.650   2.195   2.866 -0.5301 -0.5664  0.2075
  241MOL    O9543775   2.758   2.208   2.928 -0.2783  0.7270 -0.0067
  241MOL    O9643776   2.592   2.281   2.783  0.3296 -0.1210  0.4448
  241MOL    H9743777   2.757   1.934   2.859  0.5078 -0.8215 -2.0652
  241MOL    H9843778   2.608   1.853   2.836  0.9774 -0.0837  1.0321
  241MOL    H9943779   2.487   2.062   2.808 -0.5258 -0.0485  0.9582
  241MOL   H10043780   2.641   2.361   2.785  1.3141 -0.7146  0.4474
  241MOL   C10143781   2.532   2.027   3.021 -0.3337 -0.2872 -0.4538
  241MOL   C10243782   2.429   2.131   3.080 -0.2144  0.0243  0.5356
  241MOL   C10343783   2.400   2.120   3.232  0.2406  0.2346 -1.0206
  241MOL   O10443784   2.282   2.094   3.282  0.4855  0.5078 -0.2025
  241MOL   O10543785   2.515   2.138   3.302  0.2198 -0.3087 -0.1539
  241MOL   H10643786   2.623   2.028   3.081  0.0729 -1.4263 -1.0311
  241MOL   H10743787   2.502   1.922   3.023  0.2922 -0.4585 -0.0250
  241MOL   H10843788   2.490   2.221   3.086  1.0964 -0.5755 -3.0035
  241MOL   H10943789   2.510   2.123   3.396  2.4336 -2.3094 -0.2887
  241MOL   C11043790   2.300   2.145   2.995 -0.4433  0.3265  0.1399
  241MOL   C11143791   2.209   2.015   2.972  0.5287 -0.5758  0.0606
  241MOL   C11243792   2.243   1.951   2.839 -0.0282  0.1769 -0.0110
  241MOL   O11343793   2.296   1.839   2.831 -0.1130 -0.1065  0.3385
  241MOL   O11443794   2.207   2.028   2.735  0.5717 -0.2656 -0.5933
  241MOL   H11543795   2.317   2.194   2.899 -1.7665  0.3075 -0.1254
  241MOL   H11643796   2.231   2.214   3.045 -1.2550 -1.0852  1.0307
  241MOL   H11743797   2.245   1.939   3.040 -2.0858 -0.3062  1.8086
  241MOL   H11843798   2.167   2.106   2.771  1.8188 -0.2138  0.6626
  241MOL   C11943799   2.065   2.035   3.014  0.1099  0.0102  0.2921
  241MOL   C12043800   2.005   1.927   3.106 -0.3753  0.5736  0.0495
  241MOL   C12143801   1.967   1.805   3.021 -0.0880  1.1324  0.1899
  241MOL   O12243802   1.861   1.797   2.961  0.0478  0.2383 -0.3169
  241MOL   O12343803   2.072   1.711   3.015 -0.4102  0.4373 -1.2587
  241MOL   H12443804   2.004   2.035   2.924 -0.0459 -0.9582  0.4012
  241MOL   H12543805   2.038   2.132   3.056  0.3786  0.6109 -0.8978
  241MOL   H12643806   2.076   1.894   3.181 -1.1866 -2.3732 -0.4232
  241MOL   H12743807   2.060   1.640   2.954  2.0384 -1.0861 -0.0616
  241MOL   C12843808   1.887   1.979   3.195 -0.4386  0.3501  0.2418
  241MOL   C12943809   1.851   1.897   3.320  0.1911 -0.5165  0.6563
  241MOL   C13043810   1.714   1.948   3.359  0.1560  0.1485 -0.3806
  241MOL   O13143811   1.693   2.013   3.462 -0.2816 -0.4900  0.2787
  241MOL   O13243812   1.615   1.906   3.280  0.2153  0.5875 -0.6007
  241MOL   H13343813   1.802   1.984   3.127 -0.5368  0.1629  0.3516
  241MOL   H13443814   1.908   2.077   3.238 -1.5371  0.8725 -0.3767
  241MOL   H13543815   1.824   1.795   3.294 -1.9431  0.5996 -1.7208
  241MOL   H13643816   1.527   1.929   3.307 -0.2934 -1.2027 -0.6472
  241MOL   C13743817   1.955   1.912   3.435 -0.3063 -0.2504 -0.2766
  241MOL   C13843818   1.991   1.781   3.509 -0.1126  0.8278  0.0410
  241MOL   C13943819   2.057   1.688   3.402 -0.1827 -0.0333  0.1888
  241MOL   O14043820   2.013   1.577   3.358  0.1059  0.1020 -0.0117
  241MOL   O14143821   2.167   1.743   3.345 -0.5814  0.3834 -0.0994
  241MOL   H14243822   1.911   1.973   3.514 -0.8692 -0.9452 -0.0428
  241MOL   H14343823   2.036   1.975   3.397  0.7515  0.2393  2.5858
  241MOL   H14443824   2.069   1.801   3.582  0.5351  1.1059 -0.7211
  241MOL   H14543825   2.207   1.688   3.279  0.7494  0.1859  0.8389
  241MOL   C14643826   1.869   1.728   3.590  0.2735  0.1491 -0.1475
  241MOL   C14743827   1.876   1.589   3.672  0.1377  1.1160  0.3877
  241MOL   C14843828   1.764   1.499   3.612 -0.2774 -0.4821 -0.5222
  241MOL   O14943829   1.651   1.498   3.657 -0.1615  0.2093 -0.0905
  241MOL   O15043830   1.814   1.415   3.519 -0.2452 -0.1493  0.1099
  241MOL   H15143831   1.783   1.726   3.523  0.3445 -0.4704 -0.2245
  241MOL   H15243832   1.840   1.806   3.660 -0.9805 -1.5957  1.3367
  241MOL   H15343833   1.975   1.545   3.656 -0.4340 -0.9297  2.1401
  241MOL   H15443834   1.743   1.368   3.477 -0.7954  0.6092  0.1805
  241MOL   C15543835   1.850   1.628   3.822  0.1069  0.0387  0.2541
  241MOL   C15643836   1.849   1.508   3.923 -0.1980  0.5064 -0.2231
  241MOL   C15743837   1.733   1.521   4.022  0.0214 -0.1995  0.5801
  241MOL   O15843838   1.616   1.510   3.980 -0.4820  0.6842 -0.2357
  241MOL   O15943839   1.768   1.545   4.155  0.4838  0.2856  0.4204
  241MOL   H16043840   1.761   1.690   3.833  1.1389  0.9765  3.8114
  241MOL   H16143841   1.929   1.697   3.852 -2.0961  1.7081  2.3910
  241MOL   H16243842   1.825   1.423   3.860  0.0711  0.4878 -0.3003
  241MOL   H16343843   1.690   1.572   4.200 -0.0228 -1.2927  0.5115
  241MOL   C16443844   1.984   1.477   3.974  0.4336 -0.3225 -0.9654
  241MOL   C16543845   2.004   1.346   4.054  0.2695 -0.0024 -0.5199
  241MOL   C16643846   2.159   1.321   4.064  0.3571 -0.7212 -0.2111
  241MOL   O16743847   2.223   1.256   3.984  0.2371  0.7900 -0.1639
  241MOL   O16843848   2.205   1.375   4.181 -0.2322  0.3663  1.0245
  241MOL   H16943849   2.020   1.544   4.052 -1.1935 -0.4523 -0.0826
  241MOL   H17043850   2.055   1.482   3.891  1.3194 -3.2705 -0.4475
  241MOL   H17143851   1.964   1.360   4.155 -3.5471 -0.3199 -1.8943
  241MOL   H17243852   2.297   1.357   4.183 -0.2294  0.0071 -1.0590
  241MOL   C17343853   1.921   1.228   4.003  0.2019  0.5012  0.5657
  241MOL   C17443854   1.954   1.092   4.066 -0.3319  0.2064 -1.0589
  241MOL   C17543855   1.897   1.073   4.202  0.7763  0.3494 -0.0144
  241MOL   O17643856   1.801   1.000   4.229  0.2339 -0.2630  0.4491
  241MOL   O17743857   1.964   1.150   4.297 -0.0299 -0.1971  0.6062
  241MOL   H17843858   1.920   1.226   3.894  2.1449  4.4145  0.4113
  241MOL   H17943859   1.820   1.253   4.035  0.5978  2.0212  0.6792
  241MOL   H18043860   1.902   1.018   4.005  1.9297 -1.0146 -1.5439
  241MOL   H18143861   1.918   1.158   4.379 -1.4001 -1.6414  0.0067
  241MOL   H18243862   2.061   1.074   4.063 -0.5174 -0.8826 -1.0754
  242MOL     C143863   0.248   7.457   6.672  0.3231 -0.3492  0.6065
  242MOL     C243864   0.233   7.429   6.824 -0.0352  0.0189  0.3101
  242MOL     C343865   0.339   7.324   6.869  0.7739 -0.0120 -0.1241
  242MOL     O443866   0.313   7.204   6.896  0.5024 -0.4173  0.2123
  242MOL     O543867   0.464   7.369   6.853 -0.3448 -0.3610 -0.4088
  242MOL     H643868   0.351   7.471   6.640  0.6204 -0.0947  1.6507
  242MOL     H743869   0.206   7.370   6.621 -1.7805  2.0455 -1.9543
  242MOL     H843870   0.247   7.524   6.875 -0.3377 -0.0462  0.5190
  242MOL     H943871   0.532   7.304   6.862 -1.1908 -1.0590  1.2332
  242MOL    H1043872   0.190   7.544   6.643  2.5576  1.3136  0.9706
  242MOL    C1143873   0.091   7.380   6.860  0.8659 -0.7720 -0.1711
  242MOL    C1243874   0.035   7.452   6.984 -0.7030 -0.4615 -0.2846
  242MOL    C1343875   0.124   7.436   7.111  0.2105 -0.8585  0.2644
  242MOL    O1443876   0.171   7.533   7.167  0.2006 -0.2449  0.0730
  242MOL    O1543877   0.148   7.305   7.139 -0.1499  0.1446  0.0858
  242MOL    H1643878   0.085   7.273   6.879  0.0771 -1.1693 -2.4319
  242MOL    H1743879   0.023   7.398   6.776 -0.1930 -1.3480  0.5510
  242MOL    H1843880   0.035   7.557   6.957  0.4406 -0.4246 -0.1368
  242MOL    H1943881   0.211   7.299   7.209  0.7158  0.3190 -0.6639
  242MOL    C2043882   7.741   7.410   7.019  0.3931 -0.0918  0.4508
  242MOL    C2143883   7.661   7.525   7.101  0.3786  0.6250  0.3052
  242MOL    C2243884   7.521   7.484   7.131  0.4407 -0.1789  0.2867
  242MOL    O2343885   7.418   7.514   7.067 -0.2899 -1.0526 -0.0161
  242MOL    O2443886   7.529   7.401   7.238 -0.2194 -0.2661  0.4435
  242MOL    H2543887   7.742   7.317   7.076  3.1379 -1.1353 -1.1896
  242MOL    H2643888   7.687   7.403   6.924  1.6263  0.7588 -0.3349
  242MOL    H2743889   7.717   7.545   7.192  0.2819 -0.3580  0.5958
  242MOL    H2843890   7.448   7.352   7.245 -0.9997  1.1658  1.8340
  242MOL    C2943891   7.650   7.666   7.031 -0.1441  0.8982 -0.0528
  242MOL    C3043892   7.590   7.783   7.108  0.5997 -0.0763 -0.9333
  242MOL    C3143893   7.547   0.033   6.997  0.0880  0.1201  0.9182
  242MOL    O3243894   7.431   0.040   6.946  0.4878 -0.7932 -0.0511
  242MOL    O3343895   7.657   0.099   6.954  0.4200  0.1285  0.0421
  242MOL    H3443896   7.612   7.642   6.931  1.2017 -2.1912  0.1230
  242MOL    H3543897   7.751   7.701   7.012  0.4284  0.2424  1.7135
  242MOL    H3643898   7.495   7.771   7.161  1.4407 -0.6036  0.4615
  242MOL    H3743899   7.635   0.139   6.872 -0.2630 -1.1049 -0.3897
  242MOL    C3843900   7.688   7.838   7.216 -0.4980 -0.1786  0.4750
  242MOL    C3943901   7.671   7.780   7.361 -0.2390 -0.3563 -0.1081
  242MOL    C4043902   7.543   7.835   7.426  0.1677  0.2445  0.3335
  242MOL    O4143903   7.550   0.055   7.522  0.1774 -0.1411  0.7743
  242MOL    O4243904   7.428   7.785   7.380 -0.6195  0.2442 -0.4406
  242MOL    H4343905   7.670   0.092   7.222 -1.5190 -0.2571 -0.9174
  242MOL    H4443906   7.795   7.829   7.196 -0.1906  3.2261  0.3645
  242MOL    H4543907   7.655   7.672   7.366  2.3683 -0.6975  2.4475
  242MOL    H4643908   7.362   7.830   7.431  1.2825  3.6067 -0.7457
  242MOL    C4743909   7.800   7.826   7.438  0.3748  0.3905 -0.8066
  242MOL    C4843910   0.072   7.732   7.418 -0.1507 -0.6581  0.5205
  242MOL    C4943911   0.052   7.591   7.483  0.3438  0.5307  0.9356
  242MOL    O5043912   7.850   7.567   7.587 -0.0123 -0.0139  0.1550
  242MOL    O5143913   0.101   7.492   7.409 -0.2239  0.5761  0.2176
  242MOL    H5243914   7.785   0.001   7.542  0.2742  3.1698 -1.5083
  242MOL    H5343915   7.826   0.072   7.401 -2.0932  2.1771  1.9831
  242MOL    H5443916   0.082   7.712   7.311  1.2312  2.3015  0.0385
  242MOL    H5543917   0.148   7.523   7.333 -0.8500  0.3976 -0.2568
  242MOL    C5643918   0.205   7.798   7.468  0.2577 -0.6364 -0.1996
  242MOL    C5743919   0.227   7.819   7.621  0.2188  0.4259  0.2222
  242MOL    C5843920   0.244   0.117   7.645  0.4253  0.7039  0.3175
  242MOL    O5943921   0.267   0.205   7.561  0.6395  0.3057 -0.2270
  242MOL    O6043922   0.224   0.131   7.780 -0.3222  0.4429 -0.2767
  242MOL    H6143923   0.189   0.040   7.416  0.2621 -0.5644 -0.0701
  242MOL    H6243924   0.286   7.754   7.411  1.0462  0.6173 -0.0776
  242MOL    H6343925   0.146   7.784   7.686 -1.1465  0.0115 -1.6445
  242MOL    H6443926   0.220   0.222   7.806 -0.5343  1.0641 -2.3914
  242MOL    C6543927   0.360   7.750   7.660 -0.2831  0.1809 -0.0281
  242MOL    C6643928   0.357   7.593   7.663  0.4489 -0.4621 -0.3448
  242MOL    C6743929   0.254   7.540   7.767  0.3091 -0.8232 -0.3572
  242MOL    O6843930   0.199   7.435   7.757  0.1432 -0.3360  0.2144
  242MOL    O6943931   0.232   7.630   0.014  0.5812  1.0458 -0.2995
  242MOL    H7043932   0.383   7.798   7.754  0.0881  0.0599 -0.0594
  242MOL    H7143933   0.440   7.786   7.596 -1.6401  1.4851 -1.0571
  242MOL    H7243934   0.325   7.557   7.565  0.2960  3.7783 -1.9554
  242MOL    H7343935   0.170   7.588   0.072  2.1364 -1.0267 -0.0826
  242MOL    C7443936   0.501   7.538   7.686 -0.1782 -0.5329  0.2362
  242MOL    C7543937   0.521   7.384   7.664 -0.4273  0.4094 -0.4768
  242MOL    C7643938   0.515   7.299   7.790 -0.3114  0.0303  0.0628
  242MOL    O7743939   0.592   7.297   0.032  0.0217  0.1136  0.2346
  242MOL    O7843940   0.419   7.199   7.781 -0.1727 -0.2083 -0.1962
  242MOL    H7943941   0.517   7.555   7.792 -2.9703 -0.6422  0.7065
  242MOL    H8043942   0.564   7.601   7.623 -1.6971 -0.8897 -1.7145
  242MOL    H8143943   0.445   7.345   7.597 -0.6523 -1.0597  0.5963
  242MOL    H8243944   0.426   7.140   0.002  0.1209 -1.1237 -0.9602
  242MOL    C8343945   0.652   7.346   7.596 -0.1228  0.7874 -0.0518
  242MOL    C8443946   0.667   7.217   7.511  0.3538  0.7955 -0.1521
  242MOL    C8543947   0.764   7.113   7.565 -0.5827  0.0308 -0.2600
  242MOL    O8643948   0.866   7.150   7.633  0.3233 -0.2208 -0.0851
  242MOL    O8743949   0.741   6.987   7.520  0.2151  0.1978  0.1454
  242MOL    H8843950   0.739   7.354   7.661 -1.4921 -1.1110  2.0987
  242MOL    H8943951   0.680   7.426   7.527 -2.3662  0.9241 -0.8396
  242MOL    H9043952   0.573   7.162   7.508  1.3646 -1.1130  1.3814
  242MOL    H9143953   0.655   6.967   7.487 -0.4921  1.4991  1.1051
  242MOL    C9243954   0.697   7.246   7.365  0.6755  0.4637  0.2993
  242MOL    C9343955   0.583   7.320   7.299 -0.1108  0.6846  0.4908
  242MOL    C9443956   0.472   7.222   7.271 -0.1136  0.5607  0.8331
  242MOL    O9543957   0.359   7.243   7.305  0.6884 -0.0019 -0.5083
  242MOL    O9643958   0.506   7.118   7.190 -0.1605  0.0278 -0.0361
  242MOL    H9743959   0.722   7.161   7.302  1.2091  2.0527 -1.6999
  242MOL    H9843960   0.797   7.290   7.371  0.9248  0.2023 -1.5750
  242MOL    H9943961   0.539   7.391   7.369 -0.9248  1.5241 -0.8558
  242MOL   H10043962   0.422   7.077   7.177 -0.8833  1.8960 -1.4146
  242MOL   C10143963   0.630   7.399   7.179  0.9678  1.2755  0.0949
  242MOL   C10243964   0.689   7.532   7.208  0.2123 -0.3239  0.1007
  242MOL   C10343965   0.594   7.641   7.265  0.3046 -0.3050 -0.7544
  242MOL   O10443966   0.468   7.632   7.264  0.0232  0.5356  0.4625
  242MOL   O10543967   0.658   7.744   7.333 -0.2675 -0.2971  0.4827
  242MOL   H10643968   0.551   7.428   7.110 -0.2815 -2.2559 -0.0779
  242MOL   H10743969   0.692   7.333   7.118  1.9223  1.8488  0.4345
  242MOL   H10843970   0.766   7.520   7.285 -1.0592 -3.3157  0.9750
  242MOL   H10943971   0.586   7.800   7.359  0.4750  0.5866  0.6689
  242MOL   C11043972   0.758   7.593   7.075  0.9907 -0.1395 -0.0483
  242MOL   C11143973   0.875   7.690   7.106 -0.0133 -0.0816  0.7225
  242MOL   C11243974   0.838   7.833   7.084  0.0250  0.0482 -0.0135
  242MOL   O11343975   0.731   0.022   7.043 -0.1976  0.1003  0.6420
  242MOL   O11443976   0.935   0.067   7.127  0.0027 -0.3268 -0.0088
  242MOL   H11543977   0.686   7.623   6.998  2.8708 -0.0688 -1.8311
  242MOL   H11643978   0.789   7.500   7.028 -1.3317 -0.8145 -0.3140
  242MOL   H11743979   0.884   7.679   7.214 -1.7275  0.9595  0.9955
  242MOL   H11843980   0.910   0.157   7.110  0.6641 -0.2862 -0.8114
  242MOL   C11943981   1.002   7.654   7.028  0.4782  0.6142  0.2374
  242MOL   C12043982   1.068   7.518   7.058  0.0258  0.2190  0.0814
  242MOL   C12143983   1.200   7.552   7.129 -0.3643  0.3166 -0.4259
  242MOL   O12243984   1.312   7.554   7.074 -0.3182 -0.6125  0.1013
  242MOL   O12343985   1.180   7.598   7.256  0.3069 -0.2764  0.4287
  242MOL   H12443986   1.073   7.735   7.044 -2.1382  3.0767 -0.0885
  242MOL   H12543987   0.974   7.646   6.922 -2.4193 -0.0344  0.9949
  242MOL   H12643988   1.002   7.462   7.125 -0.9335  0.2534 -0.8372
  242MOL   H12743989   1.263   7.634   7.283  0.0089  0.7302  0.0207
  242MOL   C12843990   1.092   7.442   6.928  0.6026 -0.0565  0.0816
  242MOL   C12943991   1.144   7.304   6.959  0.5696 -0.3196 -0.4560
  242MOL   C13043992   1.214   7.252   6.834  0.0756  0.1795  0.1001
  242MOL   O13143993   1.320   7.192   6.836 -0.1204 -0.3165  0.0353
  242MOL   O13243994   1.140   7.260   6.721 -0.5676  0.5209 -0.8372
  242MOL   H13343995   1.164   7.495   6.864  0.1548  1.4090  0.7655
  242MOL   H13443996   0.999   7.441   6.872  0.0716 -2.4478  0.9613
  242MOL   H13543997   1.211   7.308   7.045 -1.1447 -0.8373  0.9271
  242MOL   H13643998   1.187   7.212   6.655  0.0132 -1.4412  0.9626
  242MOL   C13743999   1.020   7.222   7.011  0.0721 -0.3878  0.7286
  242MOL   C13844000   1.038   7.127   7.133  0.5719 -0.0685  0.2475
  242MOL   C13944001   0.918   7.034   7.147 -0.5705 -0.7679  0.1722
  242MOL   O14044002   0.813   7.049   7.090 -0.0262 -0.1313  0.1514
  242MOL   O14144003   0.941   6.942   7.243  0.2749  0.5100 -0.5188
  242MOL   H14244004   0.978   7.166   6.928  0.7072  0.3004 -0.0732
  242MOL   H14344005   0.939   7.291   7.031 -1.2468 -1.6462 -0.1940
  242MOL   H14444006   1.112   7.057   7.094 -1.0196 -2.6818  1.8165
  242MOL   H14544007   0.864   6.890   7.257 -0.0277  1.3091  0.8976
  242MOL   C14644008   1.074   7.198   7.273  0.0731 -0.6501 -0.7006
  242MOL   C14744009   1.219   7.202   7.324 -0.0470 -0.0470  0.1492
  242MOL   C14844010   1.278   7.060   7.341 -0.0941  0.2919 -0.2951
  242MOL   O14944011   1.376   7.025   7.283 -0.4478 -0.0700  0.1978
  242MOL   O15044012   1.210   6.983   7.425  0.4814 -0.6424  0.0900
  242MOL   H15144013   1.013   7.159   7.355  0.3201  0.2968 -0.0580
  242MOL   H15244014   1.032   7.298   7.270  1.1084 -0.2181 -0.9669
  242MOL   H15344015   1.289   7.247   7.253 -0.8039 -0.3806 -0.8307
  242MOL   H15444016   1.254   6.901   7.442  1.6601 -0.9837 -4.2208
  242MOL   C15544017   1.220   7.279   7.458  0.1515 -0.6297  0.1099
  242MOL   C15644018   1.345   7.298   7.544 -0.1399  0.2223  0.1492
  242MOL   C15744019   1.458   7.364   7.465 -0.4107 -0.3432 -0.2896
  242MOL   O15844020   1.571   7.320   7.467 -0.5616 -0.0204 -0.0752
  242MOL   O15944021   1.414   7.458   7.377  0.1604  0.7985  0.0073
  242MOL   H16044022   1.138   7.252   7.525  0.1282 -0.0526  0.3174
  242MOL   H16144023   1.186   7.377   7.424  0.6084 -0.7022 -0.5608
  242MOL   H16244024   1.322   7.378   7.615 -1.3183  0.7389 -0.8098
  242MOL   H16344025   1.481   7.494   7.321  0.8716  0.9055  0.9114
  242MOL   C16444026   1.381   7.177   7.626 -0.0107  0.3632 -0.0784
  242MOL   C16544027   1.449   7.187   7.765  0.8040  0.0203  0.3070
  242MOL   C16644028   1.369   7.271   0.012 -0.1716 -0.6924  0.1284
  242MOL   O16744029   1.423   7.329   0.109 -0.4976  0.1962  0.1899
  242MOL   O16844030   1.232   7.271   7.840 -0.0445  0.7029  0.1910
  242MOL   H16944031   1.455   7.117   7.572 -3.1733 -1.9248 -2.0590
  242MOL   H17044032   1.297   7.109   7.639  0.3158  0.3256  2.0527
  242MOL   H17144033   1.451   7.089   7.813 -0.3055  0.7977  1.9958
  242MOL   H17244034   1.194   7.319   0.060  1.3818  2.4289 -0.1584
  242MOL   C17344035   1.596   7.235   7.756 -0.6322 -0.7940  0.5011
  242MOL   C17444036   1.682   7.120   7.697  0.2639 -0.2992  0.4278
  242MOL   C17544037   1.822   7.122   7.746 -0.0022 -0.6373  0.4549
  242MOL   O17644038   1.875   7.219   7.802  0.4954  0.1847 -0.0364
  242MOL   O17744039   1.880   7.000   7.722  0.1666 -0.2333  0.4571
  242MOL   H17844040   1.627   7.259   0.005  0.4426 -0.5824  0.1316
  242MOL   H17944041   1.599   7.329   7.700  0.4461 -1.5364 -0.6948
  242MOL   H18044042   1.642   7.023   7.726  1.1355 -0.4358  1.2000
  242MOL   H18144043   1.970   6.979   7.744  0.5195 -0.0317 -0.7889
  242MOL   H18244044   1.678   7.120   7.588  1.7426  0.2845  0.3553
  243MOL     C144045   7.333   5.308   5.633  0.2673 -0.3655  0.1907
  243MOL     C244046   7.382   5.441   5.565 -0.0064  0.1126  0.4709
  243MOL     C344047   7.312   5.455   5.427 -0.4358  0.3717  0.2805
  243MOL     O444048   7.218   5.533   5.407  0.3441  0.2365 -0.1274
  243MOL     O544049   7.366   5.374   5.334  0.0400  0.3493  0.4081
  243MOL     H644050   7.224   5.310   5.637  0.2392  0.2957 -0.7037
  243MOL     H744051   7.376   5.224   5.579  1.2415  0.0492  0.3185
  243MOL     H844052   7.345   5.528   5.620 -0.3927  0.0180  0.3607
  243MOL     H944053   7.308   5.375   5.260  0.6967 -1.7655 -0.1481
  243MOL    H1044054   7.369   5.309   5.735 -0.2031 -1.4431  0.3792
  243MOL    C1144055   7.537   5.461   5.558 -0.4828 -0.1248 -0.0540
  243MOL    C1244056   7.588   5.604   5.542  0.2947 -0.0614  0.3461
  243MOL    C1344057   7.566   5.691   5.666  0.3771 -0.3804 -0.5455
  243MOL    O1444058   7.492   5.788   5.665  0.1219 -0.7411 -0.5250
  243MOL    O1544059   7.635   5.647   5.772 -0.2200  0.0778  0.0654
  243MOL    H1644060   7.571   5.396   5.478 -0.7706  0.4135 -0.6151
  243MOL    H1744061   7.568   5.409   5.649  2.8943  0.9046 -0.5436
  243MOL    H1844062   7.697   5.603   5.546  0.4215  3.3267 -0.2295
  243MOL    H1944063   7.604   5.705   5.839  0.7409  4.2102 -2.8547
  243MOL    C2044064   7.543   5.678   5.404  0.3026  0.2698  0.5891
  243MOL    C2144065   7.597   5.617   5.274 -0.1897 -0.1556 -0.2297
  243MOL    C2244066   7.748   5.637   5.260  0.1023 -0.1511 -0.4056
  243MOL    O2344067   7.814   5.726   5.311 -0.1081 -0.3328 -0.7944
  243MOL    O2444068   7.800   5.538   5.184 -0.1169  0.3449  0.1956
  243MOL    H2544069   7.592   5.776   5.412  1.0525  0.1209 -1.7956
  243MOL    H2644070   7.435   5.685   5.396  0.0435 -4.1767 -0.9848
  243MOL    H2744071   7.584   5.509   5.267 -2.3320  0.0641  0.1138
  243MOL    H2844072   0.038   5.547   5.209  0.3851  0.6766 -1.7442
  243MOL    C2944073   7.523   5.681   5.156 -0.3528  0.1723 -0.4309
  243MOL    C3044074   7.517   5.835   5.145  0.0719 -0.0351  0.3449
  243MOL    C3144075   7.374   5.903   5.171  0.3655  0.4626 -0.6422
  243MOL    O3244076   7.264   5.847   5.147  0.3414 -0.2768  0.3186
  243MOL    O3344077   7.389   6.025   5.226 -0.0704  0.1102  0.1427
  243MOL    H3444078   7.427   5.630   5.165  1.5841 -3.1519  3.0943
  243MOL    H3544079   7.556   5.652   5.056 -0.3105  0.3198 -0.4596
  243MOL    H3644080   7.562   5.868   5.238  0.6011 -1.5269  0.6260
  243MOL    H3744081   7.301   6.054   5.242 -0.3204 -0.3038 -0.4610
  243MOL    C3844082   7.594   5.909   5.025  0.4094  0.4708 -0.6635
  243MOL    C3944083   7.669   6.039   5.066  0.3809 -0.6331 -0.1036
  243MOL    C4044084   7.658   6.137   4.952 -0.0741 -0.3357  0.3862
  243MOL    O4144085   7.737   6.127   4.860 -0.9667  0.5471 -0.3861
  243MOL    O4244086   7.545   6.215   4.957 -0.0943  0.3595  0.0234
  243MOL    H4344087   7.525   5.932   4.944 -1.3574 -1.4443  0.2648
  243MOL    H4444088   7.664   5.835   4.986  1.0845  0.0055  1.3758
  243MOL    H4544089   7.615   6.094   5.143  0.3067 -0.5075 -0.2433
  243MOL    H4644090   7.534   6.270   4.881 -0.8580 -1.4939 -1.2625
  243MOL    C4744091   7.814   6.013   5.106  0.4467 -0.0089 -0.1368
  243MOL    C4844092   0.025   6.134   5.186  0.3247 -0.1891 -0.3032
  243MOL    C4944093   0.176   6.119   5.209 -0.2441  0.3089 -0.0639
  243MOL    O5044094   0.239   6.011   5.211  0.3919 -0.3248  0.6591
  243MOL    O5144095   0.226   6.244   5.225  0.1091 -0.5436 -0.4356
  243MOL    H5244096   0.021   6.000   5.015  1.5740 -2.5702  0.9127
  243MOL    H5344097   7.822   5.915   5.152 -0.7513  0.4235  1.0125
  243MOL    H5444098   0.013   6.220   5.119  0.3602 -1.4566 -1.9660
  243MOL    H5544099   0.319   6.234   5.239 -0.1333  0.6785  2.4325
  243MOL    C5644100   7.808   6.173   5.315 -0.2798 -0.2081  0.2637
  243MOL    C5744101   7.797   6.069   5.435 -0.3114 -0.5155 -0.4743
  243MOL    C5844102   7.657   6.050   5.500  0.3041 -0.2645  0.7819
  243MOL    O5944103   7.556   6.059   5.435 -0.2299 -0.3334 -0.5839
  243MOL    O6044104   7.662   6.025   5.636  0.2503  0.6245  0.1549
  243MOL    H6144105   7.707   6.207   5.292 -0.8349 -1.8232  0.2247
  243MOL    H6244106   0.010   6.257   5.356  1.3458 -1.3758  0.5292
  243MOL    H6344107   7.834   5.977   5.389 -1.3562 -0.7379 -0.9021
  243MOL    H6444108   7.572   6.023   5.666  0.0537 -1.0938 -0.5037
  243MOL    C6544109   0.047   6.094   5.548  0.4524  0.2182 -0.1872
  243MOL    C6644110   0.109   5.972   5.622 -0.7611  0.2237  0.1260
  243MOL    C6744111   0.147   6.001   5.770 -0.7849 -0.1606  0.6793
  243MOL    O6844112   0.258   5.989   5.822  0.4319 -0.2464  0.4176
  243MOL    O6944113   0.039   6.041   5.837  0.0311  0.3003 -0.1397
  243MOL    H7044114   0.000   6.161   5.620 -2.1909 -0.6717 -1.0140
  243MOL    H7144115   0.131   6.159   5.524  1.9452 -1.7717 -0.4935
  243MOL    H7244116   0.032   5.896   5.632  0.6577 -1.2448  0.0598
  243MOL    H7344117   0.046   6.053   5.931  0.2126 -1.7677  0.1438
  243MOL    C7444118   0.226   5.910   5.543  0.3251 -0.2901  0.0780
  243MOL    C7544119   0.267   5.771   5.588  0.1026 -0.1932 -0.2792
  243MOL    C7644120   0.377   5.721   5.502 -0.5285  0.1217 -0.1565
  243MOL    O7744121   0.382   5.605   5.452 -0.1821 -0.1813  0.3270
  243MOL    O7844122   0.478   5.819   5.482  0.2218  0.2248  0.5276
  243MOL    H7944123   0.309   5.980   5.536 -1.6309  1.9586 -1.5622
  243MOL    H8044124   0.189   5.896   5.442  2.1112  2.2426 -0.9689
  243MOL    H8144125   0.311   5.776   5.688 -0.3164  2.3529 -0.1840
  243MOL    H8244126   0.549   5.802   5.422  2.4681  0.1950  3.1278
  243MOL    C8344127   0.158   5.664   5.612 -0.0853  0.5264 -0.2728
  243MOL    C8444128   0.194   5.538   5.689  0.8669  0.8469  0.3606
  243MOL    C8544129   0.129   5.409   5.628 -0.1220  0.8576  0.5626
  243MOL    O8644130   0.182   5.324   5.553 -0.1404  0.2287 -0.2886
  243MOL    O8744131   7.847   5.423   5.641  0.1528  0.1781 -0.1831
  243MOL    H8844132   0.123   5.638   5.512 -1.2129 -1.1142  0.5164
  243MOL    H8944133   0.066   5.703   5.657 -0.4495  0.9955 -1.3942
  243MOL    H9044134   0.299   5.515   5.676  0.6931 -0.9266  1.8392
  243MOL    H9144135   7.803   5.359   5.588 -0.0071  0.7868 -0.7836
  243MOL    C9244136   0.180   5.553   5.841  0.0830 -0.0888  0.0429
  243MOL    C9344137   0.296   5.500   5.926 -0.1293  0.2307 -0.5135
  243MOL    C9444138   0.238   5.441   6.065 -0.9150 -0.1140  0.0773
  243MOL    O9544139   0.169   5.505   6.151 -0.1321  0.2147 -0.0662
  243MOL    O9644140   0.270   5.305   6.079 -0.2816  0.1871  0.4008
  243MOL    H9744141   0.084   5.509   5.868  0.0167 -0.3562 -0.6040
  243MOL    H9844142   0.168   5.659   5.864 -2.1261 -0.2926 -0.0791
  243MOL    H9944143   0.341   5.414   5.877 -0.6264  0.6178 -1.6651
  243MOL   H10044144   0.319   5.270   6.007 -1.2267  0.5551 -0.4445
  243MOL   C10144145   0.417   5.596   5.940 -0.0803  0.4719  0.3092
  243MOL   C10244146   0.564   5.536   5.954  0.0297  0.6091 -0.0718
  243MOL   C10344147   0.577   5.507   6.102  0.2723 -0.0444 -0.2793
  243MOL   O10444148   0.594   5.395   6.142  0.2397 -0.6210 -0.1758
  243MOL   O10544149   0.569   5.613   6.188  0.5604 -0.6172 -0.1838
  243MOL   H10644150   0.393   5.673   6.013  0.4853 -1.0525  2.1523
  243MOL   H10744151   0.409   5.657   5.849  1.4177  1.1277  0.5936
  243MOL   H10844152   0.578   5.443   5.899  1.1519 -0.9327  2.7138
  243MOL   H10944153   0.568   5.576   6.275 -1.6280  0.0475  0.0897
  243MOL   C11044154   0.665   5.635   5.897  0.0702 -0.9212  0.9782
  243MOL   C11144155   0.792   5.564   5.836 -0.4604 -0.7986  0.6463
  243MOL   C11244156   0.871   5.499   5.952  0.6117 -0.1348 -0.9259
  243MOL   O11344157   0.950   5.559   6.025 -0.5760  0.5294 -0.2677
  243MOL   O11444158   0.847   5.367   5.972 -0.3309 -0.5880  0.3159
  243MOL   H11544159   0.704   5.692   5.981  1.5289 -0.7703  0.2293
  243MOL   H11644160   0.623   5.697   5.818  1.3600 -3.2438 -1.6117
  243MOL   H11744161   0.778   5.489   5.759 -0.1475 -0.5320  0.3282
  243MOL   H11844162   0.921   5.333   6.021  1.0636 -1.4215 -2.2665
  243MOL   C11944163   0.890   5.667   5.774  0.0973  0.4717  0.1071
  243MOL   C12044164   0.835   5.748   5.652 -0.6847  0.3464  0.0932
  243MOL   C12144165   0.822   5.661   5.525 -0.5006 -0.1591  0.5569
  243MOL   O12244166   0.831   5.541   5.527 -0.0411  0.4962 -0.2996
  243MOL   O12344167   0.799   5.735   5.409  0.8822 -0.0313  0.6940
  243MOL   H12444168   0.971   5.606   5.732  2.0363  1.9578  1.5945
  243MOL   H12544169   0.933   5.730   5.851 -1.6403  0.1613  1.3632
  243MOL   H12644170   0.746   5.806   5.675  1.0298  2.6294  1.2887
  243MOL   H12744171   0.783   5.685   5.330  1.7988  0.4741  0.1722
  243MOL   C12844172   0.944   5.856   5.624  0.0966 -0.3115  0.1254
  243MOL   C12944173   0.919   5.980   5.712 -0.2786 -0.2002  0.1391
  243MOL   C13044174   0.814   6.076   5.655  0.0582  0.1694  0.3899
  243MOL   O13144175   0.728   6.039   5.577 -0.3483 -0.1416 -0.1676
  243MOL   O13244176   0.830   6.198   5.707 -0.3122 -0.4782  0.6495
  243MOL   H13344177   0.931   5.897   5.524  1.7166 -2.3674 -0.9744
  243MOL   H13444178   1.046   5.819   5.625 -0.3997 -1.7261  0.9262
  243MOL   H13544179   0.865   5.951   5.801 -0.4897 -4.7369 -1.3434
  243MOL   H13644180   0.754   6.253   5.694 -0.6205 -0.8989  0.6743
  243MOL   C13744181   1.047   6.053   5.770 -0.0263 -0.7210  0.2016
  243MOL   C13844182   1.161   6.111   5.682 -0.2350  0.0037 -0.6503
  243MOL   C13944183   1.122   6.133   5.537  0.1344  0.4162 -0.8074
  243MOL   O14044184   1.076   6.237   5.490 -0.0898  0.1669 -0.0750
  243MOL   O14144185   1.155   6.028   5.459 -0.5361  0.2757  0.0399
  243MOL   H14244186   1.079   5.972   5.835 -0.1949  0.5069  1.8297
  243MOL   H14344187   1.014   6.123   5.846  2.4321 -1.3877  1.9080
  243MOL   H14444188   1.154   6.211   5.723  0.1840 -0.2763  0.1308
  243MOL   H14544189   1.154   6.038   5.365 -0.0612 -0.7808 -0.0936
  243MOL   C14644190   1.294   6.057   5.710  0.2248 -0.0383  0.3974
  243MOL   C14744191   1.410   6.136   5.644  0.0309  0.0517  1.3044
  243MOL   C14844192   1.509   6.027   5.605  0.1699  0.4679  0.6089
  243MOL   O14944193   1.486   5.956   5.510 -0.5012 -0.0644  0.6629
  243MOL   O15044194   1.613   6.015   5.693 -0.4204  0.4827 -0.0396
  243MOL   H15144195   1.286   5.951   5.688 -0.4271 -0.0746  0.7891
  243MOL   H15244196   1.301   6.059   5.819 -1.7899  2.0433  0.5344
  243MOL   H15344197   1.370   6.194   5.561  0.1910 -1.8436 -0.1198
  243MOL   H15444198   1.681   5.957   5.662 -0.2737 -0.1206  1.3514
  243MOL   C15544199   1.474   6.247   5.734  0.0199  0.5018 -0.8909
  243MOL   C15644200   1.540   6.361   5.662  0.1485  0.4404 -0.0423
  243MOL   C15744201   1.433   6.465   5.619 -0.1362 -0.3544 -0.3622
  243MOL   O15844202   1.369   6.466   5.514  0.0858 -0.2460  0.8761
  243MOL   O15944203   1.415   6.561   5.713 -0.4088  0.5516  0.0920
  243MOL   H16044204   1.545   6.206   5.807 -1.6016 -1.2203 -0.2288
  243MOL   H16144205   1.398   6.292   5.797  0.3766 -0.4002  0.2134
  243MOL   H16244206   1.596   6.413   5.740 -0.1427 -0.1710  0.5827
  243MOL   H16344207   1.358   6.633   5.688  1.8188  1.8689 -1.3158
  243MOL   C16444208   1.645   6.332   5.559  0.1609 -0.2126  0.3953
  243MOL   C16544209   1.706   6.457   5.486 -0.3775  0.2226  0.0545
  243MOL   C16644210   1.651   6.478   5.343  0.0625 -0.2167  0.5065
  243MOL   O16744211   1.659   6.398   5.252 -0.0511  0.7408 -0.4497
  243MOL   O16844212   1.619   6.608   5.318 -0.4833  0.0919 -0.7306
  243MOL   H16944213   1.624   6.266   5.475  0.1882 -0.4962  0.6124
  243MOL   H17044214   1.719   6.281   5.620 -0.8346 -0.6251  1.2802
  243MOL   H17144215   1.677   6.541   5.548 -2.4787  0.0333 -0.6332
  243MOL   H17244216   1.629   6.642   5.231 -1.7690  0.6918 -0.6523
  243MOL   C17344217   1.869   6.446   5.505  0.8092 -0.8394 -0.2780
  243MOL   C17444218   1.933   6.329   5.431  0.0613  0.3040  0.5524
  243MOL   C17544219   2.076   6.300   5.480  0.0331  0.7804 -0.0971
  243MOL   O17644220   2.148   6.390   5.519 -0.1667 -0.1469  0.4142
  243MOL   O17744221   2.098   6.161   5.481  0.4806 -0.2383 -0.3730
  243MOL   H17844222   1.904   6.456   5.608  3.2304  0.6491 -1.2310
  243MOL   H17944223   1.908   6.538   5.463  0.4813 -0.6824 -0.2398
  243MOL   H18044224   1.866   6.245   5.450 -1.2885  2.2133  4.8812
  243MOL   H18144225   2.191   6.153   5.487  1.0270  1.9694 -3.8765
  243MOL   H18244226   1.935   6.340   5.322 -0.4450  0.8625  0.5914
  244MOL     C144227   2.512   7.607   7.546  0.2169  0.1389 -0.6278
  244MOL     C244228   2.648   7.677   7.534 -0.3177 -0.0126 -0.0912
  244MOL     C344229   2.669   7.761   7.410  0.1247  0.4600 -0.6734
  244MOL     O444230   2.776   7.820   7.381  0.7333  0.2837  0.0938
  244MOL     O544231   2.552   7.782   7.345  0.1987  0.1784 -0.2128
  244MOL     H644232   2.489   7.611   7.652  2.2317  1.0400 -0.1905
  244MOL     H744233   2.426   7.663   7.511  0.5295  1.0958  0.1057
  244MOL     H844234   2.652   7.752   7.614  0.5682  0.1858 -0.3218
  244MOL     H944235   2.575   7.852   7.286 -0.8972 -0.3254 -1.2593
  244MOL    H1044236   2.514   7.505   7.510 -0.2805  0.2368 -0.9392
  244MOL    C1144237   2.759   7.569   7.556  0.4983 -0.1224  0.1174
  244MOL    C1244238   2.896   7.612   7.610 -0.1983 -0.7422 -0.8631
  244MOL    C1344239   2.985   7.485   7.613  0.1785 -0.4069 -0.0767
  244MOL    O1444240   3.002   7.408   7.714  0.2419 -0.6898  0.2561
  244MOL    O1544241   3.030   7.453   7.486  0.2359  0.4601  0.4479
  244MOL    H1644242   2.761   7.520   7.458 -1.8987  0.5652 -0.2962
  244MOL    H1744243   2.723   7.499   7.632  1.9828  1.1932  2.0716
  244MOL    H1844244   2.946   7.678   7.539 -0.9734  0.7049 -0.0638
  244MOL    H1944245   3.006   7.506   7.412  1.9090  1.8616  0.8713
  244MOL    C2044246   2.889   7.691   7.742  0.5470 -0.1671 -0.2489
  244MOL    C2144247   3.017   7.781   7.762  0.0756 -0.6910 -0.1714
  244MOL    C2244248   3.051   7.798   0.054  0.5950 -0.4607 -0.8307
  244MOL    O2344249   3.003   0.035   0.119  0.3667 -0.2759 -0.6864
  244MOL    O2444250   3.149   7.715   0.098  0.0919  0.2136 -0.0367
  244MOL    H2544251   2.875   7.620   7.824 -2.2711  0.4072 -0.1721
  244MOL    H2644252   2.806   7.761   7.747  1.1428  0.6104 -1.0666
  244MOL    H2744253   3.108   7.731   7.728  0.3090  1.2372 -2.5192
  244MOL    H2844254   3.185   7.738   0.183  1.2518 -2.4414  0.2093
  244MOL    C2944255   3.000   0.061   7.686 -0.1624  0.6927 -0.4532
  244MOL    C3044256   3.131   0.106   7.629  0.6505 -0.3190  0.1212
  244MOL    C3144257   3.158   0.253   7.650  0.7483  0.3373 -0.5472
  244MOL    O3244258   3.100   0.343   7.588  0.0365 -0.4174 -0.0095
  244MOL    O3344259   3.263   0.261   7.732  0.2636  0.2764  0.6862
  244MOL    H3444260   2.941   0.138   7.735 -0.0224  1.6065 -1.7228
  244MOL    H3544261   2.945   0.035   7.596  1.4550  2.4490 -1.9797
  244MOL    H3644262   3.203   0.057   7.695  0.0247 -0.9290  0.3467
  244MOL    H3744263   3.290   0.351   7.738 -1.9060  1.2045 -2.4613
  244MOL    C3844264   3.167   0.057   7.486 -0.4829  0.4057 -0.2903
  244MOL    C3944265   3.311   0.084   7.435  0.2004  0.0263 -0.3192
  244MOL    C4044266   3.303   0.094   7.282 -0.3734 -0.7586  0.5446
  244MOL    O4144267   3.304   0.200   7.220 -0.2957 -0.5607  0.4065
  244MOL    O4244268   3.290   7.823   7.216 -0.0213 -0.1121 -0.0760
  244MOL    H4344269   3.099   0.094   7.409 -0.5055  1.5474  0.2746
  244MOL    H4444270   3.149   7.802   7.481  2.9090 -0.2727  0.5482
  244MOL    H4544271   3.343   0.182   7.469  1.6556 -0.5959  0.1480
  244MOL    H4644272   3.274   7.824   7.123  1.3924 -0.4737 -0.3358
  244MOL    C4744273   3.426   7.834   7.475  0.7482  0.0906  0.4598
  244MOL    C4844274   3.514   0.020   7.598  0.3596  0.0622  0.1068
  244MOL    C4944275   3.602   0.132   7.548 -0.1784  0.0351 -0.2556
  244MOL    O5044276   3.678   0.119   7.448  0.2093 -0.4785 -0.3532
  244MOL    O5144277   3.590   0.244   7.625  0.4535  0.2382 -0.1008
  244MOL    H5244278   3.494   7.803   7.396  1.2291  2.6361 -0.1623
  244MOL    H5344279   3.383   7.739   7.507 -0.2087  0.3780  0.0610
  244MOL    H5444280   3.451   0.064   7.675  1.4341  0.8650  0.5421
  244MOL    H5544281   3.645   0.320   7.614  1.0669  0.2547  2.6551
  244MOL    C5644282   3.591   7.757   7.660  0.8879 -1.9317 -0.1496
  244MOL    C5744283   3.525   7.701   7.788 -0.3556  0.4395 -0.6227
  244MOL    C5844284   3.544   7.781   0.069 -0.3459 -0.0674  0.3749
  244MOL    O5944285   3.654   7.780   0.125  0.1666 -0.0838  0.5850
  244MOL    O6044286   3.423   7.841   0.111  0.5240 -0.6941 -0.0524
  244MOL    H6144287   3.694   7.787   7.679  0.4203 -0.8092  0.7144
  244MOL    H6244288   3.598   7.677   7.586  2.5703 -3.3473  1.5150
  244MOL    H6344289   3.417   7.696   7.771 -0.4421 -2.6504  0.4930
  244MOL    H6444290   3.431   0.024   0.198  2.5176 -1.5346  0.1438
  244MOL    C6544291   3.583   7.559   7.810 -0.0824  1.1582 -0.0908
  244MOL    C6644292   3.521   7.434   7.747 -0.1626 -0.4434  0.2221
  244MOL    C6744293   3.371   7.415   7.780 -0.2498  0.4224 -0.0348
  244MOL    O6844294   3.315   7.475   0.023 -0.3042  0.2637 -0.0766
  244MOL    O6944295   3.309   7.338   7.691 -0.0767 -0.6420 -0.0507
  244MOL    H7044296   3.575   7.529   0.062 -1.6698 -3.0658 -1.3041
  244MOL    H7144297   3.689   7.582   7.796  0.0059  0.3776 -0.7057
  244MOL    H7244298   3.516   7.443   7.638 -1.1762 -0.7184  0.2417
  244MOL    H7344299   3.221   7.339   7.725 -0.3051 -2.2914 -0.5404
  244MOL    C7444300   3.607   7.303   7.771 -0.3409 -0.2885  0.1559
  244MOL    C7544301   3.725   7.262   7.681  0.4801  0.4153 -0.6257
  244MOL    C7644302   3.834   7.366   7.686  0.2450  0.1862  0.1459
  244MOL    O7744303   3.884   7.430   7.595 -0.0061 -0.5465  0.0140
  244MOL    O7844304   3.874   7.375   7.812  0.4617  0.1667 -0.5194
  244MOL    H7944305   3.539   7.218   7.770 -0.2333 -0.4140  1.5457
  244MOL    H8044306   3.637   7.302   0.024  2.2946  0.9961 -0.5299
  244MOL    H8144307   3.772   7.172   7.720  1.7874  0.6582 -1.5863
  244MOL    H8244308   3.956   7.422   7.822  0.4546 -0.2193  1.4978
  244MOL    C8344309   3.692   7.221   7.534 -0.4348  0.0371 -0.2276
  244MOL    C8444310   3.598   7.100   7.523 -0.0015 -0.1253 -0.0123
  244MOL    C8544311   3.638   6.983   7.608 -0.6890 -0.1185 -0.3552
  244MOL    O8644312   3.587   6.953   7.717 -0.4538 -0.0880 -0.0069
  244MOL    O8744313   3.753   6.933   7.563  0.1917  0.5960 -0.5655
  244MOL    H8844314   3.785   7.184   7.492  0.9808  2.2837  0.8607
  244MOL    H8944315   3.659   7.304   7.472 -2.2589  1.0576  2.0255
  244MOL    H9044316   3.499   7.130   7.557  1.0116  3.3443  0.0186
  244MOL    H9144317   3.777   6.860   7.617  1.1187  0.8171 -0.6833
  244MOL    C9244318   3.584   7.055   7.373 -0.3141 -0.2654 -0.3350
  244MOL    C9344319   3.504   7.141   7.281 -0.1913  0.0262  0.9405
  244MOL    C9444320   3.360   7.089   7.279 -0.7605  0.2427 -0.8181
  244MOL    O9544321   3.331   6.973   7.269 -0.5198 -0.0026  0.0435
  244MOL    O9644322   3.269   7.186   7.308  0.3571 -0.2034  0.1432
  244MOL    H9744323   3.541   6.954   7.374  1.3606 -0.9944  0.4753
  244MOL    H9844324   3.681   7.039   7.327 -0.6506 -2.7738 -0.2325
  244MOL    H9944325   3.496   7.247   7.308 -1.5414  0.6684 -1.8523
  244MOL   H10044326   3.189   7.138   7.292  0.9341 -0.8362 -0.8928
  244MOL   C10144327   3.562   7.142   7.136 -0.0544 -0.1616 -0.2439
  244MOL   C10244328   3.634   7.263   7.088  0.6307  0.0786  0.0464
  244MOL   C10344329   3.777   7.284   7.140  0.4635  0.4139  0.3517
  244MOL   O10444330   3.870   7.306   7.061 -0.0273 -0.0126 -0.5067
  244MOL   O10544331   3.788   7.288   7.272 -0.2166 -0.1129 -0.1602
  244MOL   H10644332   3.474   7.134   7.072 -1.1719  2.0340  0.9328
  244MOL   H10744333   3.611   7.048   7.112 -1.8705 -1.6830  1.9619
  244MOL   H10844334   3.646   7.246   6.981  0.1704  0.7356 -0.1175
  244MOL   H10944335   3.881   7.291   7.292 -0.2441  0.4476 -0.1062
  244MOL   C11044336   3.543   7.393   7.103 -0.0066  0.6227  0.2592
  244MOL   C11144337   3.547   7.494   6.986 -0.1526 -1.1789  0.0487
  244MOL   C11244338   3.503   7.443   6.848 -0.8323  0.0230  0.3742
  244MOL   O11344339   3.535   7.503   6.746 -0.1884  0.3456  0.0911
  244MOL   O11444340   3.420   7.339   6.854 -0.1917  0.6073  0.3225
  244MOL   H11544341   3.574   7.446   7.194  0.5334  2.9115 -1.2042
  244MOL   H11644342   3.439   7.366   7.120 -0.2830  1.4083 -0.1508
  244MOL   H11744343   3.474   7.566   7.023  0.8891 -0.9219  1.6573
  244MOL   H11844344   3.389   7.321   6.766  0.9530  1.1116 -0.2032
  244MOL   C11944345   3.680   7.580   6.978 -0.4330 -0.8651 -0.0388
  244MOL   C12044346   3.691   7.700   7.077 -0.8204 -0.4380  0.3536
  244MOL   C12144347   3.603   7.817   7.032 -0.2817 -0.2347  0.3350
  244MOL   O12244348   3.528   7.805   6.938 -0.5517 -0.3635 -0.2314
  244MOL   O12344349   3.611   0.071   7.107  0.2004  0.4660  0.4492
  244MOL   H12444350   3.709   7.615   6.878  2.6854 -0.7693  0.8290
  244MOL   H12544351   3.765   7.512   6.990  0.3720  0.3221  1.0304
  244MOL   H12644352   3.654   7.672   7.176 -1.3777  1.1595  0.6244
  244MOL   H12744353   3.557   0.135   7.064  1.4162  0.3386 -1.2832
  244MOL   C12844354   3.838   7.753   7.093  0.1642 -0.6282  0.9448
  244MOL   C12944355   3.922   7.673   7.185  0.0875  0.5386 -0.1791
  244MOL   C13044356   3.889   7.704   7.337  0.5130 -0.0566  0.3391
  244MOL   O13144357   3.959   7.779   7.404  0.0713  0.3348 -0.4251
  244MOL   O13244358   3.780   7.624   7.382 -0.4432  0.3697  0.2668
  244MOL   H13344359   3.858   0.006   7.114  1.2787 -0.9611  1.6169
  244MOL   H13444360   3.875   7.749   6.990 -2.1919 -0.9469  0.0794
  244MOL   H13544361   3.904   7.566   7.173  2.3317  0.3481 -2.0676
  244MOL   H13644362   3.774   7.641   7.475 -1.0926 -2.0159  0.6846
  244MOL   C13744363   4.067   7.675   7.152  0.1200 -0.6172  0.0016
  244MOL   C13844364   4.138   7.535   7.135 -0.7500  0.6075  0.3862
  244MOL   C13944365   4.164   7.450   7.260  0.5993 -0.6993  0.5915
  244MOL   O14044366   4.267   7.390   7.286  0.1348 -0.2739  0.0872
  244MOL   O14144367   4.053   7.445   7.339  0.1050 -0.5608  0.0295
  244MOL   H14244368   4.125   7.732   7.225 -0.1603 -0.5040  0.1362
  244MOL   H14344369   4.080   7.735   7.062  0.0209 -0.1948  0.2672
  244MOL   H14444370   4.067   7.470   7.084 -0.2757  0.2523  0.1754
  244MOL   H14544371   4.064   7.381   7.408  1.3988  0.2470  0.5954
  244MOL   C14644372   4.264   7.549   7.039  0.4086 -0.1354 -0.2155
  244MOL   C14744373   4.244   7.583   6.892  0.0755 -0.5566 -0.5369
  244MOL   C14844374   4.113   7.525   6.834 -0.1512 -0.4543 -0.3300
  244MOL   O14944375   4.093   7.406   6.838 -0.3214  0.0066 -0.3507
  244MOL   O15044376   4.036   7.626   6.784 -0.1723  0.7388 -0.2962
  244MOL   H15144377   4.315   7.453   7.033  1.9331  0.5927  0.7132
  244MOL   H15244378   4.328   7.624   7.086  0.9049  0.9189 -2.5202
  244MOL   H15344379   4.225   7.690   6.886 -0.3375 -0.2818  4.0383
  244MOL   H15444380   3.956   7.587   6.751  0.0311 -0.5799  0.7252
  244MOL   C15544381   4.355   7.539   6.799 -0.2548 -0.4300  1.0306
  244MOL   C15644382   4.353   7.599   6.652  0.5237  0.1558  0.2843
  244MOL   C15744383   4.347   7.752   6.636 -0.7846 -0.0212 -0.2964
  244MOL   O15844384   4.269   7.805   6.556  0.2676 -0.0177  0.3254
  244MOL   O15944385   4.438   7.815   6.712 -0.0875 -0.2101 -0.0464
  244MOL   H16044386   4.365   7.430   6.807  0.1893 -0.7718 -3.0155
  244MOL   H16144387   4.451   7.575   6.837 -0.1348  0.3273  0.0132
  244MOL   H16244388   4.454   7.585   6.613  0.3516  0.1689 -0.1769
  244MOL   H16344389   4.415   0.053   6.720 -1.4183 -0.4508 -0.9513
  244MOL   C16444390   4.258   7.530   6.545 -0.0043 -0.3086  0.2921
  244MOL   C16544391   4.289   7.382   6.511  0.3125  0.3323 -0.3058
  244MOL   C16644392   4.395   7.376   6.401  0.3921 -0.4595  0.2113
  244MOL   O16744393   4.385   7.317   6.290  0.2231 -0.2462 -0.3787
  244MOL   O16844394   4.509   7.439   6.437 -0.4668  1.0027 -0.2149
  244MOL   H16944395   4.259   7.589   6.453 -2.4101 -0.9783 -0.2070
  244MOL   H17044396   4.155   7.551   6.574 -0.0160 -0.3074  0.2491
  244MOL   H17144397   4.338   7.335   6.595  0.8883 -0.5623 -1.1322
  244MOL   H17244398   4.572   7.420   6.369 -0.0627 -1.1994  0.7220
  244MOL   C17344399   4.161   7.291   6.477  0.6443 -0.5708  0.0543
  244MOL   C17444400   4.070   7.341   6.364  0.2632 -0.1687  1.1865
  244MOL   C17544401   3.951   7.247   6.348  0.0293  0.0671  0.1380
  244MOL   O17644402   3.872   7.230   6.441  0.3990 -0.3315 -0.1687
  244MOL   O17744403   3.941   7.192   6.224  0.1082 -0.1430 -0.6237
  244MOL   H17844404   4.111   7.281   6.574  0.5645 -0.5372  0.0163
  244MOL   H17944405   4.199   7.194   6.445  1.3402 -0.4773  0.5772
  244MOL   H18044406   4.030   7.441   6.382 -0.7676 -0.4933  0.7344
  244MOL   H18144407   3.868   7.132   6.225  0.8390 -1.0429  1.3103
  244MOL   H18244408   4.116   7.332   6.265 -1.0695 -0.5494  0.5889
  245MOL     C144409   0.602   2.884   4.097  0.0145 -0.1576 -0.3293
  245MOL     C244410   0.716   2.826   4.191  0.8297  0.7320 -0.0524
  245MOL     C344411   0.829   2.784   4.091 -0.3877  0.3984 -0.2388
  245MOL     O444412   0.819   2.692   4.015 -0.2270  0.3924 -0.1997
  245MOL     O544413   0.933   2.876   4.090 -0.2409  0.2798 -0.1538
  245MOL     H644414   0.565   2.807   4.028 -1.2685 -0.5246  0.7541
  245MOL     H744415   0.523   2.923   4.161 -0.4797  2.4981 -2.4884
  245MOL     H844416   0.748   2.904   4.260  0.1034  0.8372  0.1666
  245MOL     H944417   0.926   2.943   4.156 -0.9602  0.8007 -0.7526
  245MOL    H1044418   0.641   2.969   4.041  0.1478 -0.6756 -1.0475
  245MOL    C1144419   0.660   2.704   4.272 -0.4204  0.1596 -0.6552
  245MOL    C1244420   0.732   2.668   4.404  0.1056 -0.2405  0.0227
  245MOL    C1344421   0.687   2.770   4.508 -0.6653  0.6916 -0.6943
  245MOL    O1444422   0.764   2.863   4.536 -0.3002  0.1406 -0.1188
  245MOL    O1544423   0.571   2.747   4.563 -0.5667 -0.0428 -0.2175
  245MOL    H1644424   0.660   2.614   4.210  0.1453  1.4464 -2.5933
  245MOL    H1744425   0.553   2.715   4.284 -0.6641 -0.5353 -1.9720
  245MOL    H1844426   0.701   2.568   4.435 -1.4676  0.4859  0.8521
  245MOL    H1944427   0.554   2.810   4.631 -0.8277  0.7591 -1.0054
  245MOL    C2044428   0.890   2.646   4.386 -0.6984 -0.1351 -0.1253
  245MOL    C2144429   0.974   2.572   4.490 -0.6647 -0.4178 -0.6345
  245MOL    C2244430   0.947   2.420   4.486  0.2230 -0.4240  1.2592
  245MOL    O2344431   0.843   2.363   4.517  0.6997 -0.3312 -0.1475
  245MOL    O2444432   1.052   2.350   4.441 -0.2468 -0.2771  0.4470
  245MOL    H2544433   0.927   2.749   4.381  1.7793 -0.8134  2.4973
  245MOL    H2644434   0.909   2.600   4.290 -0.7626  1.5405 -0.9587
  245MOL    H2744435   1.077   2.590   4.458 -0.6343  0.8536  0.1674
  245MOL    H2844436   1.035   2.257   4.441 -0.3977 -0.2686  2.1181
  245MOL    C2944437   0.954   2.628   4.633  0.1381 -0.2393 -0.0956
  245MOL    C3044438   1.065   2.606   4.738 -1.3484 -0.4870  0.1780
  245MOL    C3144439   1.130   2.468   4.758  0.9290 -0.1142 -0.6818
  245MOL    O3244440   1.239   2.441   4.719 -0.4939  0.1286 -0.0023
  245MOL    O3344441   1.045   2.383   4.824  0.7117 -0.2767  0.0721
  245MOL    H3444442   0.860   2.599   4.679  0.6819 -1.8954  0.0120
  245MOL    H3544443   0.944   2.736   4.627  0.5772 -0.1525  0.6266
  245MOL    H3644444   1.146   2.667   4.698 -0.5797 -0.4168  1.8019
  245MOL    H3744445   1.093   2.304   4.845  1.5645  0.0180 -0.7302
  245MOL    C3844446   1.016   2.660   4.880 -0.1970  0.2857  0.0909
  245MOL    C3944447   1.121   2.716   4.969 -0.5910 -0.7334  0.0523
  245MOL    C4044448   1.220   2.619   5.033  0.1347 -0.7823  0.0402
  245MOL    O4144449   1.344   2.634   5.034 -0.6565  0.6291  0.3536
  245MOL    O4244450   1.154   2.516   5.090  0.0684  0.5690  0.5649
  245MOL    H4344451   0.955   2.584   4.927 -0.0054 -0.7680 -1.3078
  245MOL    H4444452   0.943   2.739   4.865 -0.8058  0.2964  3.0037
  245MOL    H4544453   1.181   2.779   4.903 -0.9140 -1.7493 -1.2394
  245MOL    H4644454   1.062   2.530   5.073  0.3974  2.3828  0.2017
  245MOL    C4744455   1.054   2.822   5.059 -0.7580 -0.4930 -0.9563
  245MOL    C4844456   0.937   2.776   5.154 -0.2939 -0.0089  0.0627
  245MOL    C4944457   0.799   2.796   5.088  0.1178 -0.3296 -1.1976
  245MOL    O5044458   0.722   2.700   5.059 -0.1737  0.2112 -0.5383
  245MOL    O5144459   0.775   2.927   5.076 -0.3882 -0.1088  0.1165
  245MOL    H5244460   1.028   2.912   5.004 -2.0299  1.2043  2.2839
  245MOL    H5344461   1.138   2.858   5.118 -2.7019  3.3425 -0.3678
  245MOL    H5444462   0.949   2.669   5.174  2.5259  0.5085  1.3114
  245MOL    H5544463   0.682   2.931   5.060 -0.7564  1.4261  2.2982
  245MOL    C5644464   0.942   2.839   5.291 -0.4015 -0.0946  0.8539
  245MOL    C5744465   1.053   2.788   5.384  0.5402  0.1290  0.3579
  245MOL    C5844466   1.003   2.672   5.465 -0.2781  0.0732 -0.7925
  245MOL    O5944467   1.017   2.559   5.423  0.3359  0.0095  0.4338
  245MOL    O6044468   0.956   2.706   5.592  0.0927 -0.1517 -1.1397
  245MOL    H6144469   0.844   2.823   5.336 -1.8890  0.6897 -1.9867
  245MOL    H6244470   0.937   2.947   5.276 -0.6227 -0.4194 -1.5672
  245MOL    H6344471   1.125   2.750   5.311 -0.3268  0.8769 -0.9101
  245MOL    H6444472   0.928   2.631   5.641  0.7271 -0.0903 -0.6863
  245MOL    C6544473   1.140   2.884   5.471  0.5694  0.2825  0.6141
  245MOL    C6644474   1.249   2.968   5.398 -0.0660  0.4820 -0.2082
  245MOL    C6744475   1.195   3.075   5.305  0.0249  0.8927 -0.4167
  245MOL    O6844476   1.244   3.111   5.193 -0.1374  0.1131  0.3844
  245MOL    O6944477   1.098   3.140   5.363  0.2971 -0.4316  0.3755
  245MOL    H7044478   1.189   2.825   5.548 -0.3430  0.1789  1.1236
  245MOL    H7144479   1.083   2.951   5.536  0.1351  3.0441 -2.4760
  245MOL    H7244480   1.296   3.025   5.479 -1.0382 -0.0999  0.7866
  245MOL    H7344481   1.086   3.215   5.306  0.8398  0.5870  1.5811
  245MOL    C7444482   1.353   2.883   5.333 -0.4616 -0.4356 -0.0290
  245MOL    C7544483   1.443   2.784   5.414  1.1011 -0.8221 -0.0745
  245MOL    C7644484   1.381   2.652   5.454  0.8709  0.3123 -0.0017
  245MOL    O7744485   1.384   2.611   5.571 -0.1590  0.2542 -1.0121
  245MOL    O7844486   1.323   2.588   5.346 -1.2571  0.4094  0.7461
  245MOL    H7944487   1.424   2.954   5.290 -1.8228  1.4152  0.7186
  245MOL    H8044488   1.316   2.836   5.242 -1.7405  2.2580 -0.9542
  245MOL    H8144489   1.508   2.750   5.334  1.1551  1.7415 -1.1777
  245MOL    H8244490   1.298   2.497   5.356 -3.5150  0.8105 -0.7507
  245MOL    C8344491   1.517   2.862   5.522  0.0511  0.5002  0.0327
  245MOL    C8444492   1.615   2.971   5.471  0.2348 -0.7603 -0.7300
  245MOL    C8544493   1.720   2.923   5.371  0.7528  1.1329  0.2834
  245MOL    O8644494   1.792   2.820   5.391 -0.1171 -0.1644 -0.0835
  245MOL    O8744495   1.747   3.012   5.277  0.0264 -0.2871  0.2558
  245MOL    H8844496   1.582   2.791   5.574 -0.9382  0.0921  0.7131
  245MOL    H8944497   1.457   2.898   5.606 -1.5535  0.6610 -1.1690
  245MOL    H9044498   1.550   3.049   5.431  0.9008  1.0500  1.6163
  245MOL    H9144499   1.818   2.980   5.222  0.0097  1.7961 -1.0295
  245MOL    C9244500   1.691   3.050   5.582  0.5231  0.0930 -0.1621
  245MOL    C9344501   1.743   3.194   5.548  0.3868  0.4981 -0.2951
  245MOL    C9444502   1.874   3.197   5.477  0.6004 -0.1193  0.2587
  245MOL    O9544503   1.899   3.274   5.383  0.0348  0.3762  0.0475
  245MOL    O9644504   1.955   3.105   5.528 -0.2623  0.0625 -0.6734
  245MOL    H9744505   1.763   2.983   5.629  0.3527 -1.8913 -2.6060
  245MOL    H9844506   1.615   3.063   5.659  0.2713  3.3189 -0.8446
  245MOL    H9944507   1.666   3.237   5.484 -1.0930  0.0955  1.1794
  245MOL   H10044508   2.038   3.104   5.483 -0.3970 -0.1239 -0.9184
  245MOL   C10144509   1.760   3.272   5.680  0.1664 -0.3569  0.0764
  245MOL   C10244510   1.648   3.291   5.785  0.6864 -0.5863  0.6985
  245MOL   C10344511   1.511   3.324   5.719  0.0449 -0.2977  0.6504
  245MOL   O10444512   1.498   3.384   5.612  0.2933 -0.1755 -0.7353
  245MOL   O10544513   1.408   3.278   5.791 -0.2681 -0.2090 -0.1838
  245MOL   H10644514   1.776   3.371   5.638 -1.3072 -0.2011 -0.1588
  245MOL   H10744515   1.856   3.250   5.727  1.2263  2.4323 -0.7092
  245MOL   H10844516   1.623   3.192   5.824  1.0188 -0.7633  0.4746
  245MOL   H10944517   1.331   3.323   5.760 -1.0537 -0.1574  1.8006
  245MOL   C11044518   1.670   3.397   5.897 -0.1494 -0.2295 -0.3628
  245MOL   C11144519   1.798   3.378   5.990  0.5520  0.8898  0.0143
  245MOL   C11244520   1.769   3.263   6.082  0.1438  0.8106 -0.4616
  245MOL   O11344521   1.654   3.224   6.116  1.0614 -0.2978  0.6835
  245MOL   O11444522   1.878   3.214   6.141  0.0505  0.4427  0.4952
  245MOL   H11544523   1.584   3.396   5.964 -0.5283 -0.4969 -0.8530
  245MOL   H11644524   1.658   3.494   5.849  0.8162  0.2023  0.2511
  245MOL   H11744525   1.880   3.349   5.923  0.1803 -0.5230  0.1517
  245MOL   H11844526   1.846   3.141   6.192 -0.8140 -0.5478 -1.3862
  245MOL   C11944527   1.844   3.490   6.075  0.1157  0.1503 -0.2848
  245MOL   C12044528   1.880   3.631   6.017  0.3844 -0.4579  0.5790
  245MOL   C12144529   1.952   3.628   5.881  0.5529 -0.8402 -0.3359
  245MOL   O12244530   2.072   3.643   5.864 -0.5327  0.0474  0.4231
  245MOL   O12344531   1.876   3.579   5.784 -0.2656  0.1565 -0.2519
  245MOL   H12444532   1.932   3.447   6.121  0.0406  1.3635  1.0103
  245MOL   H12544533   1.778   3.492   6.162  0.1143 -2.7299 -0.1597
  245MOL   H12644534   1.791   3.691   6.000 -0.4087 -1.3779  1.4434
  245MOL   H12744535   1.921   3.554   5.705 -0.3884 -2.9955  0.6289
  245MOL   C12844536   1.970   3.714   6.115  0.1207  0.0292  0.1573
  245MOL   C12944537   1.928   3.732   6.261  0.6007  0.5133 -0.8598
  245MOL   C13044538   1.802   3.818   6.292  0.0999 -0.0783 -0.2207
  245MOL   O13144539   1.727   3.806   6.393  0.3679 -0.5051  0.4761
  245MOL   O13244540   1.784   3.909   6.190  0.3531 -0.7218  0.4538
  245MOL   H13344541   1.997   3.814   6.082 -2.4033 -0.1901 -2.8142
  245MOL   H13444542   2.060   3.652   6.120  0.1520 -0.0218 -0.8792
  245MOL   H13544543   1.910   3.629   6.293  0.0926  0.7748 -0.2812
  245MOL   H13644544   1.722   3.975   6.216  1.9160  0.6034  0.8665
  245MOL   C13744545   2.043   3.791   6.349 -0.6329  0.7631  0.5363
  245MOL   C13844546   2.033   3.755   6.499  0.6056 -0.3481 -0.2161
  245MOL   C13944547   2.055   3.890   6.580 -0.4135 -0.2654  0.7068
  245MOL   O14044548   2.153   3.900   6.654 -0.0206 -0.2100  0.2951
  245MOL   O14144549   1.972   3.990   6.546 -0.6810  0.0201  0.0990
  245MOL   H14244550   2.054   3.896   6.323  0.5857  0.7872  1.1137
  245MOL   H14344551   2.140   3.751   6.318 -0.2750  1.1912  1.0892
  245MOL   H14444552   1.933   3.721   6.525  0.5769 -0.7564 -0.8488
  245MOL   H14544553   2.006   4.067   6.590  0.9740 -0.5855 -0.0776
  245MOL   C14644554   2.109   3.630   6.544  0.8140  0.2788 -0.4253
  245MOL   C14744555   2.065   3.491   6.480  0.6466  0.1000 -0.2623
  245MOL   C14844556   1.917   3.443   6.502  0.2157  0.4266 -0.1092
  245MOL   O14944557   1.835   3.437   6.414 -0.5842  0.4392 -0.0865
  245MOL   O15044558   1.901   3.418   6.633  0.3011  0.0636 -0.3079
  245MOL   H15144559   2.102   3.616   6.651  0.9136 -3.7196 -0.8324
  245MOL   H15244560   2.216   3.649   6.534  1.3407 -2.7246 -1.1322
  245MOL   H15344561   2.068   3.512   6.373  1.3081 -0.7232 -0.4040
  245MOL   H15444562   1.808   3.426   6.645  0.4485 -0.9983  1.7360
  245MOL   C15544563   2.170   3.383   6.514  0.0452 -0.3758  0.4287
  245MOL   C15644564   2.295   3.381   6.430 -0.7364 -0.0096  0.0586
  245MOL   C15744565   2.257   3.338   6.285 -0.5631  1.0884  0.0154
  245MOL   O15844566   2.235   3.219   6.254 -0.2298  0.4385 -1.1551
  245MOL   O15944567   2.247   3.442   6.197  0.5297 -0.4335 -0.5031
  245MOL   H16044568   2.129   3.282   6.505 -0.9312  0.1149 -0.8930
  245MOL   H16144569   2.196   3.378   6.620  0.4723  0.7284  0.3831
  245MOL   H16244570   2.337   3.481   6.424 -0.9453  0.0902  0.2628
  245MOL   H16344571   2.211   3.410   6.116 -1.1326 -0.2641  0.1472
  245MOL   C16444572   2.388   3.278   6.499  0.1772 -0.0614 -0.7291
  245MOL   C16544573   2.531   3.283   6.439 -0.0946 -0.8168 -0.0407
  245MOL   C16644574   2.619   3.175   6.496 -0.2179 -0.1809  0.2946
  245MOL   O16744575   2.636   3.165   6.621 -0.3648  0.2559 -0.4419
  245MOL   O16844576   2.685   3.098   6.406  0.0708 -0.2661 -0.9740
  245MOL   H16944577   2.338   3.184   6.476  0.0384  0.2577 -1.7426
  245MOL   H17044578   2.397   3.286   6.607 -1.8713 -2.5536 -0.3155
  245MOL   H17144579   2.527   3.277   6.330  0.7777  1.6788 -0.2484
  245MOL   H17244580   2.738   3.027   6.440 -0.8285 -0.6058 -0.2636
  245MOL   C17344581   2.604   3.421   6.474 -0.5497  0.1076 -0.1488
  245MOL   C17444582   2.742   3.448   6.414 -0.1597 -0.0004  0.2177
  245MOL   C17544583   2.740   3.495   6.270  0.0479  1.0886 -0.4756
  245MOL   O17644584   2.842   3.533   6.210  0.1155  0.5406 -0.1071
  245MOL   O17744585   2.615   3.491   6.218  0.1753 -0.3266  0.4512
  245MOL   H17844586   2.616   3.418   6.582 -2.1818  0.6729  0.0581
  245MOL   H17944587   2.531   3.496   6.442  0.4302  0.7977 -0.7915
  245MOL   H18044588   2.778   3.530   6.477 -0.2165  2.1193 -2.4463
  245MOL   H18144589   2.617   3.493   6.124  0.8874  1.7839  0.5006
  245MOL   H18244590   2.815   3.368   6.422 -0.4646 -0.0904  2.7613
  246MOL     C144591   1.507   1.644   3.050 -0.3229  0.2564 -0.0684
  246MOL     C244592   1.400   1.675   2.945 -0.0606 -0.4214 -0.1849
  246MOL     C344593   1.294   1.564   2.940 -0.8468 -0.2744 -0.1727
  246MOL     O444594   1.175   1.585   2.934 -0.3659  0.0280  0.4330
  246MOL     O544595   1.348   1.439   2.950  0.8310  0.7860  0.4172
  246MOL     H644596   1.460   1.629   3.148  0.3951 -1.9900 -0.0279
  246MOL     H744597   1.564   1.558   3.015  1.6351  2.7255 -3.2111
  246MOL     H844598   1.359   1.765   2.992  1.0152  0.3175 -0.6374
  246MOL     H944599   1.275   1.380   2.964  0.7981  1.0417  1.3219
  246MOL    H1044600   1.587   1.715   3.070 -1.8065  1.4299  1.9040
  246MOL    C1144601   1.453   1.719   2.807 -0.8868 -0.3001  0.3028
  246MOL    C1244602   1.360   1.786   2.706 -0.2093 -0.3820  0.2009
  246MOL    C1344603   1.279   1.906   2.761 -0.0327 -0.6703 -0.1949
  246MOL    O1444604   1.156   1.917   2.765 -0.2224 -0.6468 -0.5102
  246MOL    O1544605   1.367   1.997   2.807 -0.3121 -0.1303 -0.8189
  246MOL    H1644606   1.494   1.626   2.767 -2.1076 -0.0040 -1.6921
  246MOL    H1744607   1.537   1.780   2.838 -0.2616 -1.1551  0.3164
  246MOL    H1844608   1.417   1.840   2.631  0.0201 -0.0419  0.6174
  246MOL    H1944609   1.321   2.065   2.854 -1.4820 -1.6138  0.2427
  246MOL    C2044610   1.277   1.691   2.629 -0.7314  0.4709 -0.1759
  246MOL    C2144611   1.346   1.570   2.555 -0.0192 -0.2932 -0.0891
  246MOL    C2244612   1.451   1.621   2.456  0.0327  0.5047 -0.2672
  246MOL    O2344613   1.443   1.727   2.389  0.6780 -0.3571 -0.0015
  246MOL    O2444614   1.549   1.527   2.455  0.7034 -0.2396 -0.1059
  246MOL    H2544615   1.221   1.752   2.558 -1.4380 -0.1457 -0.1633
  246MOL    H2644616   1.200   1.653   2.697  0.7393  0.6047  1.6040
  246MOL    H2744617   1.386   1.504   2.632 -0.4129 -0.4485 -0.0165
  246MOL    H2844618   1.611   1.563   2.394 -1.5004  0.9049 -1.7584
  246MOL    C2944619   1.234   1.488   2.487  0.1277 -0.5264 -0.5794
  246MOL    C3044620   1.239   1.339   2.494 -0.2809  0.3078 -0.1251
  246MOL    C3144621   1.224   1.282   2.639  0.6408 -0.1286  0.3411
  246MOL    O3244622   1.120   1.289   2.709 -0.5694 -0.1077 -0.0224
  246MOL    O3344623   1.335   1.228   2.690  0.3216 -0.2498  0.5342
  246MOL    H3444624   1.234   1.517   2.382  0.5659 -2.3530 -1.1023
  246MOL    H3544625   1.135   1.518   2.519 -0.3761  0.1486 -2.6685
  246MOL    H3644626   1.151   1.305   2.440 -0.2967 -0.9580  0.6856
  246MOL    H3744627   1.350   1.224   2.784 -1.2737 -0.7597  0.7929
  246MOL    C3844628   1.358   1.290   2.420 -0.5754 -0.0252  0.1430
  246MOL    C3944629   1.351   1.145   2.363 -0.1189 -0.4366  0.1473
  246MOL    C4044630   1.500   1.089   2.335  0.6041  0.5896  0.8448
  246MOL    O4144631   1.581   1.148   2.271 -0.5600 -0.0072  0.8763
  246MOL    O4244632   1.509   0.959   2.375  0.1970  0.2830  0.1036
  246MOL    H4344633   1.444   1.298   2.487 -0.1200  4.0519 -0.8016
  246MOL    H4444634   1.380   1.354   2.335  0.4992 -0.7501 -0.1342
  246MOL    H4544635   1.301   1.084   2.439 -0.4656 -2.2984 -1.5327
  246MOL    H4644636   1.582   0.906   2.346 -0.5140  0.2723 -1.7521
  246MOL    C4744637   1.275   1.136   2.231  0.1944  0.3452 -0.8015
  246MOL    C4844638   1.250   1.002   2.156 -0.1283 -0.6639 -0.0616
  246MOL    C4944639   1.177   0.904   2.250  0.1522  0.2635  0.1421
  246MOL    O5044640   1.220   0.796   2.289  0.0224 -0.5233  0.6202
  246MOL    O5144641   1.051   0.946   2.284 -0.3974  0.2231 -0.1518
  246MOL    H5244642   1.318   1.211   2.165  2.1431 -0.0331  0.0021
  246MOL    H5344643   1.179   1.177   2.263 -0.4339 -0.7739 -1.1884
  246MOL    H5444644   1.182   1.043   2.082  1.2168 -0.8052 -1.4061
  246MOL    H5544645   1.012   0.887   2.345  0.2215  1.0188  1.0331
  246MOL    C5644646   1.356   0.941   2.071 -0.3926 -0.3519 -0.3399
  246MOL    C5744647   1.322   0.903   1.924  0.2873 -0.2806  0.7114
  246MOL    C5844648   1.280   0.754   1.922 -0.1709 -0.3429  0.1617
  246MOL    O5944649   1.166   0.719   1.903  0.5779  0.0246 -0.4692
  246MOL    O6044650   1.385   0.677   1.945 -0.1073 -0.4494 -0.6641
  246MOL    H6144651   1.400   0.851   2.114  2.4632  1.7054  1.1763
  246MOL    H6244652   1.434   1.016   2.061 -1.5864  0.6586 -2.3660
  246MOL    H6344653   1.248   0.971   1.883 -0.1172 -0.9450  0.3355
  246MOL    H6444654   1.361   0.586   1.943 -1.2933 -0.1805  1.0279
  246MOL    C6544655   1.447   0.920   1.842 -0.3493  0.8308  0.3417
  246MOL    C6644656   1.443   0.900   1.691 -0.0425  0.1822 -0.1079
  246MOL    C6744657   1.541   0.783   1.655  0.7523 -0.6786 -0.2399
  246MOL    O6844658   1.509   0.680   1.607 -0.0597 -0.1354  0.6117
  246MOL    O6944659   1.667   0.816   1.694 -0.2828 -0.3311  0.5173
  246MOL    H7044660   1.526   0.868   1.896 -2.0289 -1.3349  0.7856
  246MOL    H7144661   1.471   1.025   1.856  1.4750  0.2583  1.7822
  246MOL    H7244662   1.345   0.865   1.659  0.5217 -1.0888 -0.4641
  246MOL    H7344663   1.731   0.757   1.657 -0.6983 -1.8278  2.1428
  246MOL    C7444664   1.480   1.031   1.613 -0.3798  0.6317  0.3280
  246MOL    C7544665   1.369   1.133   1.586  0.1314  0.2111  0.2551
  246MOL    C7644666   1.286   1.089   1.471  0.6364 -0.3212  0.4164
  246MOL    O7744667   1.317   1.103   1.350 -0.1372 -0.1974  0.2891
  246MOL    O7844668   1.180   1.011   1.510 -0.0658  0.2262  0.2503
  246MOL    H7944669   1.511   0.997   1.514 -1.0127  0.6145  0.1394
  246MOL    H8044670   1.563   1.084   1.660  1.4830 -0.8082 -1.1987
  246MOL    H8144671   1.310   1.132   1.678 -1.3506  0.5093 -0.6717
  246MOL    H8244672   1.129   0.967   1.444 -1.8835  0.6386  1.3429
  246MOL    C8344673   1.424   1.276   1.570  0.0640 -0.2311  0.3199
  246MOL    C8444674   1.331   1.401   1.559 -0.0843 -0.9936  0.6016
  246MOL    C8544675   1.336   1.452   1.418 -1.4171  0.3344 -1.0199
  246MOL    O8644676   1.437   1.438   1.355  0.2855  0.0040  0.2110
  246MOL    O8744677   1.237   1.529   1.382 -0.3263  0.6353  0.1158
  246MOL    H8844678   1.494   1.277   1.487  0.1796  1.0335  0.4304
  246MOL    H8944679   1.495   1.292   1.651  0.7701  2.3232 -0.7683
  246MOL    H9044680   1.232   1.356   1.546 -0.3223  0.2493 -2.1658
  246MOL    H9144681   1.244   1.562   1.293  0.1561 -3.8779 -1.6337
  246MOL    C9244682   1.346   1.502   1.672  0.5558 -0.3315  0.5770
  246MOL    C9344683   1.311   1.444   1.817 -0.1852 -0.2073 -0.3570
  246MOL    C9444684   1.156   1.418   1.827  0.2700  0.9353  0.4234
  246MOL    O9544685   1.079   1.516   1.850 -0.0717  0.0553  0.5005
  246MOL    O9644686   1.124   1.290   1.800 -0.6610 -0.5668  0.1885
  246MOL    H9744687   1.287   1.586   1.635  0.3018 -1.0034 -0.5706
  246MOL    H9844688   1.446   1.546   1.670  0.3563  0.0840 -1.7260
  246MOL    H9944689   1.353   1.345   1.835  0.2476 -0.0136 -0.2956
  246MOL   H10044690   1.030   1.277   1.802 -0.7477  0.1513  1.1828
  246MOL   C10144691   1.360   1.542   1.921 -0.5062  0.6585  0.1199
  246MOL   C10244692   1.517   1.533   1.939 -0.0282  0.0033  0.1714
  246MOL   C10344693   1.552   1.436   2.055 -0.1288 -0.0234 -0.9408
  246MOL   O10444694   1.557   1.466   2.172 -0.1112  0.2873  0.1989
  246MOL   O10544695   1.580   1.312   2.018  0.3635  0.2909 -0.4474
  246MOL   H10644696   1.308   1.533   2.016 -0.1062 -1.9124  0.1119
  246MOL   H10744697   1.331   1.643   1.890  0.5946  0.1916 -2.5679
  246MOL   H10844698   1.574   1.498   1.853  0.5292  0.3316  0.4038
  246MOL   H10944699   1.601   1.261   2.094  0.7120 -1.6734 -1.8246
  246MOL   C11044700   1.579   1.672   1.965  0.4612 -0.6905 -0.5272
  246MOL   C11144701   1.586   1.771   1.844 -0.4187 -0.6633  0.7757
  246MOL   C11244702   1.690   1.722   1.734 -0.3031 -0.1821 -0.8866
  246MOL   O11344703   1.800   1.667   1.749  0.2024 -0.1698 -0.6275
  246MOL   O11444704   1.636   1.730   1.610  0.4748 -0.1021 -0.4054
  246MOL   H11544705   1.684   1.669   1.994  0.0705 -0.6126  0.9687
  246MOL   H11644706   1.534   1.722   2.052  0.8075  0.9862 -1.2862
  246MOL   H11744707   1.488   1.775   1.796 -0.4553  2.5802  1.0154
  246MOL   H11844708   1.687   1.688   1.543 -0.8721 -1.6104 -0.5082
  246MOL   C11944709   1.636   1.912   1.898 -0.2199  1.0760  0.1902
  246MOL   C12044710   1.676   2.018   1.799 -0.1638  0.1978  0.0503
  246MOL   C12144711   1.744   2.135   1.875 -0.6307 -0.0597  0.4505
  246MOL   O12244712   1.689   2.220   1.945 -0.6081  1.1774  0.0722
  246MOL   O12344713   1.876   2.137   1.846  0.0361 -0.5544  0.1128
  246MOL   H12444714   1.726   1.885   1.953  0.3728  2.3527 -0.1408
  246MOL   H12544715   1.555   1.959   1.956  1.4474  3.1805  0.8971
  246MOL   H12644716   1.750   1.972   1.733  0.6457  2.2185 -0.5061
  246MOL   H12744717   1.907   2.218   1.883 -0.5190  0.1139 -0.8528
  246MOL   C12844718   1.559   2.071   1.712 -0.0659  0.1937 -0.1930
  246MOL   C12944719   1.586   2.174   1.600 -0.4120 -0.6692 -0.0692
  246MOL   C13044720   1.456   2.219   1.539  0.1396 -0.1597  0.3515
  246MOL   O13144721   1.399   2.162   1.444 -0.7458  0.5069  0.0632
  246MOL   O13244722   1.410   2.335   1.597  0.6247 -0.2396  0.3228
  246MOL   H13344723   1.476   2.098   1.777  0.1275 -0.1942  0.2124
  246MOL   H13444724   1.508   1.984   1.670  1.1701 -1.3283  1.4054
  246MOL   H13544725   1.624   2.266   1.646  0.3984 -0.3324 -1.3795
  246MOL   H13644726   1.343   2.374   1.542 -0.6203 -1.9466  0.6070
  246MOL   C13744727   1.696   2.128   1.501 -0.0192  0.3614 -0.3359
  246MOL   C13844728   1.730   2.224   1.383 -0.3101  0.7233 -0.3015
  246MOL   C13944729   1.849   2.170   1.314 -0.1976 -0.1890  0.5595
  246MOL   O14044730   1.958   2.164   1.360  0.1497  0.1086  0.2168
  246MOL   O14144731   1.822   2.136   1.183 -0.0889 -0.0758  0.1892
  246MOL   H14244732   1.669   2.030   1.462 -0.1367  0.3486 -0.2203
  246MOL   H14344733   1.790   2.104   1.552 -0.9882  1.2635  1.9279
  246MOL   H14444734   1.642   2.220   1.318 -1.1365  0.2734  0.8189
  246MOL   H14544735   1.729   2.139   1.165 -0.2731 -0.0465  1.1287
  246MOL   C14644736   1.741   2.372   1.443  0.4347 -0.1927 -0.6539
  246MOL   C14744737   1.783   2.489   1.352 -0.2399 -0.5284 -0.9788
  246MOL   C14844738   1.711   2.482   1.214 -0.3260  0.2261 -0.8627
  246MOL   O14944739   1.767   2.488   1.106 -0.4165 -0.1273 -0.3779
  246MOL   O15044740   1.575   2.485   1.228 -0.1013 -0.1574 -0.2416
  246MOL   H15144741   1.815   2.372   1.523  2.1892 -0.5341 -2.2361
  246MOL   H15244742   1.642   2.396   1.479  0.4464 -3.0628  1.4217
  246MOL   H15344743   1.730   2.566   1.407  0.9377 -1.1341  1.0627
  246MOL   H15444744   1.531   2.464   1.148 -0.2750  1.8905 -0.7229
  246MOL   C15544745   1.938   2.501   1.336 -0.4951  0.7697 -0.1371
  246MOL   C15644746   1.996   2.638   1.302 -0.1349  0.3206  0.4755
  246MOL   C15744747   2.155   2.633   1.292 -0.1858  0.2479 -0.0202
  246MOL   O15844748   2.231   2.676   1.378 -0.3449  0.2087 -0.5476
  246MOL   O15944749   2.199   2.567   1.178 -0.0737 -0.1684  0.5893
  246MOL   H16044750   1.975   2.425   1.267 -1.2236  0.3183 -0.0340
  246MOL   H16144751   1.991   2.472   1.427 -0.5798  1.3918  0.1132
  246MOL   H16244752   1.950   2.662   1.206 -1.0592 -0.7761  0.6232
  246MOL   H16344753   2.293   2.569   1.181 -0.0427  2.3776 -0.5936
  246MOL   C16444754   1.948   2.755   1.385 -0.1644 -0.6190  0.2719
  246MOL   C16544755   2.000   2.790   1.534 -0.0897 -1.3823 -0.6697
  246MOL   C16644756   1.996   2.660   1.620 -0.1686  0.4868  0.2851
  246MOL   O16744757   1.894   2.619   1.682 -0.5945  0.5126 -0.2630
  246MOL   O16844758   2.108   2.587   1.616  0.2269 -0.1605  0.4582
  246MOL   H16944759   1.840   2.765   1.375 -0.0954  1.0738  0.8877
  246MOL   H17044760   1.990   2.835   1.323 -0.3025  0.8038  1.9597
  246MOL   H17144761   2.105   2.816   1.523 -0.1550 -0.0476  1.5751
  246MOL   H17244762   2.171   2.630   1.560  1.1560 -0.8834  0.9230
  246MOL   C17344763   1.903   2.902   1.598  0.5141  0.5766  0.8756
  246MOL   C17444764   1.945   2.957   1.733 -0.3989  0.0635  0.0164
  246MOL   C17544765   1.872   3.083   1.752  0.1566 -0.3542  0.0815
  246MOL   O17644766   1.770   3.089   1.822 -0.4803 -0.5032  0.0266
  246MOL   O17744767   1.924   3.190   1.687 -0.0494  0.2361  0.1087
  246MOL   H17844768   1.802   2.859   1.601  1.0351 -0.8080 -0.9008
  246MOL   H17944769   1.882   2.978   1.523  2.9384 -0.8921 -1.3369
  246MOL   H18044770   1.925   2.882   1.808  0.3853  0.7296  0.9022
  246MOL   H18144771   1.869   3.267   1.689 -0.5152 -0.0907  0.0901
  246MOL   H18244772   2.050   2.987   1.728  0.1786 -2.0803 -1.1541
  247MOL     C144773   7.027   0.052   0.863 -0.1786  0.0681 -0.5404
  247MOL     C244774   6.910   0.110   0.786  0.2482  0.0816 -1.1381
  247MOL     C344775   6.952   0.251   0.735  0.5758 -0.8999  0.4470
  247MOL     O444776   6.914   0.357   0.787 -0.3380  0.3463  0.2658
  247MOL     O544777   7.042   0.233   0.632 -0.3778  0.1266 -0.1169
  247MOL     H644778   7.054   0.122   0.942 -1.5495 -0.0556  0.0396
  247MOL     H744779   7.000   7.815   0.918  0.6342  0.6447  0.8330
  247MOL     H844780   6.895   0.058   0.691 -1.4052 -0.8452 -0.3770
  247MOL     H944781   7.074   0.319   0.606  0.2001 -0.2330 -0.6088
  247MOL    H1044782   7.118   0.029   0.807  0.6582  0.4694  0.6197
  247MOL    C1144783   6.775   0.118   0.862 -0.3312  0.2697 -0.2621
  247MOL    C1244784   6.687   7.848   0.849  0.2486  0.0919 -0.6811
  247MOL    C1344785   6.591   0.005   0.729 -0.2410  0.3997 -0.6254
  247MOL    O1444786   6.540   0.113   0.693 -0.5060  0.0123  0.2939
  247MOL    O1544787   6.558   7.735   0.676 -0.0069  0.2406 -0.0903
  247MOL    H1644788   6.727   0.215   0.849  0.3700  1.0004  2.2963
  247MOL    H1744789   6.796   0.122   0.969 -0.1006  2.4717 -0.3598
  247MOL    H1844790   6.753   7.764   0.830 -0.1907 -0.3461 -0.2974
  247MOL    H1944791   6.625   7.670   0.685 -0.4126  0.0062  1.4971
  247MOL    C2044792   6.610   7.815   0.982 -0.6098 -0.2603 -0.0498
  247MOL    C2144793   6.504   0.065   1.026  0.5531 -0.7856  0.0774
  247MOL    C2244794   6.557   0.154   1.142  0.5259  0.6071 -0.7625
  247MOL    O2344795   6.585   0.121   1.261 -0.1893  0.5313 -0.0349
  247MOL    O2444796   6.584   0.280   1.096  0.0935 -0.0581  0.2028
  247MOL    H2544797   6.682   7.793   1.061  1.9243  0.6943 -2.0053
  247MOL    H2644798   6.572   7.713   0.974  0.7207 -0.7112 -0.7184
  247MOL    H2744799   6.461   0.112   0.937  0.1357 -2.3599 -0.5720
  247MOL    H2844800   6.574   0.300   1.004  0.7871 -0.7277 -0.0215
  247MOL    C2944801   6.375   7.849   1.081 -0.0612  0.0082  0.1515
  247MOL    C3044802   6.253   0.087   1.100  0.1489 -0.8055 -0.6215
  247MOL    C3144803   6.225   0.119   1.246  0.7257 -1.1414 -0.3200
  247MOL    O3244804   6.282   0.066   1.338 -0.4551 -0.0644  0.3160
  247MOL    O3344805   6.118   0.211   1.253  0.7272  0.2706 -0.2072
  247MOL    H3444806   6.410   7.800   1.172 -0.6478 -1.1760 -0.2461
  247MOL    H3544807   6.362   7.764   1.014 -1.3238  0.7821 -0.6026
  247MOL    H3644808   6.273   0.178   1.043 -1.9356  0.1736  0.1284
  247MOL    H3744809   6.091   0.213   1.344  0.3587 -1.1437 -0.2767
  247MOL    C3844810   6.122   0.027   1.032  0.1934  0.4184  0.0607
  247MOL    C3944811   6.108   0.045   0.876 -0.0110  0.2572  0.6452
  247MOL    C4044812   6.090   0.188   0.848 -0.2117  0.1260  0.0053
  247MOL    O4144813   5.984   0.249   0.864 -0.4751  0.1444  0.0346
  247MOL    O4244814   6.200   0.251   0.803 -0.0599  0.4075  0.3737
  247MOL    H4344815   6.034   0.060   1.087  1.0033 -0.2057  1.7446
  247MOL    H4444816   6.123   7.773   1.053  0.4590  0.1421 -1.3094
  247MOL    H4544817   6.201   0.003   0.837 -1.4860 -2.2529 -0.3208
  247MOL    H4644818   6.185   0.343   0.814 -0.2973  0.1121  3.0854
  247MOL    C4744819   6.000   7.804   0.812 -0.2920  0.3150 -0.2952
  247MOL    C4844820   6.003   7.799   0.660  0.1406 -0.5395  0.5384
  247MOL    C4944821   5.877   7.750   0.594  0.3789  0.0925  0.6259
  247MOL    O5044822   5.804   7.814   0.513 -0.2681 -0.1369  0.8605
  247MOL    O5144823   5.842   7.632   0.637 -0.1877 -0.4315 -0.7183
  247MOL    H5244824   5.902   7.838   0.847 -0.9798 -3.7793  2.1217
  247MOL    H5344825   6.019   7.703   0.848  0.4992  0.2434 -0.9028
  247MOL    H5444826   5.994   0.048   0.624  0.4767 -0.7777 -0.2214
  247MOL    H5544827   5.754   7.621   0.603 -0.0248 -0.8127 -1.0302
  247MOL    C5644828   6.135   7.740   0.598 -0.0969  0.0809  0.0042
  247MOL    C5744829   6.167   7.785   0.451  0.1368 -0.2277 -0.4941
  247MOL    C5844830   6.242   7.679   0.370 -0.1391 -0.9473 -0.9442
  247MOL    O5944831   6.305   7.580   0.414 -0.0823  0.4253 -0.6095
  247MOL    O6044832   6.248   7.712   0.239 -0.2950  0.6734  0.0613
  247MOL    H6144833   6.130   7.631   0.596 -0.0499  0.0961 -1.3913
  247MOL    H6244834   6.219   7.757   0.665 -0.4792 -1.1966  0.8234
  247MOL    H6344835   6.070   7.783   0.401 -0.1371 -1.3271  0.0604
  247MOL    H6444836   6.204   7.794   0.221 -2.2460 -0.6713 -1.5926
  247MOL    C6544837   6.230   0.077   0.436  0.2607  0.0021  0.6834
  247MOL    C6644838   6.130   0.204   0.419  0.4162  0.3562 -0.2577
  247MOL    C6744839   6.051   0.176   0.296  0.9811  0.6813 -0.0207
  247MOL    O6844840   6.081   0.100   0.206  0.0649  0.1370 -0.1325
  247MOL    O6944841   5.929   0.228   0.319  0.0423 -0.0399  0.6839
  247MOL    H7044842   6.299   0.076   0.352  0.4634 -0.4899  0.8542
  247MOL    H7144843   6.290   0.099   0.524 -0.9251  2.4488  0.9232
  247MOL    H7244844   6.062   0.212   0.503  0.3735 -0.7861 -0.1747
  247MOL    H7344845   5.872   0.194   0.252 -1.0076 -1.0050  2.0372
  247MOL    C7444846   6.217   0.326   0.393  0.7539  0.4961 -0.2351
  247MOL    C7544847   6.166   0.464   0.451 -0.0209 -0.1335  0.0527
  247MOL    C7644848   6.066   0.536   0.356  0.2917 -0.0621  0.0162
  247MOL    O7744849   6.084   0.545   0.235 -0.3405 -0.5703  0.0144
  247MOL    O7844850   5.959   0.585   0.434 -0.5544  0.3501 -0.1410
  247MOL    H7944851   6.242   0.340   0.288 -0.0045  0.5504 -0.4165
  247MOL    H8044852   6.318   0.318   0.433  1.3389  1.9856 -1.3686
  247MOL    H8144853   6.106   0.442   0.539 -0.2474 -0.3045 -0.1468
  247MOL    H8244854   5.906   0.644   0.381 -0.6997 -0.6007 -1.0798
  247MOL    C8344855   6.284   0.557   0.504 -0.5055 -0.8026  0.0464
  247MOL    C8444856   6.278   0.591   0.657 -0.0228  0.4298 -0.0645
  247MOL    C8544857   6.139   0.663   0.687 -0.5288 -0.5226 -0.1143
  247MOL    O8644858   6.119   0.777   0.650  0.0867  0.3309 -0.3525
  247MOL    O8744859   6.051   0.583   0.753  0.1431 -0.0604 -0.0792
  247MOL    H8844860   6.284   0.648   0.445  1.4473 -0.5072  0.4416
  247MOL    H8944861   6.386   0.520   0.486 -0.1101 -0.2068  1.0370
  247MOL    H9044862   6.275   0.496   0.711  0.5136  0.0235 -0.7357
  247MOL    H9144863   5.965   0.620   0.764 -0.2777 -0.4810 -1.7550
  247MOL    C9244864   6.391   0.688   0.710 -0.0528  0.5820  0.1065
  247MOL    C9344865   6.532   0.626   0.747  0.1671  0.2917  1.1461
  247MOL    C9444866   6.543   0.480   0.792  0.8843 -0.3340  0.2220
  247MOL    O9544867   6.543   0.441   0.906 -0.3672  0.2962  0.0736
  247MOL    O9644868   6.549   0.396   0.681  0.0003 -0.0274 -0.1678
  247MOL    H9744869   6.354   0.741   0.798 -0.7634 -0.1367  0.2457
  247MOL    H9844870   6.405   0.757   0.627  2.2142 -1.5465 -1.3986
  247MOL    H9944871   6.589   0.633   0.655  1.0188  0.6096  1.6869
  247MOL   H10044872   6.545   0.305   0.706 -2.3277  0.8569  3.0249
  247MOL   C10144873   6.613   0.713   0.842  0.8086  0.0573 -0.4504
  247MOL   C10244874   6.769   0.686   0.863  0.4997  0.0338  0.3649
  247MOL   C10344875   6.835   0.786   0.960 -0.1032  0.3621 -0.4460
  247MOL   O10444876   6.771   0.857   1.035  0.5328  0.0142  0.0031
  247MOL   O10544877   6.974   0.796   0.950  0.7917  0.6273  0.2927
  247MOL   H10644878   6.567   0.695   0.939  1.8873 -0.1842  0.0311
  247MOL   H10744879   6.600   0.815   0.805  1.0095  0.0956 -0.4162
  247MOL   H10844880   6.774   0.594   0.921  2.0505 -0.2922 -0.2570
  247MOL   H10944881   7.009   0.850   1.019  1.2173 -1.5487  1.8342
  247MOL   C11044882   6.853   0.660   0.736  0.0645 -0.2042 -0.0578
  247MOL   C11144883   6.902   0.775   0.649  0.3592 -1.1071 -0.4551
  247MOL   C11244884   6.796   0.865   0.598  0.2605 -0.0162  0.4072
  247MOL   O11344885   6.726   0.828   0.506 -0.4557  0.2234  0.3545
  247MOL   O11444886   6.794   0.987   0.657  0.3183 -0.1881 -0.2755
  247MOL   H11544887   6.803   0.582   0.678  0.7345 -0.0404 -0.8679
  247MOL   H11644888   6.941   0.606   0.770 -0.3929  0.4288  2.1536
  247MOL   H11744889   6.966   0.834   0.715  0.0595  1.2341 -2.2094
  247MOL   H11844890   6.726   1.029   0.607 -0.5309 -0.5570  0.5492
  247MOL   C11944891   6.985   0.720   0.530 -0.3372 -0.1348 -0.0675
  247MOL   C12044892   7.045   0.821   0.424 -0.2202 -0.1632 -1.0696
  247MOL   C12144893   7.120   0.741   0.314  0.8498 -0.0489 -0.0798
  247MOL   O12244894   7.177   0.630   0.333  0.0397  0.3248  0.1997
  247MOL   O12344895   7.119   0.810   0.194  0.0977 -0.0615 -0.3038
  247MOL   H12444896   6.920   0.650   0.478 -1.4264  0.3482  0.6386
  247MOL   H12544897   7.072   0.672   0.576  0.6631  1.9813  0.2904
  247MOL   H12644898   6.957   0.870   0.384  0.2731 -0.1220 -2.1284
  247MOL   H12744899   7.180   0.769   0.135  1.7412  0.5132  0.9584
  247MOL   C12844900   7.123   0.941   0.490  0.1453 -0.2142  0.3425
  247MOL   C12944901   7.183   1.049   0.393  0.0794  0.4803  0.2831
  247MOL   C13044902   7.286   1.137   0.467  0.4725  0.2188  0.3010
  247MOL   O13144903   7.286   1.147   0.592  0.2394  0.5109 -0.0086
  247MOL   O13244904   7.382   1.193   0.391  0.4484 -0.2818  0.1232
  247MOL   H13344905   7.204   0.908   0.554 -0.1616  0.6809  1.2166
  247MOL   H13444906   7.053   0.991   0.558 -1.0201  0.1409 -1.0997
  247MOL   H13544907   7.244   1.003   0.315 -1.3181  2.6836 -2.1987
  247MOL   H13644908   7.446   1.251   0.430  0.6996 -1.2469  1.1623
  247MOL   C13744909   7.078   1.123   0.311  0.5075 -0.4781 -0.5847
  247MOL   C13844910   7.121   1.214   0.197  0.6123  0.0727 -0.3285
  247MOL   C13944911   7.149   1.357   0.251 -0.7313  0.2629 -0.7998
  247MOL   O14044912   7.074   1.413   0.331  0.7008 -0.1352  0.1813
  247MOL   O14144913   7.260   1.412   0.196  0.1301 -0.4903 -0.6836
  247MOL   H14244914   7.011   1.176   0.379 -0.1585  1.2741 -2.5240
  247MOL   H14344915   7.014   1.048   0.266 -1.9383  1.5613 -0.6355
  247MOL   H14444916   7.204   1.165   0.145 -0.8714 -1.3512 -1.3692
  247MOL   H14544917   7.299   1.347   0.140  1.1524 -1.9420  1.6589
  247MOL   C14644918   7.016   1.230   0.079 -0.0803 -0.2536 -0.0762
  247MOL   C14744919   7.009   1.119   7.822  0.9246  0.4257  0.1560
  247MOL   C14844920   7.127   1.118   7.720 -0.3112  0.1995 -0.6080
  247MOL   O14944921   7.148   1.025   7.639 -0.1470  0.1512 -0.2776
  247MOL   O15044922   7.206   1.224   7.743 -0.1805 -0.2015  0.1641
  247MOL   H15144923   7.027   1.327   0.031  0.1940 -0.9372 -1.4351
  247MOL   H15244924   6.919   1.229   0.130  1.2552 -0.4907  2.5264
  247MOL   H15344925   7.018   1.027   0.027  1.5186  0.8050  0.6745
  247MOL   H15444926   7.283   1.217   7.690 -1.1079 -0.0911 -1.2259
  247MOL   C15544927   6.873   1.109   7.752  0.0884  0.2836  0.1385
  247MOL   C15644928   6.834   1.225   7.653 -0.1570 -0.1999  0.1906
  247MOL   C15744929   6.766   1.350   7.714 -0.0314 -0.3934  0.0435
  247MOL   O15844930   6.704   1.428   7.647  0.3162 -0.0469  0.4256
  247MOL   O15944931   6.774   1.356   7.850 -0.2069  0.2436  0.3653
  247MOL   H16044932   6.793   1.104   7.825  0.8044 -1.7418  0.8115
  247MOL   H16144933   6.854   1.013   7.705  0.0341  0.5695 -0.4345
  247MOL   H16244934   6.928   1.266   7.618  0.7130 -1.1429  1.3566
  247MOL   H16344935   6.725   1.430   0.029  1.4405  1.4164  0.2129
  247MOL   C16444936   6.756   1.175   7.535  0.2485 -0.1808  0.1141
  247MOL   C16544937   6.622   1.102   7.569 -0.5481  0.5912  0.0816
  247MOL   C16644938   6.634   0.950   7.536  1.0393  0.6153  0.2884
  247MOL   O16744939   6.595   0.863   7.615  0.3168  0.5056  0.2051
  247MOL   O16844940   6.672   0.920   7.405 -0.4163  0.1261  0.3191
  247MOL   H16944941   6.820   1.113   7.471 -0.1290 -0.7337  0.2715
  247MOL   H17044942   6.741   1.259   7.467  1.7612  1.1652  1.3943
  247MOL   H17144943   6.596   1.112   7.674  0.2885  0.2390  0.3237
  247MOL   H17244944   6.664   0.833   7.371 -0.1252  0.0991  0.3168
  247MOL   C17344945   6.505   1.171   7.494 -0.7123 -0.3964  0.4042
  247MOL   C17444946   6.373   1.138   7.556  0.8221  0.4236  0.1672
  247MOL   C17544947   6.341   1.211   7.688 -0.3472 -0.8504 -0.3848
  247MOL   O17644948   6.408   1.293   7.746 -0.5749 -0.2700 -0.4731
  247MOL   O17744949   6.229   1.151   7.738  0.4004 -0.7024  0.2332
  247MOL   H17844950   6.530   1.145   7.392  3.2181 -0.9931  1.4346
  247MOL   H17944951   6.512   1.279   7.503  0.1783 -0.3696 -0.5413
  247MOL   H18044952   6.299   1.180   7.488 -0.3268 -2.0998 -0.2097
  247MOL   H18144953   6.202   1.183   7.823  1.1261 -0.6335  0.4471
  247MOL   H18244954   6.354   1.030   7.554 -1.0461  0.6979  1.5964
  248MOL     C144955   0.016   6.920   4.091  0.1925 -0.4468  0.4342
  248MOL     C244956   0.063   7.034   3.995  0.2522 -0.2508 -0.0939
  248MOL     C344957   7.801   7.110   3.936  0.1647  1.0199  0.2614
  248MOL     O444958   7.748   7.085   3.824  0.1892 -0.1580 -0.3425
  248MOL     O544959   7.754   7.203   4.022 -0.6255  0.0390 -0.0816
  248MOL     H644960   7.809   6.961   4.172 -0.3195  0.2244 -0.2851
  248MOL     H744961   7.805   6.848   4.038  1.9210 -1.4134 -0.3862
  248MOL     H844962   0.125   7.101   4.054  0.2058 -0.0670 -0.2515
  248MOL     H944963   7.680   7.246   3.981  0.0788  0.0075 -1.4064
  248MOL    H1044964   0.106   6.868   4.125  0.6701 -0.0050 -0.1499
  248MOL    C1144965   0.155   6.972   3.887 -0.5877 -0.5602 -0.6293
  248MOL    C1244966   0.296   7.032   3.882 -0.7282  0.3169 -0.1740
  248MOL    C1344967   0.372   6.987   4.007  0.5133 -0.1399  0.0898
  248MOL    O1444968   0.385   7.049   4.114 -0.3060  0.0906  0.0602
  248MOL    O1544969   0.420   6.867   3.988 -0.3793 -0.3015  0.3002
  248MOL    H1644970   0.111   6.974   3.787 -1.0227 -2.5965 -0.4952
  248MOL    H1744971   0.162   6.864   3.894 -0.9423 -0.4802  1.0500
  248MOL    H1844972   0.342   6.979   3.799  0.2087 -0.6819  0.9753
  248MOL    H1944973   0.459   6.848   4.072  0.8422  1.4043  0.1494
  248MOL    C2044974   0.292   7.184   3.847  0.1980  0.3839 -0.5575
  248MOL    C2144975   0.400   7.249   3.771 -0.2120 -0.1558 -0.5826
  248MOL    C2244976   0.544   7.214   3.818  0.2266  0.1396 -0.3689
  248MOL    O2344977   0.603   7.257   3.922  0.7364  0.3243 -0.2032
  248MOL    O2444978   0.603   7.116   3.742  0.1140 -0.8055 -0.2087
  248MOL    H2544979   0.271   7.227   3.945  2.5750 -1.1295  0.6513
  248MOL    H2644980   0.198   7.196   3.793  0.4463  0.9213 -0.8768
  248MOL    H2744981   0.395   7.208   3.670  1.8177 -0.9405 -0.3851
  248MOL    H2844982   0.692   7.095   3.768 -0.6495 -1.1275  2.2006
  248MOL    C2944983   0.377   7.402   3.747 -1.2799 -0.0178  0.3717
  248MOL    C3044984   0.348   7.488   3.869  0.2481  0.1461  0.0161
  248MOL    C3144985   0.192   7.516   3.884  0.0092  0.8113  0.2039
  248MOL    O3244986   0.119   7.429   3.929 -0.2921 -0.0343 -0.4855
  248MOL    O3344987   0.158   7.644   3.851 -0.2494  0.0574  0.4978
  248MOL    H3444988   0.299   7.414   3.672 -1.1208  2.7348  0.5884
  248MOL    H3544989   0.470   7.436   3.701  0.2604 -3.1750  1.0038
  248MOL    H3644990   0.370   7.436   3.963 -1.8838  0.3007  0.6434
  248MOL    H3744991   0.065   7.652   3.865 -0.6101 -0.1586 -1.6634
  248MOL    C3844992   0.429   7.620   3.886  0.1274 -0.3523  1.1294
  248MOL    C3944993   0.572   7.590   3.920  0.8295 -0.0999  0.1823
  248MOL    C4044994   0.588   7.577   4.075 -0.9738 -0.1892  0.5005
  248MOL    O4144995   0.587   7.677   4.150 -0.5425 -0.1978 -0.3829
  248MOL    O4244996   0.606   7.450   4.115  0.1510  0.4448  0.2065
  248MOL    H4344997   0.394   7.685   3.966  2.2875 -2.3239  3.7934
  248MOL    H4444998   0.423   7.668   3.788 -2.0339 -1.1282  0.8663
  248MOL    H4544999   0.604   7.495   3.877 -1.2074 -0.9850  0.5700
  248MOL    H4645000   0.590   7.388   4.045 -0.9708  0.5898  0.3153
  248MOL    C4745001   0.667   7.706   3.870  0.6248  0.7142 -0.5950
  248MOL    C4845002   0.676   7.724   3.720  0.3755  0.0998  0.0451
  248MOL    C4945003   0.751   7.605   3.656 -0.2849 -0.7776  0.3638
  248MOL    O5045004   0.860   7.559   3.686  0.5287  0.7276 -0.1435
  248MOL    O5145005   0.673   7.527   3.570 -0.0158 -0.8625  0.3086
  248MOL    H5245006   0.764   7.692   3.919  0.7562 -1.9845 -1.5409
  248MOL    H5345007   0.638   7.803   3.910  0.5466  0.8240 -0.9175
  248MOL    H5445008   0.579   7.719   3.671 -0.5858  1.5170  1.7462
  248MOL    H5545009   0.715   7.453   3.529  0.4770  0.3364 -1.3908
  248MOL    C5645010   0.739   7.849   3.667  0.8110 -0.8754 -0.1150
  248MOL    C5745011   0.670   0.134   3.709 -0.5996  0.0174 -0.2258
  248MOL    C5845012   0.663   0.236   3.592  0.0581  0.1697  0.5487
  248MOL    O5945013   0.719   0.349   3.587  0.0109  0.0941  0.6859
  248MOL    O6045014   0.599   0.174   3.488  0.5759  0.2585  0.0315
  248MOL    H6145015   0.738   7.840   3.559  0.7948 -0.0085 -0.1883
  248MOL    H6245016   0.846   0.002   3.690  0.4680 -0.5256  1.4297
  248MOL    H6345017   0.572   0.096   3.740 -0.4565  2.1623  3.0819
  248MOL    H6445018   0.602   0.219   3.405  1.0106  1.2924  0.5971
  248MOL    C6545019   0.730   0.197   3.843  0.4007  0.3590  0.0285
  248MOL    C6645020   0.640   0.301   3.913 -0.5192  0.5368  0.6279
  248MOL    C6745021   0.721   0.429   3.951 -0.2492 -0.6781  0.5585
  248MOL    O6845022   0.729   0.474   4.067  0.2531  0.2263  0.6996
  248MOL    O6945023   0.792   0.480   3.847  0.0947  0.1948  0.8123
  248MOL    H7045024   0.828   0.239   3.819  1.7854 -2.6625  0.1117
  248MOL    H7145025   0.768   0.119   3.910 -0.7217 -0.3601 -0.1486
  248MOL    H7245026   0.567   0.329   3.837  0.5678  1.3759 -0.1422
  248MOL    H7345027   0.843   0.558   3.865  1.9021 -0.9863  0.9707
  248MOL    C7445028   0.561   0.241   4.033 -0.2900  0.5651 -0.0618
  248MOL    C7545029   0.412   0.288   4.053 -0.0895  0.0078  0.3059
  248MOL    C7645030   0.400   0.429   4.130  0.0114  0.2077  0.0635
  248MOL    O7745031   0.434   0.431   4.248 -0.0030 -0.3203  0.4810
  248MOL    O7845032   0.367   0.541   4.064 -0.3613 -0.2608  0.0332
  248MOL    H7945033   0.612   0.257   4.128 -1.9858  0.6933  0.8359
  248MOL    H8045034   0.552   0.133   4.018  0.1916  0.4946  0.1513
  248MOL    H8145035   0.369   0.308   3.955  0.5259 -1.6123 -0.3037
  248MOL    H8245036   0.360   0.615   4.121 -3.2445  1.4808 -2.3943
  248MOL    C8345037   0.335   0.175   4.119 -0.0916  0.3254  0.4815
  248MOL    C8445038   0.187   0.147   4.082 -0.0709 -0.9689  0.2842
  248MOL    C8545039   0.191   0.097   3.932  0.1978 -0.3960  0.4618
  248MOL    O8645040   0.294   0.073   3.871  0.5460 -0.1939 -0.0370
  248MOL    O8745041   0.066   0.098   3.881  0.0658 -0.6507 -0.3852
  248MOL    H8845042   0.341   0.178   4.228 -0.5113 -1.6935  0.5981
  248MOL    H8945043   0.382   0.077   4.114  0.2127  0.5524 -1.2968
  248MOL    H9045044   0.150   0.062   4.138 -0.2433 -0.2237  1.3114
  248MOL    H9145045   0.074   0.074   3.790 -0.3734  1.8514 -1.1257
  248MOL    C9245046   0.097   0.266   4.113 -0.1198 -0.1150  0.6804
  248MOL    C9345047   0.064   0.311   4.259 -0.4146 -0.5798  0.1171
  248MOL    C9445048   7.850   0.198   4.332 -0.1323  0.6730  0.3139
  248MOL    O9545049   7.731   0.183   4.342 -0.2588  0.2531 -0.6093
  248MOL    O9645050   0.088   0.112   4.382  0.2718  0.3400 -0.0266
  248MOL    H9745051   7.852   0.247   4.068  0.7790 -3.0837 -0.1089
  248MOL    H9845052   0.135   0.355   4.063 -2.4685  1.5857  1.8231
  248MOL    H9945053   0.162   0.327   4.306  1.4406 -1.6183 -3.2248
  248MOL   H10045054   0.041   0.039   4.419 -0.9028  1.9838  1.8073
  248MOL   C10145055   7.834   0.444   4.268  0.1107  0.2994  0.3560
  248MOL   C10245056   0.064   0.577   4.243 -1.1096 -0.3934 -0.2243
  248MOL   C10345057   0.161   0.597   4.360  0.8491 -0.2492  0.1163
  248MOL   O10445058   0.131   0.565   4.478  0.4764  0.2105 -0.3682
  248MOL   O10545059   0.260   0.679   4.331  0.1424  0.2442  0.0444
  248MOL   H10645060   7.775   0.457   4.358 -0.1549 -1.5724  0.4591
  248MOL   H10745061   7.760   0.428   4.190 -0.5428 -0.1216  1.0551
  248MOL   H10845062   0.118   0.557   4.151 -0.2748 -1.2514  0.4460
  248MOL   H10945063   0.306   0.687   4.414 -1.0235 -1.2075  0.8513
  248MOL   C11045064   7.843   0.708   4.211  0.6148 -0.4343  0.2772
  248MOL   C11145065   7.732   0.692   4.095 -0.2381 -0.4259 -0.2434
  248MOL   C11245066   7.794   0.658   3.956 -0.0766 -0.3981  0.6234
  248MOL   O11345067   0.012   0.735   3.889  0.2553 -0.4569 -0.1071
  248MOL   O11445068   7.747   0.535   3.905 -0.2005  0.1691 -0.1553
  248MOL   H11545069   0.062   0.781   4.173 -1.0698  0.9704 -0.2879
  248MOL   H11645070   7.800   0.746   4.304 -1.5561 -1.4761 -0.2736
  248MOL   H11745071   7.670   0.605   4.116 -0.6249  0.1589  1.1325
  248MOL   H11845072   7.799   0.523   3.827  1.4701  0.7180  0.8551
  248MOL   C11945073   7.638   0.819   4.083 -0.2950 -0.0481 -0.0424
  248MOL   C12045074   7.504   0.778   4.032 -0.4576  0.1958 -0.8433
  248MOL   C12145075   7.435   0.909   3.973  0.6785  0.0138  0.0252
  248MOL   O12245076   7.399   0.922   3.857  0.1916  0.5448  0.7033
  248MOL   O12345077   7.414   1.009   4.059  0.3405 -0.1066 -0.2710
  248MOL   H12445078   7.677   0.885   4.006 -2.0769  1.5573  0.3867
  248MOL   H12545079   7.626   0.873   4.177  0.0994  0.5068 -0.3065
  248MOL   H12645080   7.528   0.712   3.949  0.5354  0.5964 -0.8774
  248MOL   H12745081   7.443   0.996   4.148 -2.1774 -1.1661  0.4505
  248MOL   C12845082   7.413   0.703   4.137 -0.1004 -0.0059 -0.4335
  248MOL   C12945083   7.270   0.655   4.082 -0.5531 -0.0658  0.0838
  248MOL   C13045084   7.165   0.663   4.191  0.0515  0.1684  0.1567
  248MOL   O13145085   7.094   0.574   4.239 -0.4330  0.2295  0.7405
  248MOL   O13245086   7.152   0.794   4.233  0.6113  0.1043 -0.7095
  248MOL   H13345087   7.408   0.766   4.226  0.3622  1.8386 -1.6885
  248MOL   H13445088   7.449   0.605   4.167  0.1805  0.4051  0.6009
  248MOL   H13545089   7.239   0.729   4.007  0.2773  2.0408  1.7711
  248MOL   H13645090   7.073   0.804   4.283  1.2582  0.7008  0.2114
  248MOL   C13745091   7.267   0.514   4.014  0.3019 -0.1558  0.0923
  248MOL   C13845092   7.371   0.487   3.897 -0.7957  0.2965 -0.1399
  248MOL   C13945093   7.348   0.577   3.776  0.1457  0.9089 -0.1984
  248MOL   O14045094   7.434   0.646   3.727 -0.2148  0.2048  0.0405
  248MOL   O14145095   7.229   0.557   3.722 -0.4089  0.1048 -0.2236
  248MOL   H14245096   7.168   0.475   3.992  0.3393  0.8042 -1.8685
  248MOL   H14345097   7.294   0.445   4.093 -0.1027 -1.7020 -1.1050
  248MOL   H14445098   7.472   0.509   3.931  0.2700 -1.6203 -1.9638
  248MOL   H14545099   7.242   0.578   3.631  0.8140 -1.4338 -0.4345
  248MOL   C14645100   7.366   0.335   3.857 -0.1199  0.1331  0.5132
  248MOL   C14745101   7.494   0.258   3.826  0.6571 -0.7440  0.0481
  248MOL   C14845102   7.554   0.292   3.694 -0.1220 -0.4843 -0.6839
  248MOL   O14945103   7.500   0.343   3.596  0.1097 -0.0213  0.1690
  248MOL   O15045104   7.675   0.241   3.697  0.1794 -0.3167 -0.8904
  248MOL   H15145105   7.289   0.298   3.789  0.0887 -0.3619  0.5401
  248MOL   H15245106   7.342   0.281   3.949 -0.0671 -0.3209  0.2620
  248MOL   H15345107   7.567   0.278   3.905  0.2835 -1.4908  0.5884
  248MOL   H15445108   7.703   0.244   3.607  1.5304  1.3981 -0.4516
  248MOL   C15545109   7.473   0.099   3.823  0.3278  0.8663 -0.5083
  248MOL   C15645110   7.396   0.035   3.700 -0.3138 -0.2489 -0.0957
  248MOL   C15745111   7.244   0.035   3.729  0.6573  0.7071 -0.1914
  248MOL   O15845112   7.189   0.064   3.833  0.5186  0.4513  0.7630
  248MOL   O15945113   7.161   7.844   3.631 -0.3179  0.2130  0.4176
  248MOL   H16045114   7.427   0.060   3.914 -1.1304  0.4829 -1.3912
  248MOL   H16145115   7.561   0.034   3.820  0.4124  0.7813  2.1784
  248MOL   H16245116   7.413   0.082   3.604 -0.6300  1.6942  0.7773
  248MOL   H16345117   7.080   7.833   3.679 -0.4795  0.1022  0.1211
  248MOL   C16445118   7.447   7.735   3.687  0.3351 -0.7586  0.4985
  248MOL   C16545119   7.579   7.713   3.618  0.0426  0.1301  0.2210
  248MOL   C16645120   7.575   7.767   3.480 -0.1865 -1.1224  0.2632
  248MOL   O16745121   7.615   0.032   3.446 -0.0847  0.0843  0.2082
  248MOL   O16845122   7.525   7.675   3.393 -0.1527 -0.4060 -0.0350
  248MOL   H16945123   7.379   7.671   3.632 -1.0425  1.2355 -0.1518
  248MOL   H17045124   7.446   7.690   3.786 -0.0193  0.3679  1.0134
  248MOL   H17145125   7.663   7.768   3.660 -0.3179 -0.5003  1.8120
  248MOL   H17245126   7.479   7.603   3.434 -2.1036  0.9035  0.1527
  248MOL   C17345127   7.619   7.564   3.626  0.0789 -1.0116  0.1972
  248MOL   C17445128   7.754   7.541   3.569 -0.1215  0.2380  0.3643
  248MOL   C17545129   7.800   7.398   3.569 -0.6704 -0.2786  0.5403
  248MOL   O17645130   7.739   7.298   3.605 -0.0426  0.3532 -0.6243
  248MOL   O17745131   0.074   7.395   3.527  0.2867  0.8385  0.3541
  248MOL   H17845132   7.541   7.504   3.581  0.0644 -0.8162 -0.0453
  248MOL   H17945133   7.620   7.533   3.730 -0.2235  0.7074  0.7371
  248MOL   H18045134   7.749   7.572   3.465  0.7792  0.0817  0.2702
  248MOL   H18145135   0.105   7.308   3.509  1.5141  2.0957 -4.1682
  248MOL   H18245136   7.828   7.598   3.626 -1.7757  0.7740  2.0502
  249MOL     C145137   6.769   3.390   6.308  0.1485  0.4974 -0.0531
  249MOL     C245138   6.901   3.446   6.260 -0.0134  0.6909  0.4743
  249MOL     C345139   6.948   3.558   6.345  0.3513  0.4817 -0.0681
  249MOL     O445140   6.871   3.632   6.409 -0.4507 -0.6699  0.2208
  249MOL     O545141   7.084   3.574   6.348 -0.0276 -0.3903  0.7469
  249MOL     H645142   6.775   3.345   6.407 -0.7104  1.6051  0.5181
  249MOL     H745143   6.701   3.473   6.331  0.6334  1.0487 -0.5829
  249MOL     H845144   6.975   3.366   6.272  0.3668  0.9350 -0.2057
  249MOL     H945145   7.107   3.654   6.393 -1.2985 -1.1191  2.7445
  249MOL    H1045146   6.723   3.319   6.239  1.1418 -0.8700  0.6810
  249MOL    C1145147   6.896   3.482   6.112 -0.4060  0.1458 -0.2747
  249MOL    C1245148   6.988   3.395   6.018 -0.3618 -0.1686 -0.2109
  249MOL    C1345149   7.134   3.425   6.051  0.2166 -0.0832 -0.3347
  249MOL    O1445150   7.201   3.347   6.117 -0.5270 -0.2264  0.6663
  249MOL    O1545151   7.188   3.533   5.992 -0.4691 -0.4493 -0.3879
  249MOL    H1645152   6.928   3.584   6.095  3.3350 -0.7168  1.1005
  249MOL    H1745153   6.794   3.456   6.082 -0.4956  1.2051 -0.9076
  249MOL    H1845154   6.970   3.288   6.030  3.3097 -0.7230  0.8757
  249MOL    H1945155   7.281   3.541   6.005 -0.3270 -0.9515 -1.0831
  249MOL    C2045156   6.964   3.431   5.864 -0.4046  0.6708  0.4113
  249MOL    C2145157   6.837   3.383   5.793  0.1187  0.0019 -0.0924
  249MOL    C2245158   6.856   3.316   5.654 -0.3122 -0.2592 -0.1545
  249MOL    O2345159   6.875   3.198   5.640 -0.8461  0.2485 -0.1370
  249MOL    O2445160   6.871   3.405   5.548  0.3360  0.3999 -0.1494
  249MOL    H2545161   7.048   3.386   5.812 -0.3242 -0.7536  1.7187
  249MOL    H2645162   6.978   3.536   5.837  0.7237  0.6722  0.9924
  249MOL    H2745163   6.795   3.302   5.853 -0.4793 -0.1619 -0.7304
  249MOL    H2845164   6.904   3.363   5.470 -0.9876  1.1682 -1.1473
  249MOL    C2945165   6.739   3.506   5.782 -0.4312  0.4591 -0.2658
  249MOL    C3045166   6.591   3.481   5.799  0.3859 -0.2678 -0.0223
  249MOL    C3145167   6.528   3.425   5.667 -0.0389 -0.5819  0.2345
  249MOL    O3245168   6.586   3.420   5.560 -0.0910 -0.0878 -0.1997
  249MOL    O3345169   6.390   3.404   5.688 -0.8952 -0.1377  0.2459
  249MOL    H3445170   6.755   3.574   5.699  0.1426  1.0219  0.3002
  249MOL    H3545171   6.767   3.580   5.856  1.1999  0.1628 -0.5796
  249MOL    H3645172   6.570   3.409   5.879  0.7436 -1.0396 -0.6147
  249MOL    H3745173   6.350   3.380   5.606 -0.5486 -1.0994  0.3533
  249MOL    C3845174   6.516   3.616   5.833  0.4218 -0.4178  0.5321
  249MOL    C3945175   6.530   3.683   5.970  0.7518 -0.2605 -0.7923
  249MOL    C4045176   6.480   3.598   6.087  0.0799 -0.1335  0.2178
  249MOL    O4145177   6.422   3.493   6.063 -0.0971 -0.6582  1.0119
  249MOL    O4245178   6.505   3.652   6.206  0.1698 -0.0262  0.5627
  249MOL    H4345179   6.410   3.593   5.845  0.7583 -1.5150  1.4543
  249MOL    H4445180   6.541   3.683   5.751  0.8221  1.4785  2.1528
  249MOL    H4545181   6.629   3.714   6.005 -0.2652  1.7456  0.4573
  249MOL    H4645182   6.477   3.591   6.272 -2.7894  0.5844 -0.0586
  249MOL    C4745183   6.448   3.818   5.977 -0.2575 -0.9153  0.1005
  249MOL    C4845184   6.487   3.915   5.853  0.2702  0.2351 -0.6539
  249MOL    C4945185   6.635   3.945   5.846 -0.2787  0.2745  0.6740
  249MOL    O5045186   6.693   3.917   5.745  0.4468 -0.4115  0.4010
  249MOL    O5145187   6.698   3.988   5.960  0.0321  0.3602 -0.3417
  249MOL    H5245188   6.473   3.870   6.069 -1.3383  2.5699 -1.4650
  249MOL    H5345189   6.342   3.795   5.970 -0.1510 -0.8615 -1.9961
  249MOL    H5445190   6.449   3.868   5.763  1.6261 -1.7163 -0.2370
  249MOL    H5545191   6.790   3.979   5.937  0.4779 -0.8735  1.7655
  249MOL    C5645192   6.404   4.054   5.860  0.0997  0.7335  0.1238
  249MOL    C5745193   6.358   4.106   5.724  0.3620  0.1286  0.5774
  249MOL    C5845194   6.313   4.252   5.746  0.2519 -0.3633  0.2599
  249MOL    O5945195   6.254   4.288   5.849 -0.0575  1.0278 -0.2086
  249MOL    O6045196   6.316   4.324   5.632  0.3710  0.6351 -0.0389
  249MOL    H6145197   6.464   4.132   5.909  0.0462 -0.2557  1.8223
  249MOL    H6245198   6.318   4.045   5.926  0.1355 -1.6440 -0.1389
  249MOL    H6345199   6.446   4.105   5.659  1.6680 -1.7295  2.3046
  249MOL    H6445200   6.258   4.395   5.657  0.6027  1.3861 -1.6093
  249MOL    C6545201   6.248   4.022   5.658 -0.6626  0.3084  0.2384
  249MOL    C6645202   6.253   3.993   5.509  0.2984 -0.3381 -0.1561
  249MOL    C6745203   6.154   4.073   5.420 -0.0900 -0.1560 -0.0616
  249MOL    O6845204   6.187   4.165   5.342 -0.1183 -0.0613  0.1992
  249MOL    O6945205   6.025   4.024   5.441  0.2273 -0.0253  0.2919
  249MOL    H7045206   6.150   4.062   5.685 -0.0131  2.1963 -0.0703
  249MOL    H7145207   6.250   3.928   5.712  0.2375 -0.1249 -0.5383
  249MOL    H7245208   6.344   4.042   5.474  0.2094  0.6741  0.9964
  249MOL    H7345209   5.960   4.050   5.377  1.0996  0.8103 -0.2638
  249MOL    C7445210   6.263   3.840   5.483  1.0662  0.0884  0.4591
  249MOL    C7545211   6.365   3.798   5.373 -0.3898 -0.0994  0.0734
  249MOL    C7645212   6.332   3.655   5.339 -0.2266  0.1566 -0.5871
  249MOL    O7745213   6.378   3.560   5.403 -0.8529  0.2292  0.8144
  249MOL    O7845214   6.250   3.651   5.233 -0.1248  0.4593  0.4940
  249MOL    H7945215   6.163   3.803   5.462  1.0314  1.5694 -2.2406
  249MOL    H8045216   6.291   3.790   5.576 -1.9306 -2.1290  0.2627
  249MOL    H8145217   6.337   3.855   5.285 -1.6569 -0.8591 -0.0316
  249MOL    H8245218   6.215   3.564   5.221  0.3403  0.2412  0.7242
  249MOL    C8345219   6.513   3.823   5.412  0.1426  0.4878 -0.7486
  249MOL    C8445220   6.623   3.773   5.321 -0.4223  0.7709 -0.4708
  249MOL    C8545221   6.754   3.782   5.395 -0.0320 -1.0097 -0.6788
  249MOL    O8645222   6.794   3.875   5.467  0.4720  0.5066  0.2422
  249MOL    O8745223   6.822   3.661   5.380 -0.5117 -0.1140  0.1702
  249MOL    H8845224   6.536   3.784   5.511 -0.0419  0.1951 -0.8201
  249MOL    H8945225   6.529   3.931   5.416  0.5540  0.4242 -0.7013
  249MOL    H9045226   6.595   3.673   5.289 -0.5542  0.4626  0.6002
  249MOL    H9145227   6.782   3.597   5.324  0.6309  1.0009 -1.9795
  249MOL    C9245228   6.630   3.856   5.191 -0.2981 -0.2018  0.4996
  249MOL    C9345229   6.659   3.772   5.059  0.2080  0.1403  0.2903
  249MOL    C9445230   6.810   3.745   5.031  0.7287  0.2139 -0.1932
  249MOL    O9545231   6.851   3.684   4.933  1.0203 -0.4626  0.0907
  249MOL    O9645232   6.893   3.796   5.127 -0.5806 -0.1498  0.5320
  249MOL    H9745233   6.707   3.930   5.212 -2.0279  2.2564 -1.4716
  249MOL    H9845234   6.542   3.919   5.178 -0.3876 -0.3029  0.6102
  249MOL    H9945235   6.627   3.669   5.074  0.9311 -0.1536 -0.1537
  249MOL   H10045236   6.986   3.784   5.116 -0.0752  2.6351  1.2372
  249MOL   C10145237   6.582   3.827   4.931 -0.1079  0.2421  0.6117
  249MOL   C10245238   6.519   3.714   4.852 -0.2880  0.3410  0.3562
  249MOL   C10345239   6.478   3.779   4.717 -0.0042  0.1685 -0.2658
  249MOL   O10445240   6.365   3.820   4.686 -0.1503  0.1444 -0.2643
  249MOL   O10545241   6.581   3.781   4.632 -0.4306  0.5140  0.2150
  249MOL   H10645242   6.652   3.883   4.869  1.4213 -0.0090  2.0905
  249MOL   H10745243   6.498   3.895   4.946 -0.2602  1.1777 -3.8834
  249MOL   H10845244   6.583   3.629   4.828 -1.7740 -0.4174 -0.9885
  249MOL   H10945245   6.560   3.813   4.546  2.1336 -1.8783 -1.3739
  249MOL   C11045246   6.394   3.655   4.930 -0.0720 -0.0138 -0.2357
  249MOL   C11145247   6.323   3.546   4.855 -0.1787 -0.0363 -0.2812
  249MOL   C11245248   6.173   3.583   4.843 -0.1592 -0.5856 -0.2171
  249MOL   O11345249   6.078   3.519   4.895 -0.0966  0.7522  0.0880
  249MOL   O11445250   6.153   3.703   4.779 -0.1420  0.0983 -0.1605
  249MOL   H11545251   6.332   3.741   4.956  0.8551  0.6669 -0.2303
  249MOL   H11645252   6.423   3.616   5.028  0.5745 -0.5089 -0.6219
  249MOL   H11745253   6.348   3.542   4.749  0.4116 -0.7116 -0.1243
  249MOL   H11845254   6.228   3.746   4.740 -1.0001  0.7347 -1.1594
  249MOL   C11945255   6.348   3.408   4.925 -0.9531  0.5037 -0.1192
  249MOL   C12045256   6.296   3.278   4.857  0.3096 -0.2998 -0.6460
  249MOL   C12145257   6.238   3.188   4.962  0.5270 -0.5384 -0.6414
  249MOL   O12245258   6.120   3.186   5.002  0.1870  0.1257  0.7615
  249MOL   O12345259   6.340   3.115   5.022  0.0650 -0.3040  0.0675
  249MOL   H12445260   6.309   3.415   5.026  0.7203  1.7277  0.4576
  249MOL   H12545261   6.457   3.404   4.932 -0.9890 -1.5616 -0.3404
  249MOL   H12645262   6.210   3.313   4.800 -0.8465  0.3616  1.4506
  249MOL   H12745263   6.310   3.056   5.090 -1.0178  1.1411  0.8558
  249MOL   C12845264   6.397   3.205   4.767  0.3353 -0.2405 -0.4867
  249MOL   C12945265   6.394   3.247   4.621 -0.0809  0.8142 -0.3278
  249MOL   C13045266   6.274   3.182   4.553 -0.4344  0.4809 -0.6606
  249MOL   O13145267   6.271   3.072   4.498  0.1267  0.3662 -0.1691
  249MOL   O13245268   6.165   3.269   4.548  0.5986 -0.6368 -0.0971
  249MOL   H13345269   6.390   3.097   4.773  0.3977 -0.2049  0.2245
  249MOL   H13445270   6.500   3.227   4.795  0.3882  3.0572 -2.9691
  249MOL   H13545271   6.376   3.355   4.627 -0.3264  0.7418  0.2844
  249MOL   H13645272   6.086   3.226   4.518 -0.8591  1.6826  0.3139
  249MOL   C13745273   6.527   3.218   4.542 -0.1984 -0.5835  0.4120
  249MOL   C13845274   6.567   3.313   4.427  0.1308 -1.0250  0.5387
  249MOL   C13945275   6.584   3.457   4.475 -0.6466  0.0666  0.0158
  249MOL   O14045276   6.495   3.541   4.483  0.1919 -0.2255  0.0398
  249MOL   O14145277   6.713   3.475   4.518 -0.0332  0.4168  0.0127
  249MOL   H14245278   6.536   3.111   4.520 -1.7735 -0.4956 -0.6932
  249MOL   H14345279   6.611   3.219   4.612  0.8352  0.3594 -0.8120
  249MOL   H14445280   6.671   3.292   4.402 -0.0313 -0.7684 -0.3640
  249MOL   H14545281   6.728   3.564   4.545  1.5660  0.2945 -0.4256
  249MOL   C14645282   6.484   3.311   4.308 -0.3310 -0.2029  0.7603
  249MOL   C14745283   6.517   3.201   4.208 -0.3303 -0.2292 -0.4816
  249MOL   C14845284   6.611   3.251   4.099  0.2151 -0.1447  0.1907
  249MOL   O14945285   6.580   3.260   3.981 -0.0989 -0.0408 -0.3383
  249MOL   O15045286   6.726   3.297   4.146 -0.7069 -0.3369  0.1007
  249MOL   H15145287   6.503   3.407   4.259  2.1297 -1.6062 -1.1910
  249MOL   H15245288   6.377   3.315   4.328 -0.6152 -0.4574 -0.6193
  249MOL   H15345289   6.576   3.133   4.270  0.3011 -0.3270 -1.1841
  249MOL   H15445290   6.782   3.323   4.075 -2.2806  1.3715 -0.5510
  249MOL   C15545291   6.395   3.119   4.160 -0.3702 -0.1766 -0.5938
  249MOL   C15645292   6.429   3.006   4.054 -0.1772  0.2953 -1.0218
  249MOL   C15745293   6.304   2.948   3.981 -0.5499 -0.6369  0.3946
  249MOL   O15845294   6.192   2.938   4.033 -0.2528  0.3190  0.7084
  249MOL   O15945295   6.337   2.910   3.852 -0.0937  0.1390 -0.0174
  249MOL   H16045296   6.337   3.191   4.102 -1.7434 -0.3185  0.5587
  249MOL   H16145297   6.337   3.085   4.246 -2.0125  4.3036  0.2208
  249MOL   H16245298   6.478   3.046   3.965 -1.9454  0.5742 -1.8789
  249MOL   H16345299   6.266   2.866   3.808 -1.2251  0.7268  1.1712
  249MOL   C16445300   6.504   2.885   4.131  0.0122 -0.5520  0.0388
  249MOL   C16545301   6.587   2.790   4.038 -0.1081  0.2246  0.0953
  249MOL   C16645302   6.604   2.650   4.097 -0.5626 -0.3773  0.7550
  249MOL   O16745303   6.572   2.615   4.210  0.1064 -0.7366 -0.5449
  249MOL   O16845304   6.658   2.568   4.006  0.0821  0.2070  0.7226
  249MOL   H16945305   6.426   2.831   4.184 -1.9190  1.2045 -0.9383
  249MOL   H17045306   6.577   2.912   4.208 -0.8037  1.6945  0.0779
  249MOL   H17145307   6.531   2.767   3.947  2.0077 -1.2691 -0.8731
  249MOL   H17245308   6.670   2.482   4.044  1.7547 -0.4118 -1.1355
  249MOL   C17345309   6.713   2.855   3.976  1.1148  1.1397  0.0115
  249MOL   C17445310   6.833   2.905   4.075 -0.3872 -0.9125 -0.5650
  249MOL   C17545311   6.909   2.795   4.132  0.1896  0.6053  0.2044
  249MOL   O17645312   6.870   2.721   4.221 -0.1487  0.0709 -0.3694
  249MOL   O17745313   7.028   2.780   4.068  0.0171  0.1660  0.2052
  249MOL   H17845314   6.685   2.933   3.905  2.3672  2.6214  1.0982
  249MOL   H17945315   6.773   2.787   3.915  0.8686  0.2155  0.7905
  249MOL   H18045316   6.902   2.972   4.023  0.2626  0.0122  1.4443
  249MOL   H18145317   7.082   2.709   4.101  0.3221  0.3245  0.0453
  249MOL   H18245318   6.791   2.969   4.152 -1.7325 -2.2982 -0.1306
  250MOL     C145319   3.174   5.277   0.870  0.0266 -0.2157  0.5451
  250MOL     C245320   3.152   5.345   0.735 -0.0921  0.2371 -0.3160
  250MOL     C345321   3.053   5.271   0.647 -0.1112 -0.2366  0.5725
  250MOL     O445322   3.040   5.154   0.626 -0.4951  0.5519 -0.5187
  250MOL     O545323   2.993   5.373   0.575  0.3749 -0.1112 -0.6899
  250MOL     H645324   3.075   5.249   0.905 -1.0577  2.1033 -0.5655
  250MOL     H745325   3.232   5.184   0.866 -0.2911 -0.3940 -0.0097
  250MOL     H845326   3.098   5.435   0.764  0.1038  1.0472 -2.3922
  250MOL     H945327   2.921   5.326   0.536  1.0206  0.0240 -2.0630
  250MOL    H1045328   3.222   5.347   0.938 -0.2807 -0.1689  0.7092
  250MOL    C1145329   3.283   5.384   0.665  0.0892  0.5877 -0.4875
  250MOL    C1245330   3.358   5.504   0.736 -0.0218  0.1828  0.4588
  250MOL    C1345331   3.288   5.632   0.711 -0.1646 -0.5377 -0.4587
  250MOL    O1445332   3.218   5.689   0.790 -0.3012 -0.6166  0.0080
  250MOL    O1545333   3.295   5.681   0.586  0.2025  0.1655 -0.4017
  250MOL    H1645334   3.267   5.404   0.559 -2.0729 -0.2403 -0.3300
  250MOL    H1745335   3.348   5.297   0.675  0.5742  1.2009  1.9366
  250MOL    H1845336   3.357   5.485   0.844 -0.2254  3.3448  1.0680
  250MOL    H1945337   3.246   5.761   0.572 -1.5732 -1.1389 -1.9283
  250MOL    C2045338   3.511   5.523   0.688 -0.2091  0.4325  0.5271
  250MOL    C2145339   3.603   5.400   0.693  0.3022  0.6115 -0.3773
  250MOL    C2245340   3.601   5.338   0.834  0.5127 -0.7537 -0.2777
  250MOL    O2345341   3.537   5.238   0.854 -0.2463 -0.1914 -0.3163
  250MOL    O2445342   3.671   5.408   0.933  0.5409 -0.0975  0.7748
  250MOL    H2545343   3.560   5.603   0.742  0.6833  1.4448 -1.7075
  250MOL    H2645344   3.506   5.564   0.587 -1.3802 -1.6649 -0.3123
  250MOL    H2745345   3.578   5.314   0.631 -1.6353  0.0528  1.1240
  250MOL    H2845346   3.662   5.364   1.016  1.0223 -0.2946  0.7236
  250MOL    C2945347   3.754   5.438   0.655  0.4640 -0.4768  0.2615
  250MOL    C3045348   3.835   5.309   0.625 -0.0176  0.3060  0.1497
  250MOL    C3145349   3.969   5.306   0.697  0.6062  0.3088  0.3824
  250MOL    O3245350   4.068   5.370   0.650 -0.0766 -0.0308  0.4895
  250MOL    O3345351   3.966   5.240   0.813 -0.1769  1.0598 -0.6623
  250MOL    H3445352   3.799   5.486   0.742 -1.0916  1.2488  0.1466
  250MOL    H3545353   3.757   5.508   0.571 -0.6692 -0.8321 -0.0904
  250MOL    H3645354   3.784   5.223   0.666 -0.6987  0.0555 -1.2056
  250MOL    H3745355   4.039   5.240   0.873 -0.5498 -2.2583 -0.1310
  250MOL    C3845356   3.869   5.291   0.471  0.2019 -0.0906 -0.2124
  250MOL    C3945357   3.753   5.270   0.364  0.2286  0.0678 -0.2858
  250MOL    C4045358   3.647   5.383   0.358 -0.5410 -0.2160  0.4013
  250MOL    O4145359   3.535   5.381   0.407 -0.3729  0.3784 -0.4542
  250MOL    O4245360   3.706   5.492   0.303  0.1353 -0.0422 -0.5736
  250MOL    H4345361   3.930   5.203   0.453  0.9483  0.4358 -0.2338
  250MOL    H4445362   3.932   5.374   0.440 -1.8110  1.0926 -1.2091
  250MOL    H4545363   3.802   5.276   0.267 -1.3005 -0.2531 -1.0994
  250MOL    H4645364   3.649   5.567   0.301 -0.2272 -0.2528  1.1375
  250MOL    C4745365   3.700   5.124   0.375  0.4576 -0.1565 -0.1726
  250MOL    C4845366   3.618   5.067   0.252 -0.3673 -0.0837 -0.3048
  250MOL    C4945367   3.480   5.128   0.238  0.5656  0.3515 -0.4123
  250MOL    O5045368   3.444   5.185   0.135  0.5721 -0.1079 -0.5827
  250MOL    O5145369   3.406   5.111   0.352  0.3640 -0.0456  0.3562
  250MOL    H5245370   3.644   5.104   0.466 -0.0078  2.2400  0.0978
  250MOL    H5345371   3.787   5.058   0.370  0.8056  0.4080 -1.7411
  250MOL    H5445372   3.665   5.085   0.155 -0.7477  0.3509 -0.4062
  250MOL    H5545373   3.319   5.148   0.347 -1.0381 -2.9829  1.7690
  250MOL    C5645374   3.599   4.913   0.263  0.2568  0.4188  0.0526
  250MOL    C5745375   3.557   4.842   0.131 -0.3679  0.1880 -0.1850
  250MOL    C5845376   3.467   4.721   0.154  0.1993  0.1259 -0.4318
  250MOL    O5945377   3.508   4.606   0.138 -0.2919  0.0762 -0.3322
  250MOL    O6045378   3.346   4.754   0.205  0.2175 -0.2327  0.2246
  250MOL    H6145379   3.518   4.891   0.333  1.8178 -2.9235  0.9078
  250MOL    H6245380   3.684   4.865   0.312 -1.8464 -2.7874  0.6850
  250MOL    H6345381   3.499   4.914   0.074  0.4551 -0.1741 -1.5032
  250MOL    H6445382   3.291   4.679   0.221 -0.1209  0.2622  1.3822
  250MOL    C6545383   3.674   4.814   0.032 -0.2611  0.6391 -0.1879
  250MOL    C6645384   3.648   4.786   7.736  0.7758 -0.2797  0.3429
  250MOL    C6745385   3.753   4.702   7.666 -0.3863  0.8720  0.5360
  250MOL    O6845386   3.826   4.748   7.580  0.3211  0.3375 -0.3779
  250MOL    O6945387   3.745   4.570   7.694 -0.5050  0.0041 -0.3215
  250MOL    H7045388   3.732   4.733   0.077 -2.6272 -1.3721 -0.6007
  250MOL    H7145389   3.725   4.910   0.034 -0.1914  0.5866  0.8894
  250MOL    H7245390   3.562   4.720   7.744  0.6850 -0.1030  0.8478
  250MOL    H7345391   3.812   4.525   7.644  0.8417 -1.8005  2.9393
  250MOL    C7445392   3.618   4.913   7.647 -0.4641 -0.0104  0.2370
  250MOL    C7545393   3.531   4.898   7.524 -0.5882  1.0678  1.0347
  250MOL    C7645394   3.572   4.993   7.406  0.0408 -0.3786  0.1875
  250MOL    O7745395   3.491   5.039   7.327  0.5151  0.2194  0.1909
  250MOL    O7845396   3.711   4.996   7.395  0.7432  0.0813 -0.1890
  250MOL    H7945397   3.717   4.955   7.629  0.0904 -0.9209  1.0369
  250MOL    H8045398   3.565   4.987   7.707 -3.0128  1.2996 -3.4841
  250MOL    H8145399   3.538   4.798   7.481  0.2469 -0.0415  3.6089
  250MOL    H8245400   3.743   4.949   7.471 -0.5666 -0.2811  0.1536
  250MOL    C8345401   3.381   4.908   7.548  0.2974  0.0845 -0.3781
  250MOL    C8445402   3.308   4.815   7.652  0.6324  0.3868  0.0152
  250MOL    C8545403   3.319   4.668   7.632 -0.0437 -0.7538 -0.4271
  250MOL    O8645404   3.360   4.620   7.526  0.5408  0.0949  0.6888
  250MOL    O8745405   3.260   4.587   7.731 -0.0535  0.3438  0.4562
  250MOL    H8845406   3.327   4.897   7.454 -0.4098  2.5893 -0.3102
  250MOL    H8945407   3.348   5.010   7.570 -1.2476 -0.7528  1.2412
  250MOL    H9045408   3.364   4.824   7.745  2.4085 -3.3766 -0.5731
  250MOL    H9145409   3.238   4.503   7.694 -0.5016  0.6822 -0.0652
  250MOL    C9245410   3.163   4.861   7.677  0.0306  0.3558  0.2353
  250MOL    C9345411   3.062   4.863   7.560 -1.0017 -0.5130 -0.9842
  250MOL    C9445412   3.064   4.999   7.486 -0.5615  0.0174 -0.0314
  250MOL    O9545413   3.110   5.105   7.531  0.2387 -1.3060  0.1197
  250MOL    O9645414   2.998   4.993   7.374  0.3821 -0.3321  0.4824
  250MOL    H9745415   3.146   4.957   7.725  0.2976  1.9201 -2.6544
  250MOL    H9845416   3.121   4.796   7.753  1.9664  1.0095  1.9079
  250MOL    H9945417   3.082   4.788   7.483  2.0387  0.3804 -1.1232
  250MOL   H10045418   2.985   5.082   7.344 -0.1564 -0.1574  1.2157
  250MOL   C10145419   2.920   4.836   7.625  0.1771 -0.5207 -0.3492
  250MOL   C10245420   2.880   4.687   7.629 -0.9897  0.2165 -0.3078
  250MOL   C10345421   2.827   4.631   7.498  0.5759 -0.1577  0.4915
  250MOL   O10445422   2.875   4.527   7.456 -0.0394 -0.4482  0.5221
  250MOL   O10545423   2.743   4.721   7.435 -1.0072  0.0636 -0.4779
  250MOL   H10645424   2.833   4.881   7.576  0.8953  1.6361  0.2753
  250MOL   H10745425   2.912   4.884   7.723  0.3058  0.7699 -0.9543
  250MOL   H10845426   2.967   4.628   7.659 -0.4050  2.0882  1.8386
  250MOL   H10945427   2.703   4.678   7.361 -0.6580 -1.0522 -0.0328
  250MOL   C11045428   2.778   4.666   7.749  0.4730 -0.1587  0.3294
  250MOL   C11145429   2.810   4.547   7.848 -0.3501 -0.0213 -0.0041
  250MOL   C11245430   2.734   4.424   7.810 -0.0797 -0.0308 -0.0561
  250MOL   O11345431   2.655   4.356   0.030  0.0044 -0.1096  0.1725
  250MOL   O11445432   2.764   4.380   7.686  0.7761 -1.2576  0.6347
  250MOL   H11545433   2.678   4.654   7.707  1.2379 -0.6521 -1.4306
  250MOL   H11645434   2.775   4.755   7.811  2.5963  1.1375 -1.3322
  250MOL   H11745435   2.914   4.518   7.830 -0.7142 -0.9833 -0.5973
  250MOL   H11845436   2.723   4.295   7.684  0.0545 -0.9179  0.7763
  250MOL   C11945437   2.786   4.588   0.145  0.5889 -0.3139 -0.4138
  250MOL   C12045438   2.878   4.697   0.212  0.3987 -0.3784 -0.2328
  250MOL   C12145439   3.013   4.635   0.250  0.6597  0.2420  0.7077
  250MOL   O12245440   3.110   4.633   0.173 -0.2793  0.3874 -0.2620
  250MOL   O12345441   3.011   4.561   0.365  0.2092  0.3854  0.1206
  250MOL   H12445442   2.780   4.502   0.211  2.9322  0.5144  0.9259
  250MOL   H12545443   2.689   4.635   0.160  0.1795 -0.5856 -2.0414
  250MOL   H12645444   2.899   4.778   0.142  0.6546 -0.1356  0.1255
  250MOL   H12745445   3.099   4.534   0.387  1.1282  1.9561 -1.4943
  250MOL   C12845446   2.804   4.762   0.331  0.2491  0.1820  0.3366
  250MOL   C12945447   2.874   4.869   0.415 -0.1392 -0.7705 -0.4057
  250MOL   C13045448   2.856   4.852   0.560  0.0396  0.2285  0.3027
  250MOL   O13145449   2.759   4.903   0.617  0.0150  0.6290  0.2919
  250MOL   O13245450   2.951   4.768   0.614  0.7648 -0.4950 -0.1959
  250MOL   H13345451   2.780   4.680   0.399 -0.4137 -1.2815 -1.5901
  250MOL   H13445452   2.704   4.796   0.301  0.0410 -0.8169 -0.1376
  250MOL   H13545453   2.983   4.870   0.415 -0.1128  2.6597 -1.2514
  250MOL   H13645454   3.028   4.758   0.560  0.4743  1.1038 -0.9407
  250MOL   C13745455   2.837   5.012   0.363  0.2961 -0.3400 -0.4302
  250MOL   C13845456   2.919   5.064   0.236 -0.2387 -0.1702 -0.0268
  250MOL   C13945457   3.073   5.033   0.242 -0.8665 -0.3666 -0.4536
  250MOL   O14045458   3.148   5.092   0.321 -0.3821  0.2093 -0.0819
  250MOL   O14145459   3.121   4.942   0.154 -0.0221  0.4316 -0.2064
  250MOL   H14245460   2.861   5.085   0.441  2.5617 -1.9644  0.4387
  250MOL   H14345461   2.729   5.026   0.354  0.4216 -0.5577 -2.4318
  250MOL   H14445462   2.875   5.016   0.149  0.3336  0.1908 -0.5170
  250MOL   H14545463   3.211   4.923   0.176 -0.3999  0.4362  1.3918
  250MOL   C14645464   2.895   5.218   0.224 -0.2290 -0.6838 -0.1546
  250MOL   C14745465   2.978   5.306   0.121 -0.4409  0.4431  0.3103
  250MOL   C14845466   2.981   5.247   7.835 -0.3875  0.3246  0.9229
  250MOL   O14945467   2.888   5.177   7.807  0.0290  0.4542 -0.6967
  250MOL   O15045468   3.076   5.290   7.751 -0.1722  0.6003 -0.5394
  250MOL   H15145469   2.903   5.263   0.323 -1.0489 -0.2191 -0.2978
  250MOL   H15245470   2.792   5.228   0.192 -0.6426  0.9675  1.5922
  250MOL   H15345471   2.913   5.390   0.099 -0.3849  0.1005 -1.2753
  250MOL   H15445472   3.095   5.240   7.673  1.8901  2.0266 -1.0034
  250MOL   C15545473   3.120   5.356   0.170 -0.3981 -1.1420 -0.3623
  250MOL   C15645474   3.140   5.513   0.167  0.2488 -0.5830 -0.2351
  250MOL   C15745475   3.270   5.559   0.090  0.6252 -0.2975 -0.3100
  250MOL   O15845476   3.267   5.648   0.012  0.1518  0.1379  0.1249
  250MOL   O15945477   3.381   5.492   0.136  0.1785 -0.4033 -0.6983
  250MOL   H16045478   3.197   5.310   0.107  1.7058  1.4433  0.2271
  250MOL   H16145479   3.138   5.319   0.271  0.3893  0.6574  0.1803
  250MOL   H16245480   3.062   5.535   0.094 -1.8850  0.3892  2.2742
  250MOL   H16345481   3.447   5.559   0.138 -1.5936  1.4302 -2.1455
  250MOL   C16445482   3.112   5.577   0.301 -0.6194 -0.4498 -0.0968
  250MOL   C16545483   3.037   5.712   0.300  0.0712 -0.3336  0.5996
  250MOL   C16645484   2.891   5.693   0.268 -0.0826  0.9666  0.7282
  250MOL   O16745485   2.828   5.593   0.220  0.0235 -0.5194  0.1772
  250MOL   O16845486   2.826   5.803   0.292  0.3404 -0.0449 -0.9828
  250MOL   H16945487   3.213   5.597   0.336 -1.1123  2.0462 -0.0162
  250MOL   H17045488   3.075   5.505   0.373  1.8939 -2.3893 -0.6694
  250MOL   H17145489   3.045   5.739   0.405  3.0848  2.4691 -0.2730
  250MOL   H17245490   2.734   5.790   0.274  0.2503  1.0007 -1.3000
  250MOL   C17345491   3.105   5.824   0.215  0.2031 -0.5806 -0.0576
  250MOL   C17445492   3.089   5.964   0.274  0.4810 -0.2081  0.2043
  250MOL   C17545493   3.197   5.982   0.378  0.5114 -0.4733  0.6708
  250MOL   O17645494   3.222   5.906   0.474  0.4452  0.7893  0.3951
  250MOL   O17745495   3.270   6.096   0.349 -0.3275 -0.1868 -0.1121
  250MOL   H17845496   3.075   5.828   0.110  1.1228 -2.0372 -0.4044
  250MOL   H17945497   3.212   5.804   0.206 -0.2244 -1.9385 -2.6459
  250MOL   H18045498   3.099   6.038   0.194  1.5229  0.1887  0.6854
  250MOL   H18145499   3.338   6.091   0.415 -0.2374 -0.3470 -0.2183
  250MOL   H18245500   2.988   5.974   0.314  1.5249 -1.4936  3.2804
  251MOL     C145501   5.966   4.781   2.870  0.3677 -0.5469  0.0106
  251MOL     C245502   6.027   4.644   2.905 -1.0033  0.8956  0.2505
  251MOL     C345503   5.929   4.532   2.861  0.4784  0.1572 -0.3188
  251MOL     O445504   5.816   4.514   2.909  0.4947 -0.1804 -0.7037
  251MOL     O545505   5.984   4.453   2.766  0.1651 -0.5575  0.4083
  251MOL     H645506   5.861   4.806   2.885  0.7765 -0.2730  2.5899
  251MOL     H745507   6.031   4.860   2.908  0.8414 -0.7833 -0.2916
  251MOL     H845508   6.126   4.645   2.859 -1.5522 -1.9495 -1.1059
  251MOL     H945509   5.927   4.389   2.727  1.7068 -1.4015 -0.4957
  251MOL    H1045510   5.977   4.793   2.762  0.0842 -0.5324 -0.0168
  251MOL    C1145511   6.053   4.635   3.056  0.2660  0.0562  0.5064
  251MOL    C1245512   6.068   4.500   3.126  1.0729 -0.0040 -0.2044
  251MOL    C1345513   6.074   4.513   3.279 -0.2404  0.6879 -0.4164
  251MOL    O1445514   6.118   4.610   3.336  0.8411  0.7699  0.1183
  251MOL    O1545515   6.016   4.410   3.342 -0.1446 -0.2080 -0.1258
  251MOL    H1645516   5.959   4.672   3.098 -0.8299 -1.5110 -0.5468
  251MOL    H1745517   6.119   4.717   3.086  2.2105  0.0589 -3.4759
  251MOL    H1845518   5.975   4.445   3.113  1.2873 -0.0856 -1.4336
  251MOL    H1945519   6.009   4.412   3.436 -0.4695 -0.0328 -0.1531
  251MOL    C2045520   6.177   4.404   3.064 -0.0262  0.0479  0.2565
  251MOL    C2145521   6.156   4.256   3.044 -0.0123 -0.0570  0.1027
  251MOL    C2245522   6.111   4.180   3.167 -0.1873 -0.7214  0.5406
  251MOL    O2345523   6.188   4.152   3.254 -0.5995  0.2954 -0.1988
  251MOL    O2445524   5.977   4.152   3.167  0.2622  0.0304  0.7091
  251MOL    H2545525   6.259   4.418   3.134  0.1983 -2.2892  0.5010
  251MOL    H2645526   6.218   4.454   2.976  1.5482 -0.9965  0.3867
  251MOL    H2745527   6.073   4.246   2.973  0.1656  0.5820 -0.2036
  251MOL    H2845528   5.964   4.085   3.233  0.6845 -0.4378  0.3125
  251MOL    C2945529   6.289   4.208   2.975  0.1733  0.1528 -0.3732
  251MOL    C3045530   6.279   4.189   2.824 -0.4523 -0.6168 -0.5178
  251MOL    C3145531   6.191   4.074   2.768  0.0828 -0.7413  0.4516
  251MOL    O3245532   6.176   4.061   2.649 -0.1967 -0.2802  0.4561
  251MOL    O3345533   6.134   3.996   2.871 -0.2584  0.2234 -0.1866
  251MOL    H3445534   6.315   4.109   3.011 -1.4639 -0.7516 -1.6035
  251MOL    H3545535   6.366   4.276   3.012 -1.1131  1.5988 -0.3008
  251MOL    H3645536   6.228   4.281   2.793 -0.4913 -0.8866 -1.2487
  251MOL    H3745537   6.077   3.932   2.834 -1.0747  0.5831  0.4211
  251MOL    C3845538   6.422   4.205   2.748 -0.1546 -0.4330  0.2592
  251MOL    C3945539   6.529   4.096   2.774  0.1710  0.0680  0.1638
  251MOL    C4045540   6.614   4.135   2.895 -0.3049 -0.4948 -0.1372
  251MOL    O4145541   6.666   4.245   2.918  0.4137 -0.0266  0.1669
  251MOL    O4245542   6.636   4.026   2.977  0.1033 -0.6393 -0.7334
  251MOL    H4345543   6.468   4.300   2.776 -0.9286 -0.2987  1.1062
  251MOL    H4445544   6.392   4.207   2.644  1.7243  0.1131 -0.2776
  251MOL    H4545545   6.488   3.997   2.789  2.3551 -1.0371 -0.9323
  251MOL    H4645546   6.707   4.039   3.038 -0.7992 -0.1467  0.2185
  251MOL    C4745547   6.623   4.080   2.651  0.3692 -0.1511 -0.2359
  251MOL    C4845548   6.737   3.975   2.679 -0.0915 -0.1781  0.0894
  251MOL    C4945549   6.857   4.022   2.591 -0.2120  0.2848  0.1629
  251MOL    O5045550   6.870   3.978   2.477 -0.0536  0.0856 -0.4489
  251MOL    O5145551   6.910   4.133   2.639 -0.0997  0.4841 -0.3808
  251MOL    H5245552   6.662   4.180   2.635  2.7687 -0.6638  1.9357
  251MOL    H5345553   6.564   4.051   2.564 -1.6892  0.7997  0.7851
  251MOL    H5445554   6.779   3.984   2.780  0.6064 -0.7700 -0.1432
  251MOL    H5545555   6.981   4.169   2.588 -0.4415 -1.7392 -2.4872
  251MOL    C5645556   6.694   3.826   2.651 -0.4462  0.3150  0.2181
  251MOL    C5745557   6.793   3.726   2.713 -0.1661  0.1190 -0.0456
  251MOL    C5845558   6.793   3.593   2.644 -0.2269 -0.3364  0.1444
  251MOL    O5945559   6.894   3.522   2.627 -0.2852 -0.1209  0.7857
  251MOL    O6045560   6.674   3.557   2.599 -0.1075  0.8612 -0.4398
  251MOL    H6145561   6.685   3.807   2.544  2.0820 -1.9283  0.3529
  251MOL    H6245562   6.596   3.811   2.695  0.0976  1.1871  1.7846
  251MOL    H6345563   6.891   3.773   2.701 -0.5036  0.9545  0.4734
  251MOL    H6445564   6.673   3.468   2.566 -1.6031  1.3709 -1.8592
  251MOL    C6545565   6.772   3.716   2.866  0.2701 -0.4155 -0.6494
  251MOL    C6645566   6.890   3.656   2.945 -0.1016 -0.3176 -0.4597
  251MOL    C6745567   6.834   3.618   3.089  0.6089 -0.0257  0.0538
  251MOL    O6845568   6.847   3.509   3.136  0.2077 -0.1052  0.6633
  251MOL    O6945569   6.776   3.720   3.155 -0.5225  0.3132 -0.5425
  251MOL    H7045570   6.680   3.658   2.874  0.3869 -0.5446 -0.2359
  251MOL    H7145571   6.737   3.807   2.915  0.8718 -0.9737  0.8497
  251MOL    H7245572   6.930   3.568   2.894  0.8817  0.8013 -1.6749
  251MOL    H7345573   6.736   3.711   3.240 -0.0181 -0.5148 -0.3799
  251MOL    C7445574   7.013   3.752   2.951 -0.4523  0.3217 -0.6252
  251MOL    C7545575   7.133   3.708   2.868 -0.1784 -0.2695 -0.0878
  251MOL    C7645576   7.215   3.595   2.943  0.0534  0.3733 -0.2969
  251MOL    O7745577   7.302   3.620   3.028  0.6518 -0.4998  0.0309
  251MOL    O7845578   7.187   3.470   2.914  0.4676  0.2650  0.6194
  251MOL    H7945579   7.041   3.752   3.057 -0.6146  0.3708 -0.5814
  251MOL    H8045580   6.999   3.857   2.928  1.4301  0.6251 -0.4319
  251MOL    H8145581   7.093   3.678   2.771 -0.2449 -1.2251  0.2210
  251MOL    H8245582   7.230   3.401   2.963  1.1649  0.5522  0.4202
  251MOL    C8345583   7.221   3.843   2.842 -0.3650 -0.4667 -0.8648
  251MOL    C8445584   7.358   3.829   2.768  0.4457 -0.1789 -0.4062
  251MOL    C8545585   7.442   3.959   2.772 -0.3189 -0.0652 -0.2870
  251MOL    O8645586   7.386   4.071   2.773 -0.4729 -0.5687  0.3073
  251MOL    O8745587   7.579   3.930   2.791  0.4562  0.2818  0.0918
  251MOL    H8845588   7.247   3.892   2.936 -0.5244  1.0377 -1.5872
  251MOL    H8945589   7.159   3.917   2.792 -0.6881 -0.4302 -0.4190
  251MOL    H9045590   7.416   3.755   2.823 -0.6711 -0.7029  0.0692
  251MOL    H9145591   7.593   3.837   2.798  1.8071  0.3923 -0.8641
  251MOL    C9245592   7.343   3.768   2.632  0.5055  0.1620 -0.1789
  251MOL    C9345593   7.455   3.681   2.579 -0.6307  0.3784  0.4498
  251MOL    C9445594   7.450   3.674   2.428  0.8497  0.0600 -0.0276
  251MOL    O9545595   7.404   3.580   2.359 -0.4286 -0.0519  0.0798
  251MOL    O9645596   7.489   3.788   2.374 -0.2480  0.0791  0.4122
  251MOL    H9745597   7.328   3.843   2.555 -1.1729  0.9576  0.8885
  251MOL    H9845598   7.254   3.708   2.610 -0.8018  2.5542 -1.6252
  251MOL    H9945599   7.552   3.726   2.597  0.3899 -1.0283 -1.3142
  251MOL   H10045600   7.454   3.802   2.287  1.6540  0.5330 -0.3111
  251MOL   C10145601   7.459   3.543   2.648  0.0148 -0.5279  0.0068
  251MOL   C10245602   7.597   3.474   2.665  0.1463  0.0879  0.1762
  251MOL   C10345603   7.669   3.545   2.782 -0.5685 -0.2278 -0.0237
  251MOL   O10445604   7.641   3.666   2.819  0.4669 -0.3113  1.0849
  251MOL   O10545605   7.734   3.450   2.852 -0.0580  0.0657  0.0339
  251MOL   H10645606   7.392   3.480   2.589 -0.7303  1.5172 -1.4271
  251MOL   H10745607   7.403   3.550   2.742 -2.0817  1.6517 -1.3209
  251MOL   H10845608   7.565   3.372   2.686  1.1979  0.0203  1.5536
  251MOL   H10945609   7.782   3.498   2.918  0.3770  1.0919 -1.0124
  251MOL   C11045610   7.686   3.455   2.531 -0.6252 -0.3155  0.1593
  251MOL   C11145611   7.818   3.373   2.551  0.3651  0.3636 -0.2557
  251MOL   C11245612   7.803   3.246   2.635 -0.3010 -0.4789 -0.5146
  251MOL   O11345613   0.024   3.199   2.717 -0.1017 -0.1203 -0.8086
  251MOL   O11445614   7.690   3.178   2.601  0.5484 -0.2640  0.0746
  251MOL   H11545615   7.704   3.556   2.494 -2.1872  0.8117  2.2894
  251MOL   H11645616   7.633   3.421   2.442  1.2878 -1.8472 -0.4233
  251MOL   H11745617   7.825   3.327   2.452 -1.4746 -0.1205 -0.1791
  251MOL   H11845618   7.676   3.106   2.661 -0.6924 -0.0214  0.0888
  251MOL   C11945619   0.089   3.458   2.573 -0.8391 -0.1679  0.2079
  251MOL   C12045620   0.224   3.410   2.507 -0.0484  0.7029  0.9130
  251MOL   C12145621   0.214   3.316   2.385 -0.0506 -1.0506  0.0878
  251MOL   O12245622   0.214   3.197   2.395 -0.3892 -0.2108  0.0295
  251MOL   O12345623   0.205   3.386   2.266  1.1620 -0.4143 -0.3825
  251MOL   H12445624   0.102   3.454   2.682  3.2643  0.6956 -0.2020
  251MOL   H12545625   0.059   3.557   2.540  3.3790  0.6570 -1.4043
  251MOL   H12645626   0.269   3.502   2.470 -0.3151  0.7002  0.5734
  251MOL   H12745627   0.198   3.330   2.191  0.1942 -1.1555  0.2494
  251MOL   C12845628   0.326   3.359   2.618 -0.1227  0.5274  0.3776
  251MOL   C12945629   0.475   3.326   2.580  0.2486  0.4775 -0.4205
  251MOL   C13045630   0.520   3.419   2.470 -0.0837  0.9181  0.5078
  251MOL   O13145631   0.529   3.382   2.348 -0.2482 -0.0933  0.0164
  251MOL   O13245632   0.558   3.541   2.514 -0.1959  0.4962  0.4102
  251MOL   H13345633   0.278   3.284   2.681  1.2948 -1.1107 -0.4529
  251MOL   H13445634   0.337   3.434   2.696  0.9498  0.0512  0.6863
  251MOL   H13545635   0.541   3.345   2.664  0.6176 -0.3437 -0.5280
  251MOL   H13645636   0.585   3.598   2.444 -0.4315 -2.0401 -1.8453
  251MOL   C13745637   0.502   3.177   2.544  0.4565 -0.3763  0.6442
  251MOL   C13845638   0.643   3.132   2.494  0.1514  0.7863 -0.1402
  251MOL   C13945639   0.631   3.023   2.385  0.6954 -0.3617 -0.1332
  251MOL   O14045640   0.662   3.045   2.270 -0.3608  0.3081 -0.2092
  251MOL   O14145641   0.571   2.912   2.432 -0.2271 -0.6139  0.5347
  251MOL   H14245642   0.420   3.146   2.478 -1.3424  0.4957  2.4013
  251MOL   H14345643   0.479   3.119   2.633  1.9974 -2.2029 -0.1103
  251MOL   H14445644   0.681   3.217   2.437 -1.3921  2.7013  1.6434
  251MOL   H14545645   0.547   2.860   2.357  1.1893  0.0457 -0.4202
  251MOL   C14645646   0.750   3.102   2.605 -0.4942 -0.1151 -0.4576
  251MOL   C14745647   0.892   3.058   2.550 -0.0616  0.3661  0.4921
  251MOL   C14845648   0.903   2.908   2.531  0.5262 -0.4772  0.2422
  251MOL   O14945649   0.881   2.830   2.620  0.1705 -0.4231 -0.6376
  251MOL   O15045650   0.938   2.868   2.403 -0.4162 -0.8464 -0.0910
  251MOL   H15145651   0.714   3.030   2.677  0.2676 -0.0411  0.0037
  251MOL   H15245652   0.754   3.198   2.657  2.4522  0.2624 -1.2578
  251MOL   H15345653   0.910   3.099   2.451  1.0487  0.8685  0.8865
  251MOL   H15445654   0.926   2.774   2.395 -0.6985 -0.6995 -1.4720
  251MOL   C15545655   1.010   3.130   2.616 -0.4829  0.2578 -0.0102
  251MOL   C15645656   1.071   3.078   2.744  0.1322  0.6010 -0.6674
  251MOL   C15745657   0.981   3.088   2.873  0.0546 -0.4984  0.3708
  251MOL   O15845658   0.887   3.164   2.870  0.4153  0.1349 -0.0861
  251MOL   O15945659   1.025   3.022   2.987  0.2574  0.4407 -0.3443
  251MOL   H16045660   0.991   3.235   2.636 -0.0153  0.4285 -0.4395
  251MOL   H16145661   1.094   3.117   2.547  0.6255  0.0737  1.3610
  251MOL   H16245662   1.088   2.975   2.713 -3.3851 -0.7396  1.5656
  251MOL   H16345663   0.962   3.037   3.057 -0.2779 -1.2208 -0.4325
  251MOL   C16445664   1.212   3.134   2.769  0.0065  0.0783 -0.8999
  251MOL   C16545665   1.332   3.067   2.693  0.0401  0.1505 -0.3814
  251MOL   C16645666   1.350   2.918   2.735  0.0345  0.9006 -0.1564
  251MOL   O16745667   1.369   2.891   2.854  0.3421 -0.8423  0.1189
  251MOL   O16845668   1.351   2.838   2.626  0.1320 -0.1899  0.4675
  251MOL   H16945669   1.237   3.127   2.875  1.1367 -1.7848 -1.2568
  251MOL   H17045670   1.218   3.242   2.760  2.4131  0.2697  2.1888
  251MOL   H17145671   1.299   3.058   2.589  0.4546  1.1546 -0.6018
  251MOL   H17245672   1.365   2.749   2.654 -0.8906 -0.2936  0.6691
  251MOL   C17345673   1.473   3.134   2.716 -0.1651 -0.5445  0.2927
  251MOL   C17445674   1.557   3.122   2.587  0.4328  0.1533 -0.2484
  251MOL   C17545675   1.703   3.160   2.608  0.4450 -0.0478 -0.1471
  251MOL   O17645676   1.793   3.104   2.550 -0.0258 -0.4509 -0.2593
  251MOL   O17745677   1.722   3.276   2.680 -0.0372 -0.4247 -0.4012
  251MOL   H17845678   1.533   3.102   2.801  0.8477  3.4109  1.1285
  251MOL   H17945679   1.461   3.240   2.734 -0.8108 -0.8662  1.9012
  251MOL   H18045680   1.555   3.018   2.554  3.0717  0.0897 -0.3380
  251MOL   H18145681   1.812   3.304   2.673  0.4959 -2.4962 -2.3896
  251MOL   H18245682   1.507   3.179   2.509 -0.5122  1.1845  1.0934
  252MOL     C145683   5.272   4.121   6.303 -0.6152  0.1015 -0.0079
  252MOL     C245684   5.260   4.240   6.208 -0.3538  0.4373 -0.7688
  252MOL     C345685   5.218   4.371   6.280  0.1807 -0.2506  0.3906
  252MOL     O445686   5.106   4.415   6.257  0.0431 -0.6554 -0.6055
  252MOL     O545687   5.315   4.429   6.358 -0.0347 -0.2758  0.7049
  252MOL     H645688   5.358   4.064   6.268 -1.8294 -2.1293  0.5242
  252MOL     H745689   5.287   4.143   6.408 -2.0457  1.2898 -0.0369
  252MOL     H845690   5.361   4.265   6.176 -0.3684  0.7892 -0.5510
  252MOL     H945691   5.280   4.517   6.367 -0.2111 -0.4327  1.6265
  252MOL    H1045692   5.181   4.060   6.298 -0.9447  0.5395  0.6006
  252MOL    C1145693   5.170   4.203   6.085  0.0530  0.1921 -0.8740
  252MOL    C1245694   5.222   4.095   5.991  0.5126 -0.5585 -0.7382
  252MOL    C1345695   5.372   4.113   5.960  0.6019 -0.3517  0.0697
  252MOL    O1445696   5.456   4.026   5.958  0.7915  1.2337  0.3150
  252MOL    O1545697   5.398   4.238   5.918 -0.5722 -0.2944  0.2488
  252MOL    H1645698   5.161   4.294   6.025  0.2193  0.6670 -0.1790
  252MOL    H1745699   5.067   4.181   6.111 -0.1717  1.7379 -0.3935
  252MOL    H1845700   5.216   3.997   6.039  2.0319 -0.1077  0.3873
  252MOL    H1945701   5.490   4.248   5.898 -0.3321 -0.3882  1.2793
  252MOL    C2045702   5.127   4.094   5.874  0.3050 -0.3069 -0.1543
  252MOL    C2145703   5.136   3.991   5.759  0.5535 -0.0300  0.2931
  252MOL    C2245704   5.267   4.000   5.684  0.1566 -0.8332 -0.0673
  252MOL    O2345705   5.325   4.107   5.655  0.1856  0.2141 -0.4047
  252MOL    O2445706   5.317   3.879   5.660  0.4264 -0.3167  0.3687
  252MOL    H2545707   5.107   4.190   5.827  1.1366 -0.1833 -0.2594
  252MOL    H2645708   5.035   4.072   5.929  0.0404  0.2174 -0.3895
  252MOL    H2745709   5.132   3.889   5.796  0.2063 -0.0267  0.2593
  252MOL    H2845710   5.404   3.894   5.628  0.1159 -0.1614 -0.4300
  252MOL    C2945711   5.020   4.019   5.656  0.0312 -0.2249 -0.0345
  252MOL    C3045712   4.961   3.888   5.603  0.0025 -0.2864 -0.6044
  252MOL    C3145713   4.968   3.893   5.446 -0.2833  0.9313 -0.3157
  252MOL    O3245714   5.039   3.816   5.382  0.0939 -0.2693 -0.2584
  252MOL    O3345715   4.904   4.002   5.390  0.3759 -0.0568 -0.3219
  252MOL    H3445716   5.057   4.081   5.574  1.0501  0.6211  1.0511
  252MOL    H3545717   4.948   4.074   5.715 -2.3486 -2.6969 -0.5411
  252MOL    H3645718   5.022   3.800   5.619 -0.2107 -0.2370  0.4830
  252MOL    H3745719   4.921   3.994   5.298 -1.6576  0.3760 -0.7388
  252MOL    C3845720   4.815   3.857   5.658  0.1225  0.8374 -0.4324
  252MOL    C3945721   4.810   3.813   5.808 -0.0125 -0.2115  0.1345
  252MOL    C4045722   4.865   3.669   5.830  0.4361  1.0933 -0.2067
  252MOL    O4145723   4.796   3.564   5.829  0.2044  0.0743 -0.8618
  252MOL    O4245724   5.000   3.671   5.856  0.1777 -0.1026 -0.3698
  252MOL    H4345725   4.755   3.783   5.606  0.7976 -0.2045  0.2449
  252MOL    H4445726   4.761   3.951   5.648  1.5990  1.7058 -0.3304
  252MOL    H4545727   4.874   3.882   5.863 -0.1873 -0.1761  0.2907
  252MOL    H4645728   5.021   3.581   5.875  1.2927  0.2244  0.0058
  252MOL    C4745729   4.660   3.830   5.851 -0.6987 -0.0769 -0.1003
  252MOL    C4845730   4.638   3.818   6.003 -0.2689 -0.4171 -0.0843
  252MOL    C4945731   4.485   3.808   6.024 -0.4038  0.0339 -0.6772
  252MOL    O5045732   4.401   3.825   5.943 -0.1704 -0.8993  0.3628
  252MOL    O5145733   4.458   3.771   6.151 -0.0079  0.0960 -0.0500
  252MOL    H5245734   4.601   3.753   5.802 -1.1286  0.0444  0.2190
  252MOL    H5345735   4.608   3.920   5.818 -0.9952 -1.1191 -2.5991
  252MOL    H5445736   4.684   3.723   6.029 -1.2171 -0.7505  0.3632
  252MOL    H5545737   4.364   3.761   6.151  0.2150 -2.5327  1.4500
  252MOL    C5645738   4.699   3.938   6.080 -0.3203 -0.1156  0.1121
  252MOL    C5745739   4.740   3.911   6.227  1.1651  0.4679  0.1561
  252MOL    C5845740   4.737   4.035   6.308  0.4962 -0.3727  0.3969
  252MOL    O5945741   4.666   4.039   6.406  0.0969 -0.3240 -0.1591
  252MOL    O6045742   4.826   4.129   6.261  0.0500  0.1758 -0.3931
  252MOL    H6145743   4.643   4.030   6.062 -2.5543 -0.5820  4.0051
  252MOL    H6245744   4.792   3.962   6.030 -0.8294 -0.5974 -1.0810
  252MOL    H6345745   4.662   3.845   6.266  0.2602 -0.0363 -2.3736
  252MOL    H6445746   4.827   4.203   6.320  0.2218 -1.7034  2.0606
  252MOL    C6545747   4.872   3.841   6.247 -0.0306  0.7613  0.7930
  252MOL    C6645748   4.899   3.740   6.366 -0.3642  0.1351 -0.7155
  252MOL    C6745749   4.792   3.629   6.368 -0.2606 -0.2981 -0.3628
  252MOL    O6845750   4.706   3.611   6.282 -0.0485 -0.3586  0.2600
  252MOL    O6945751   4.828   3.539   6.463 -0.4707  0.2204  0.2407
  252MOL    H7045752   4.948   3.919   6.244 -0.4372  1.1445  0.3024
  252MOL    H7145753   4.885   3.786   6.153 -1.1913  0.7958  0.6104
  252MOL    H7245754   4.993   3.694   6.334  1.1247  2.0596  0.7654
  252MOL    H7345755   4.777   3.463   6.438  0.9598 -0.5992 -0.2608
  252MOL    C7445756   4.921   3.805   6.504 -0.2454 -0.3386 -0.2855
  252MOL    C7545757   5.065   3.853   6.531 -0.1281 -0.2365  0.3949
  252MOL    C7645758   5.174   3.744   6.517 -1.0079  0.1804 -0.0247
  252MOL    O7745759   5.145   3.625   6.526  0.2770 -0.6423  0.0269
  252MOL    O7845760   5.299   3.799   6.512  0.3207  0.4708 -0.4359
  252MOL    H7945761   4.890   3.743   6.588  1.9207  0.1244  0.8895
  252MOL    H8045762   4.846   3.881   6.524  1.9699  2.0605 -0.8356
  252MOL    H8145763   5.087   3.918   6.447 -1.1651 -1.2344 -0.6653
  252MOL    H8245764   5.353   3.724   6.494 -1.4760 -1.3230  1.3722
  252MOL    C8345765   5.086   3.912   6.671  0.5677  0.1378  0.4157
  252MOL    C8445766   4.980   4.003   6.737  0.1149  0.5679 -0.1822
  252MOL    C8545767   4.927   4.112   6.641 -0.1163 -0.1143  0.2212
  252MOL    O8645768   5.001   4.178   6.572 -0.7200  0.1798  0.4008
  252MOL    O8745769   4.792   4.118   6.648  0.4123 -0.1539  0.0425
  252MOL    H8845770   5.173   3.973   6.648 -0.6941  2.2094  0.9449
  252MOL    H8945771   5.114   3.839   6.746 -1.2503 -0.5521  0.4423
  252MOL    H9045772   4.893   3.937   6.736  0.4876  0.0197  1.8688
  252MOL    H9145773   4.759   4.180   6.585  0.3938 -2.1483 -1.9553
  252MOL    C9245774   5.010   4.061   6.877 -0.6265  0.1912  0.3987
  252MOL    C9345775   4.895   4.074   6.987  0.1347 -0.0993  0.5640
  252MOL    C9445776   4.813   4.204   6.967  0.2557 -0.1458 -0.0740
  252MOL    O9545777   4.855   4.298   6.896 -0.8594  0.0996 -0.0420
  252MOL    O9645778   4.696   4.207   7.034  0.8022  0.2038  0.3601
  252MOL    H9745779   5.072   4.150   6.871 -1.8689  1.1953  1.9950
  252MOL    H9845780   5.088   3.992   6.909  0.7439  1.1634 -0.8111
  252MOL    H9945781   4.832   3.985   6.982  0.9635 -0.6614 -0.1403
  252MOL   H10045782   4.648   4.284   7.006  1.2231  0.4937  0.4351
  252MOL   C10145783   4.962   4.080   7.129 -0.2236 -0.4907  0.0577
  252MOL   C10245784   4.985   3.940   7.193 -0.9120 -0.2029  0.2530
  252MOL   C10345785   5.069   3.837   7.110  0.3938  0.4889 -0.2836
  252MOL   O10445786   5.024   3.766   7.018 -0.4674  0.0663 -0.5060
  252MOL   O10545787   5.196   3.845   7.148 -0.4065  0.2475 -0.8969
  252MOL   H10645788   4.906   4.137   7.203  0.6372 -1.6222  1.6114
  252MOL   H10745789   5.054   4.139   7.123  0.8067 -1.8745  1.8569
  252MOL   H10845790   5.046   3.965   7.280 -0.8333  1.3376 -0.2241
  252MOL   H10945791   5.249   3.782   7.102  1.2934  1.2724 -0.3844
  252MOL   C11045792   4.862   3.875   7.247 -0.2740  0.6199 -0.0283
  252MOL   C11145793   4.870   3.829   7.401  0.2363  0.4680  0.0822
  252MOL   C11245794   4.879   3.948   7.503  0.2713  0.0321 -0.6728
  252MOL   O11345795   4.911   4.063   7.473  0.5353 -0.0087  0.0449
  252MOL   O11445796   4.853   3.906   7.627  0.4999  0.0985  0.3134
  252MOL   H11545797   4.826   3.789   7.191 -3.1097  0.6977  1.5764
  252MOL   H11645798   4.778   3.945   7.243 -0.4274  0.5304  1.2636
  252MOL   H11745799   4.777   3.781   7.430  0.6895  0.3873  1.4665
  252MOL   H11845800   4.845   3.982   7.682  0.9991  0.8309 -0.6148
  252MOL   C11945801   4.981   3.725   7.428  0.2873 -0.5357  0.0547
  252MOL   C12045802   4.984   3.586   7.355 -0.2215 -0.0361 -0.5045
  252MOL   C12145803   4.854   3.501   7.372  0.1810  0.5853 -0.4464
  252MOL   O12245804   4.831   3.421   7.463 -0.1141  0.0575  0.0687
  252MOL   O12345805   4.762   3.544   7.279 -0.2049 -0.5077 -0.1331
  252MOL   H12445806   4.994   3.702   7.534  0.2898  0.1209  0.2020
  252MOL   H12545807   5.076   3.766   7.392 -0.8757  0.5001 -1.8899
  252MOL   H12645808   4.986   3.602   7.248 -3.0677 -1.0949 -0.7668
  252MOL   H12745809   4.678   3.502   7.285 -0.7137  0.0952 -2.6444
  252MOL   C12845810   5.107   3.504   7.393 -0.2955 -0.7079  0.3354
  252MOL   C12945811   5.245   3.552   7.330  0.1816  0.3629 -0.3176
  252MOL   C13045812   5.266   3.494   7.194  0.0779 -0.3568  0.4865
  252MOL   O13145813   5.377   3.457   7.149  0.1620  0.3252  0.3304
  252MOL   O13245814   5.150   3.495   7.116  0.0953  0.8089  0.0759
  252MOL   H13345815   5.080   3.400   7.372 -0.3294 -0.9667  1.6086
  252MOL   H13445816   5.104   3.503   7.502 -0.1344  0.5567  0.3506
  252MOL   H13545817   5.240   3.658   7.305 -0.8186  0.2001 -0.8414
  252MOL   H13645818   5.175   3.467   7.029  0.6834 -2.3648  1.1853
  252MOL   C13745819   5.357   3.520   7.435  0.0041 -0.4339  0.1154
  252MOL   C13845820   5.402   3.638   7.527  0.0473  0.2077 -0.6744
  252MOL   C13945821   5.449   3.762   7.446  0.5393 -0.2804 -1.1794
  252MOL   O14045822   5.478   3.762   7.326 -0.5864  0.2169  0.0088
  252MOL   O14145823   5.455   3.868   7.531  0.2114 -0.0112  0.1940
  252MOL   H14245824   5.450   3.491   7.387  0.6816  0.1134  1.0868
  252MOL   H14345825   5.331   3.431   7.493 -2.4202 -0.1217 -0.4525
  252MOL   H14445826   5.310   3.675   7.571  0.0574  2.3397 -2.3682
  252MOL   H14545827   5.498   3.939   7.486 -1.0069 -0.6043 -2.0219
  252MOL   C14645828   5.514   3.594   7.626 -0.4661 -0.3051 -1.1789
  252MOL   C14745829   5.467   3.577   7.773  0.0530  0.3803 -0.0612
  252MOL   C14845830   5.354   3.467   7.780  0.1142  0.3145 -0.8649
  252MOL   O14945831   5.236   3.489   7.821 -0.2240  0.0579  0.1547
  252MOL   O15045832   5.408   3.340   7.772 -0.4962  0.0061 -0.0475
  252MOL   H15145833   5.593   3.669   7.613  0.4532 -1.2747 -1.2631
  252MOL   H15245834   5.559   3.503   7.587  2.1615  1.2744 -2.0134
  252MOL   H15345835   5.553   3.537   7.826  0.0528  1.0555  0.4506
  252MOL   H15445836   5.346   3.269   7.786  0.4280 -1.0832 -1.3359
  252MOL   C15545837   5.436   3.713   7.839 -0.1400 -0.0072  0.5359
  252MOL   C15645838   5.499   3.726   0.129 -0.0827 -0.1588 -0.0006
  252MOL   C15745839   5.415   3.647   0.223  0.0743 -0.0295  0.1121
  252MOL   O15845840   5.314   3.691   0.273 -0.0750  0.3768  0.5473
  252MOL   O15945841   5.443   3.515   0.225 -0.2914  0.4152 -0.6490
  252MOL   H16045842   5.327   3.724   7.839 -0.1206  0.1847 -0.7719
  252MOL   H16145843   5.480   3.795   7.783 -2.3048  0.7914 -0.0357
  252MOL   H16245844   5.600   3.685   0.133 -0.0991 -0.2321 -0.3886
  252MOL   H16345845   5.376   3.471   0.274  0.1081  1.2429  0.6709
  252MOL   C16445846   5.505   3.883   0.171  0.0363 -0.0684 -0.3689
  252MOL   C16545847   5.582   3.916   0.299  0.3714 -0.8239  0.2596
  252MOL   C16645848   5.498   4.025   0.374 -0.5387 -0.0777 -0.6489
  252MOL   O16745849   5.540   4.134   0.404  0.0529 -0.2259 -0.4738
  252MOL   O16845850   5.370   3.983   0.409  0.3798  0.5022 -0.0479
  252MOL   H16945851   5.401   3.914   0.169 -0.2950 -0.9411  1.6253
  252MOL   H17045852   5.553   3.937   0.090  1.2432 -0.0345  0.3513
  252MOL   H17145853   5.582   3.828   0.363  1.7925  0.7220  2.4387
  252MOL   H17245854   5.323   4.054   0.449 -1.4482 -0.4028 -0.5272
  252MOL   C17345855   5.730   3.957   0.276 -0.0397  0.5603  0.2679
  252MOL   C17445856   5.822   3.863   0.189 -0.0454  0.7164  0.3331
  252MOL   C17545857   5.971   3.906   0.189 -0.2404  0.3791 -0.0411
  252MOL   O17645858   6.014   4.005   0.252 -0.2139  0.3769 -0.1599
  252MOL   O17745859   6.050   3.826   0.109 -0.4709  0.2251 -0.1855
  252MOL   H17845860   5.767   3.960   0.379  0.0109  0.6323  0.2479
  252MOL   H17945861   5.734   4.057   0.233 -0.8603  0.9570  1.0834
  252MOL   H18045862   5.809   3.756   0.207  0.5338  0.9938  2.6092
  252MOL   H18145863   6.140   3.855   0.100 -0.9920  1.7659 -0.4940
  252MOL   H18245864   5.785   3.852   0.087  0.8117  2.1631 -0.1427
  253MOL     C145865   3.065   6.414   1.885  0.0101  0.4167 -0.5617
  253MOL     C245866   2.984   6.311   1.960  0.3802  0.2247 -0.7197
  253MOL     C345867   2.891   6.396   2.045  0.0366  0.2663 -0.3409
  253MOL     O445868   2.776   6.429   2.007  0.3896  0.0497 -0.8619
  253MOL     O545869   2.940   6.422   2.166 -0.2501 -0.0519  1.1046
  253MOL     H645870   3.115   6.374   1.797  0.1729  0.2950 -0.4116
  253MOL     H745871   3.010   6.502   1.849 -2.0293 -0.4921  0.2295
  253MOL     H845872   2.921   6.267   1.883  0.5663 -1.1173 -0.1140
  253MOL     H945873   2.892   6.477   2.225  1.4387  1.8630  0.7236
  253MOL    H1045874   3.135   6.463   1.952  0.4390  1.2805 -1.6317
  253MOL    C1145875   3.057   6.193   2.037 -0.7431 -0.1609 -0.6717
  253MOL    C1245876   2.985   6.058   2.072 -0.3202  0.8425  0.2402
  253MOL    C1345877   2.923   5.990   1.948  0.1707 -0.5877  0.1311
  253MOL    O1445878   2.801   6.003   1.918  0.0979 -0.2521  0.5313
  253MOL    O1545879   3.013   5.932   1.867  0.5681  0.2022 -0.3355
  253MOL    H1645880   3.122   6.218   2.121 -0.9576 -0.4185 -0.4309
  253MOL    H1745881   3.134   6.162   1.966 -1.7470 -0.6932 -1.5367
  253MOL    H1845882   3.059   5.994   2.119 -0.5647 -0.0270 -0.5301
  253MOL    H1945883   2.976   5.915   1.782 -0.9793 -1.2546  0.5989
  253MOL    C2045884   2.875   6.081   2.181 -0.2661 -0.1423 -0.4156
  253MOL    C2145885   2.801   5.959   2.238 -0.2147 -0.1053 -0.0310
  253MOL    C2245886   2.663   6.014   2.289 -0.0266  0.2755 -0.2473
  253MOL    O2345887   2.652   6.104   2.376  0.4525  0.3986 -0.1818
  253MOL    O2445888   2.558   5.938   2.239  0.4909  0.0217 -0.9525
  253MOL    H2545889   2.805   6.155   2.141  0.6198  0.8484 -0.1387
  253MOL    H2645890   2.916   6.132   2.267 -0.8801 -0.8766  0.3223
  253MOL    H2745891   2.786   5.889   2.156 -1.4436 -0.5294  0.5443
  253MOL    H2845892   2.480   5.979   2.271  1.4934  1.0712  0.2118
  253MOL    C2945893   2.893   5.881   2.334 -0.2999  0.1056 -0.2628
  253MOL    C3045894   2.841   5.740   2.385  0.6196  0.5163  0.3878
  253MOL    C3145895   2.885   5.714   2.528  0.3719  0.3850 -0.1521
  253MOL    O3245896   2.993   5.744   2.572  0.2461  0.0600 -0.3052
  253MOL    O3345897   2.793   5.652   2.600  0.0930  0.1344  0.0926
  253MOL    H3445898   2.901   5.946   2.421 -1.8934  1.3750 -1.0304
  253MOL    H3545899   2.990   5.867   2.285  0.8417 -1.1098  2.2734
  253MOL    H3645900   2.733   5.726   2.382  0.2390  2.9456  1.4756
  253MOL    H3745901   2.820   5.638   2.689  0.0210  1.4594  0.3335
  253MOL    C3845902   2.905   5.627   2.298  0.1141 -0.4369  0.5258
  253MOL    C3945903   2.879   5.623   2.140  0.0164  0.0306  0.3428
  253MOL    C4045904   2.730   5.619   2.103 -0.2245 -0.0123  0.8118
  253MOL    O4145905   2.649   5.563   2.178 -0.3009  0.1318  0.2677
  253MOL    O4245906   2.701   5.693   1.996  0.1625  0.1946  0.2034
  253MOL    H4345907   2.874   5.531   2.338 -1.5005 -0.9475 -1.8285
  253MOL    H4445908   3.012   5.623   2.318  0.0453  0.3080  1.0771
  253MOL    H4545909   2.915   5.717   2.098 -0.9616 -0.8815 -2.6724
  253MOL    H4645910   2.608   5.688   1.981  0.0873 -1.6851  1.1072
  253MOL    C4745911   2.956   5.500   2.082 -0.2343  0.5992 -0.9018
  253MOL    C4845912   3.052   5.538   1.963  0.1766 -0.2965  0.9857
  253MOL    C4945913   2.976   5.569   1.826 -0.8059  0.7652  0.2863
  253MOL    O5045914   3.017   5.653   1.742 -0.7923 -0.3227  0.4604
  253MOL    O5145915   2.864   5.494   1.812 -0.4743  0.5059 -0.0095
  253MOL    H5245916   2.888   5.421   2.051 -0.4233 -0.4988  2.1670
  253MOL    H5345917   3.021   5.447   2.152 -2.1924 -0.0510  0.4709
  253MOL    H5445918   3.102   5.630   1.994 -0.2611  0.3464 -0.1845
  253MOL    H5545919   2.830   5.506   1.725 -1.5134  2.8946  0.6714
  253MOL    C5645920   3.172   5.444   1.951 -0.3609  0.6421 -0.2941
  253MOL    C5745921   3.143   5.302   1.899  0.0483  0.0276  0.0874
  253MOL    C5845922   3.138   5.188   2.008  0.2050 -1.2200  0.1202
  253MOL    O5945923   3.045   5.146   2.071  0.5877  0.0587  0.7387
  253MOL    O6045924   3.262   5.148   2.036  0.4811  0.7324  0.1746
  253MOL    H6145925   3.218   5.432   2.049 -0.9109  0.1317 -0.0897
  253MOL    H6245926   3.248   5.479   1.882  0.9786  0.2234  0.9552
  253MOL    H6345927   3.042   5.317   1.859  1.3470  2.3224 -2.4591
  253MOL    H6445928   3.265   5.071   2.092 -1.8601  0.6397  0.2498
  253MOL    C6545929   3.241   5.272   1.781 -0.7045 -0.0844 -0.5523
  253MOL    C6645930   3.195   5.153   1.690  0.5493  0.2672 -0.3058
  253MOL    C6745931   3.311   5.102   1.599 -0.3461  0.8898 -0.0922
  253MOL    O6845932   3.419   5.156   1.575  0.2461  0.2023 -0.0807
  253MOL    O6945933   3.273   4.992   1.531 -0.2232  0.3150 -0.5386
  253MOL    H7045934   3.337   5.258   1.831  0.3210 -0.0787 -2.4687
  253MOL    H7145935   3.245   5.362   1.719 -1.4187  1.0070  0.9428
  253MOL    H7245936   3.165   5.072   1.755  0.1302  0.0890 -0.7226
  253MOL    H7345937   3.342   4.959   1.476 -0.0184 -1.1253  0.5524
  253MOL    C7445938   3.076   5.195   1.609  0.0501 -0.1746 -0.0007
  253MOL    C7545939   2.987   5.068   1.585 -0.1900 -0.3014 -0.3694
  253MOL    C7645940   2.896   5.096   1.468  0.0630 -0.3189 -0.0166
  253MOL    O7745941   2.795   5.164   1.477 -0.4886  0.0269 -0.6616
  253MOL    O7845942   2.943   5.023   1.358  0.2977 -0.2723 -0.1205
  253MOL    H7945943   3.115   5.242   1.518 -1.4448 -0.4495 -0.8069
  253MOL    H8045944   3.013   5.272   1.655  0.2945  0.1635 -0.2297
  253MOL    H8145945   3.051   4.982   1.564  0.2158 -0.3830  1.1793
  253MOL    H8245946   2.874   5.026   1.293 -0.6838  0.6252  0.9462
  253MOL    C8345947   2.903   5.027   1.720 -0.3830 -0.5580 -0.1198
  253MOL    C8445948   2.869   4.872   1.726  0.5734  0.9159 -0.4703
  253MOL    C8545949   2.781   4.830   1.604  0.1895 -0.4063  1.4133
  253MOL    O8645950   2.690   4.900   1.558  0.0128 -0.6121 -0.3356
  253MOL    O8745951   2.794   4.701   1.573  0.1617 -0.2680 -0.7280
  253MOL    H8845952   2.807   5.078   1.721  0.0256  0.2108  0.0869
  253MOL    H8945953   2.954   5.065   1.808  0.5357  0.6120 -1.1309
  253MOL    H9045954   2.962   4.815   1.721 -0.8865 -1.6489  0.5198
  253MOL    H9145955   2.878   4.676   1.610  0.4656  0.1524 -1.1304
  253MOL    C9245956   2.788   4.825   1.843 -1.3300 -0.2424 -0.1978
  253MOL    C9345957   2.848   4.855   1.981  0.3586 -0.9995  0.0584
  253MOL    C9445958   2.986   4.781   1.989  0.3513  0.4185  0.0113
  253MOL    O9545959   3.091   4.844   1.993  0.3554 -0.4279  0.1502
  253MOL    O9645960   2.979   4.647   1.981 -0.2090 -0.0925 -0.4304
  253MOL    H9745961   2.757   4.721   1.842 -1.6653 -0.1855 -5.5270
  253MOL    H9845962   2.697   4.886   1.841 -0.8794  0.3926 -1.4112
  253MOL    H9945963   2.856   4.963   1.999  0.0523 -0.9840  0.1046
  253MOL   H10045964   3.063   4.605   1.975 -1.0069 -1.7515 -0.2385
  253MOL   C10145965   2.767   4.795   2.091 -0.5036 -0.3117 -0.4441
  253MOL   C10245966   2.785   4.847   2.234 -0.0479  0.4730 -0.0443
  253MOL   C10345967   2.690   4.770   2.337  0.1455  0.1993 -0.3140
  253MOL   O10445968   2.596   4.703   2.303  0.0727 -0.4053 -0.4251
  253MOL   O10545969   2.724   4.798   2.469  0.0942  0.1104 -0.9544
  253MOL   H10645970   2.779   4.686   2.097  0.9039 -0.1278  0.1959
  253MOL   H10745971   2.663   4.805   2.058 -1.1755  0.9403  2.0058
  253MOL   H10845972   2.886   4.814   2.257 -0.5074 -0.8595  0.0770
  253MOL   H10945973   2.663   4.768   2.535  0.5310 -1.0856 -1.0706
  253MOL   C11045974   2.785   5.003   2.266 -0.0079 -0.4031 -0.0498
  253MOL   C11145975   2.655   5.078   2.267  0.9823 -0.0009 -0.1441
  253MOL   C11245976   2.569   5.052   2.142  0.7919  0.3240  0.1606
  253MOL   O11345977   2.460   5.000   2.151 -0.2985 -0.2650  0.0110
  253MOL   O11445978   2.631   5.111   2.035 -0.3287  0.1582  0.6697
  253MOL   H11545979   2.853   5.055   2.198 -1.6650  2.5588  0.4521
  253MOL   H11645980   2.814   5.020   2.369 -0.9997  0.7199  0.0607
  253MOL   H11745981   2.596   5.032   2.347 -0.7854  2.5485  0.0901
  253MOL   H11845982   2.584   5.102   1.953  1.3884  2.1894 -0.5817
  253MOL   C11945983   2.684   5.225   2.304 -0.3839  0.5794 -0.1572
  253MOL   C12045984   2.585   5.297   2.396 -0.2026  0.0020  0.3175
  253MOL   C12145985   2.577   5.233   2.536 -0.1739  0.6556 -0.4346
  253MOL   O12245986   2.527   5.121   2.555  0.3655 -0.6956 -0.0508
  253MOL   O12345987   2.658   5.297   2.621  0.7441 -0.4622 -0.0210
  253MOL   H12445988   2.694   5.285   2.214 -2.4412 -0.5861 -1.2062
  253MOL   H12545989   2.784   5.238   2.345  0.2844 -2.1256 -0.7883
  253MOL   H12645990   2.633   5.395   2.407 -1.3811  0.7078 -0.7164
  253MOL   H12745991   2.677   5.260   2.707 -0.0078 -0.3626  0.1940
  253MOL   C12845992   2.447   5.317   2.333  0.4496 -0.2099  0.3780
  253MOL   C12945993   2.349   5.426   2.399 -0.2239  1.1963 -0.0082
  253MOL   C13045994   2.417   5.547   2.473 -0.0605  0.0706 -0.5159
  253MOL   O13145995   2.443   5.657   2.417 -0.6650 -0.5693 -0.5380
  253MOL   O13245996   2.457   5.519   2.604  0.0176 -0.1020  0.4431
  253MOL   H13345997   2.402   5.218   2.325  4.0175 -2.0149  1.4732
  253MOL   H13445998   2.453   5.349   2.229 -4.5369 -1.4229 -0.4170
  253MOL   H13545999   2.294   5.478   2.321 -0.9644 -1.7697 -1.5649
  253MOL   H13646000   2.480   5.589   2.663  0.6240 -0.0220  0.1165
  253MOL   C13746001   2.238   5.366   2.489 -0.5726  1.1909 -0.0766
  253MOL   C13846002   2.139   5.466   2.568  0.1857 -0.6662  0.8087
  253MOL   C13946003   2.044   5.382   2.657 -0.1237 -0.2558  0.1337
  253MOL   O14046004   1.929   5.351   2.631 -0.0539 -0.3068 -0.0821
  253MOL   O14146005   2.098   5.362   2.784 -0.2958  0.2997 -0.0328
  253MOL   H14246006   2.297   5.325   2.571 -2.0025  0.8763  0.8077
  253MOL   H14346007   2.172   5.307   2.426 -0.2919 -0.7922  1.4502
  253MOL   H14446008   2.192   5.522   2.644  0.7656  0.0946 -0.1381
  253MOL   H14546009   2.028   5.322   2.832 -0.8655 -0.5960 -1.5859
  253MOL   C14646010   2.054   5.557   2.468  0.0766 -0.6311 -0.1060
  253MOL   C14746011   1.993   5.685   2.524 -0.5733  0.2091 -0.1278
  253MOL   C14846012   1.840   5.703   2.484  0.0336 -0.0120  0.1216
  253MOL   O14946013   1.798   5.784   2.406  0.6412  0.2699 -0.3833
  253MOL   O15046014   1.762   5.613   2.543 -0.5006  0.8393  0.0806
  253MOL   H15146015   1.976   5.500   2.417 -0.6163 -1.5186  1.8830
  253MOL   H15246016   2.117   5.597   2.389  1.0357 -0.7884  0.5777
  253MOL   H15346017   1.994   5.670   2.632  2.1125  4.4056  0.5559
  253MOL   H15446018   1.681   5.603   2.496  0.4237 -0.8803 -1.1834
  253MOL   C15546019   2.087   5.811   2.505 -0.4200 -0.1264  0.6621
  253MOL   C15646020   2.099   5.921   2.613  0.6278  0.0080 -0.5366
  253MOL   C15746021   1.968   5.994   2.632 -0.0501 -0.3184 -0.3383
  253MOL   O15846022   1.941   6.105   2.583  0.1410  0.3858 -0.2231
  253MOL   O15946023   1.889   5.926   2.718  0.2022 -0.1593  0.7693
  253MOL   H16046024   2.054   5.867   2.418 -0.7027  0.5317  1.1915
  253MOL   H16146025   2.183   5.772   2.470 -0.9751  1.0902 -2.3700
  253MOL   H16246026   2.127   5.872   2.707 -0.1002 -0.0906 -0.3684
  253MOL   H16346027   1.806   5.969   2.731  0.8813  0.6608  2.5829
  253MOL   C16446028   2.219   6.012   2.571  0.1488  0.1856  0.2433
  253MOL   C16546029   2.264   6.106   2.688 -0.4443 -0.1792  0.7472
  253MOL   C16646030   2.199   6.247   2.674 -0.0139  0.7327  0.1422
  253MOL   O16746031   2.151   6.289   2.566 -0.6483  0.0040 -0.0097
  253MOL   O16846032   2.191   6.314   2.788  0.8769 -0.7902 -0.5607
  253MOL   H16946033   2.203   6.061   2.475 -0.9844  1.6083  1.1428
  253MOL   H17046034   2.304   5.951   2.540 -0.5803 -1.4659  1.4594
  253MOL   H17146035   2.225   6.068   2.783 -3.5609 -0.8861 -0.7291
  253MOL   H17246036   2.146   6.394   2.767  1.6189 -0.5291 -1.2303
  253MOL   C17346037   2.416   6.124   2.687 -0.8744  0.3767 -0.7954
  253MOL   C17446038   2.503   6.011   2.762  0.1637  0.1978 -0.1610
  253MOL   C17546039   2.496   5.871   2.690 -0.4824 -0.3701  0.3514
  253MOL   O17646040   2.457   5.768   2.743 -0.0451  0.1348 -0.8523
  253MOL   O17746041   2.534   5.875   2.553  0.5642 -0.3603  0.1078
  253MOL   H17846042   2.440   6.220   2.734  1.1022  0.1582 -1.3111
  253MOL   H17946043   2.463   6.139   2.590 -1.5374 -1.4612 -1.4119
  253MOL   H18046044   2.608   6.040   2.768 -0.0088  0.8867 -0.5418
  253MOL   H18146045   2.502   5.799   2.507  1.6255 -1.1646  0.6645
  253MOL   H18246046   2.469   6.000   2.865  1.9640 -1.7007  0.2863
  254MOL     C146047   2.078   0.337   4.870 -0.2153 -0.3625 -0.0724
  254MOL     C246048   1.963   0.435   4.905 -0.4855 -0.3109  0.0875
  254MOL     C346049   1.995   0.561   4.812  0.9112  0.0407 -0.0171
  254MOL     O446050   2.064   0.659   4.839 -0.2067 -0.1528  0.0704
  254MOL     O546051   1.923   0.555   4.700 -0.0610 -0.1431 -0.5592
  254MOL     H646052   2.077   0.320   4.763 -2.3640 -1.2749  0.0599
  254MOL     H746053   2.176   0.380   4.892 -0.1183 -0.1889 -0.8237
  254MOL     H846054   1.865   0.393   4.882 -0.4055 -0.1451 -0.5711
  254MOL     H946055   1.953   0.627   4.646 -0.5355  0.4584 -0.0121
  254MOL    H1046056   2.079   0.237   4.913  3.1420 -0.6393 -0.6970
  254MOL    C1146057   1.968   0.474   5.058 -0.0461  0.1063  0.4554
  254MOL    C1246058   1.863   0.567   5.116  0.0862  0.5462  0.9268
  254MOL    C1346059   1.917   0.645   5.236  1.3300 -0.0947 -0.1700
  254MOL    O1446060   1.876   0.642   5.348  0.3691  0.1144 -0.5820
  254MOL    O1546061   2.027   0.720   5.201  0.5366  0.4839  0.2992
  254MOL    H1646062   2.068   0.516   5.070  0.7717 -1.7769  0.4329
  254MOL    H1746063   1.963   0.389   5.127 -1.6228  0.7943  1.2098
  254MOL    H1846064   1.848   0.643   5.039 -1.2209 -0.3686  0.2632
  254MOL    H1946065   2.054   0.765   5.280 -0.7047  1.1150  0.3764
  254MOL    C2046066   1.735   0.489   5.144 -0.5921 -0.2705 -0.3988
  254MOL    C2146067   1.615   0.570   5.184  0.1929  0.8141 -0.1684
  254MOL    C2246068   1.511   0.469   5.243 -0.0068  0.0978 -0.3360
  254MOL    O2346069   1.454   0.389   5.168 -0.9610 -0.1425  0.5499
  254MOL    O2446070   1.487   0.473   5.375  0.6522  0.1523  0.2276
  254MOL    H2546071   1.757   0.407   5.213  2.2810  1.3221  0.6964
  254MOL    H2646072   1.702   0.437   5.054  0.5759 -2.2512  0.2985
  254MOL    H2746073   1.630   0.641   5.266 -2.2943  2.6457 -1.2491
  254MOL    H2846074   1.428   0.407   5.407  0.2910 -0.3163 -1.3797
  254MOL    C2946075   1.557   0.644   5.061  0.4687  0.0557 -0.8371
  254MOL    C3046076   1.425   0.716   5.088  0.2562  0.0725  0.2428
  254MOL    C3146077   1.299   0.633   5.057 -0.2396 -0.8899 -0.2209
  254MOL    O3246078   1.203   0.635   5.132 -0.0988 -0.2355  0.3369
  254MOL    O3346079   1.308   0.541   4.961  0.0269  0.1504  0.5995
  254MOL    H3446080   1.548   0.581   4.973  0.2174  0.0121 -0.7809
  254MOL    H3546081   1.626   0.721   5.026 -1.6905  2.2883 -0.4163
  254MOL    H3646082   1.420   0.725   5.196  1.0404  0.0590  0.2841
  254MOL    H3746083   1.235   0.482   4.960  0.8156 -0.8432 -1.4941
  254MOL    C3846084   1.421   0.864   5.019 -0.3222  0.1130  0.0795
  254MOL    C3946085   1.327   0.974   5.085 -0.3894  0.4715  1.5233
  254MOL    C4046086   1.320   0.963   5.234  0.4738 -0.5752 -0.5303
  254MOL    O4146087   1.220   0.933   5.297  0.4940  0.4528  0.7121
  254MOL    O4246088   1.441   0.995   5.295  0.0396 -0.5943 -0.3283
  254MOL    H4346089   1.387   0.848   4.917  0.3580  1.6204 -0.3978
  254MOL    H4446090   1.522   0.902   5.005  0.4223 -0.6147  2.9241
  254MOL    H4546091   1.391   1.062   5.072  2.0437 -1.1120  2.5614
  254MOL    H4646092   1.458   0.958   5.380  0.0410  1.6997  0.6987
  254MOL    C4746093   1.191   1.000   5.015 -0.1443 -0.2841  0.7157
  254MOL    C4846094   1.185   1.062   4.871  0.0822  0.6247 -0.8796
  254MOL    C4946095   1.274   1.189   4.878 -0.4370  0.3471  0.7917
  254MOL    O5046096   1.358   1.218   4.789 -0.3174 -0.8899  0.0870
  254MOL    O5146097   1.258   1.267   4.985 -0.2560 -0.0786 -0.3097
  254MOL    H5246098   1.130   1.059   5.083 -0.8500 -2.4117  1.9391
  254MOL    H5346099   1.131   0.909   5.014 -0.5851  0.0059 -0.5627
  254MOL    H5446100   1.226   0.989   4.800  0.4137  0.1098 -0.1621
  254MOL    H5546101   1.325   1.334   4.986  0.5322 -0.8310  2.1357
  254MOL    C5646102   1.050   1.086   4.819  0.1858 -0.7741  0.0764
  254MOL    C5746103   1.037   1.130   4.674 -0.0320  0.3251  0.2678
  254MOL    C5846104   1.014   1.279   4.660  0.4758 -0.1864  0.3599
  254MOL    O5946105   0.969   1.335   4.564  0.0501  0.0055  0.2146
  254MOL    O6046106   1.044   1.349   4.771 -0.0471  0.0031 -0.1692
  254MOL    H6146107   0.997   1.156   4.883 -2.2444 -1.0508 -1.6075
  254MOL    H6246108   0.983   1.001   4.832 -0.9576 -0.4473 -3.2107
  254MOL    H6346109   1.134   1.127   4.623 -0.5241 -0.0951 -0.6422
  254MOL    H6446110   1.029   1.441   4.757  0.4506  0.0913 -0.1313
  254MOL    C6546111   0.930   1.058   4.591 -0.1216  0.5693 -0.4869
  254MOL    C6646112   0.950   0.909   4.547 -0.2333 -1.2940  0.1092
  254MOL    C6746113   1.057   0.904   4.434 -0.5620  0.3016  0.2773
  254MOL    O6846114   1.050   0.981   4.338  0.3645  0.5364 -0.5278
  254MOL    O6946115   1.154   0.808   4.445  0.0045  0.4931  0.0931
  254MOL    H7046116   0.894   1.106   4.500  0.6435  0.2930 -0.9391
  254MOL    H7146117   0.842   1.061   4.655  0.1702  2.6904 -0.1468
  254MOL    H7246118   1.001   0.870   4.635 -1.0838  0.2118  1.2949
  254MOL    H7346119   1.220   0.822   4.379 -0.9436  1.5214 -0.6481
  254MOL    C7446120   0.819   0.837   4.512  0.3969 -0.3431 -0.4435
  254MOL    C7546121   0.837   0.683   4.501  0.1123  0.7335  0.1943
  254MOL    C7646122   0.747   0.626   4.393 -0.7278 -0.9767 -0.8235
  254MOL    O7746123   0.630   0.644   4.390  0.7500  0.1235 -0.9720
  254MOL    O7846124   0.818   0.571   4.294  0.3358  0.0693  0.0670
  254MOL    H7946125   0.784   0.866   4.413  2.8441  1.2268 -0.8941
  254MOL    H8046126   0.746   0.859   4.589  1.4447  0.5917  0.3036
  254MOL    H8146127   0.939   0.663   4.471 -0.1500  0.8445 -0.8024
  254MOL    H8246128   0.760   0.544   4.225  0.5475  1.2995 -0.6228
  254MOL    C8346129   0.815   0.612   4.637 -0.0243 -0.1139 -0.2613
  254MOL    C8446130   0.894   0.654   4.759  0.2907  0.4267 -0.2615
  254MOL    C8546131   1.036   0.611   4.749 -0.3557 -0.5048 -0.5951
  254MOL    O8646132   1.072   0.496   4.736 -0.6109  0.2953 -0.1970
  254MOL    O8746133   1.121   0.707   4.789  0.0666 -0.4679 -0.3171
  254MOL    H8846134   0.821   0.504   4.619 -1.1357  0.2543 -3.1967
  254MOL    H8946135   0.711   0.619   4.669 -0.3446 -1.2269 -1.0161
  254MOL    H9046136   0.874   0.761   4.772 -0.5124  0.0804  1.4760
  254MOL    H9146137   1.213   0.685   4.794  0.0198 -0.3068  1.7667
  254MOL    C9246138   0.834   0.591   4.892  0.2434 -0.1276  0.2962
  254MOL    C9346139   0.902   0.626   5.025 -0.2873 -0.0075  0.4584
  254MOL    C9446140   0.864   0.524   5.133  0.3261  0.3628 -0.6617
  254MOL    O9546141   0.781   0.536   5.227  0.6260  0.0705  0.1413
  254MOL    O9646142   0.927   0.409   5.113  0.0071 -0.3350  0.2800
  254MOL    H9746143   0.832   0.483   4.877 -3.1174 -0.4747  2.6485
  254MOL    H9846144   0.729   0.621   4.899  0.8512  2.5978 -1.4810
  254MOL    H9946145   1.011   0.625   5.018 -0.3184  1.0483 -0.4309
  254MOL   H10046146   0.890   0.354   5.180 -0.5141 -1.6880 -1.0960
  254MOL   C10146147   0.873   0.765   5.076  0.7631  0.2280 -0.2010
  254MOL   C10246148   0.726   0.821   5.100  0.2536 -0.2552  0.7888
  254MOL   C10346149   0.664   0.902   4.987  0.0800 -0.6736 -0.2283
  254MOL   O10446150   0.728   0.977   4.919 -0.0009  0.1200 -0.2353
  254MOL   O10546151   0.536   0.874   4.956  0.2060 -0.3323  0.0691
  254MOL   H10646152   0.917   0.834   5.004 -0.0848 -0.1856 -1.1122
  254MOL   H10746153   0.935   0.776   5.166 -0.3741  1.3786  0.4611
  254MOL   H10846154   0.658   0.738   5.083 -0.3370  0.8180 -2.3632
  254MOL   H10946155   0.531   0.924   4.876  1.9904 -0.2207  0.0040
  254MOL   C11046156   0.701   0.865   5.248 -0.3375  0.2484 -0.2338
  254MOL   C11146157   0.772   0.994   5.288 -0.0218 -0.2442  0.1245
  254MOL   C11246158   0.841   0.983   5.425 -0.0359  0.2656  0.0493
  254MOL   O11346159   0.957   1.020   5.453  0.1800  0.5527 -0.6416
  254MOL   O11446160   0.761   0.935   5.521 -0.2517 -0.2883  0.2798
  254MOL   H11546161   0.733   0.777   5.304 -1.7723 -1.1178 -1.5210
  254MOL   H11646162   0.594   0.874   5.268 -0.5449  1.4716 -1.8367
  254MOL   H11746163   0.849   1.013   5.214 -0.6676 -0.4165 -0.5938
  254MOL   H11846164   0.802   0.950   5.605  0.9895 -0.0965 -0.3596
  254MOL   C11946165   0.677   1.116   5.276  0.2114 -0.1363 -0.6934
  254MOL   C12046166   0.732   1.258   5.275  0.4588 -0.5432  0.5411
  254MOL   C12146167   0.653   1.353   5.368  0.5161  0.4430 -0.4001
  254MOL   O12246168   0.588   1.448   5.325  0.1621 -0.1269  0.1167
  254MOL   O12346169   0.658   1.311   5.498  0.0121  0.1982  0.9250
  254MOL   H12446170   0.614   1.097   5.363  0.3816 -4.0773 -1.3300
  254MOL   H12546171   0.619   1.098   5.186 -1.4187 -2.6849  0.7836
  254MOL   H12646172   0.832   1.261   5.318 -0.0585  2.2377  1.6677
  254MOL   H12746173   0.602   1.363   5.554 -0.4049 -0.0674  0.7588
  254MOL   C12846174   0.732   1.307   5.125  0.0897  0.1363  0.3967
  254MOL   C12946175   0.810   1.443   5.098  0.2786 -0.0813  0.3826
  254MOL   C13046176   0.777   1.502   4.954  0.1925  0.3074 -0.3855
  254MOL   O13146177   0.860   1.514   4.863 -0.4335 -0.3048 -0.0104
  254MOL   O13246178   0.643   1.537   4.935  0.3018 -0.2717 -0.1390
  254MOL   H13346179   0.628   1.322   5.096  0.1906  0.7803  0.3652
  254MOL   H13446180   0.781   1.240   5.055 -0.0379  2.2264 -1.7786
  254MOL   H13546181   0.778   1.519   5.169  1.5614  1.0845 -0.2688
  254MOL   H13646182   0.636   1.585   4.854 -0.8070  0.1754  0.2201
  254MOL   C13746183   0.964   1.412   5.107  0.0393 -0.6688  0.2609
  254MOL   C13846184   1.047   1.520   5.177  0.3282 -0.0653  0.6037
  254MOL   C13946185   1.029   1.649   5.099 -0.0771  1.0564  0.5083
  254MOL   O14046186   0.949   1.739   5.124 -0.5108 -0.0840 -0.6697
  254MOL   O14146187   1.121   1.650   5.001 -0.5506 -0.3700 -1.0266
  254MOL   H14246188   1.004   1.383   5.009 -1.3134 -1.8009  0.0377
  254MOL   H14346189   0.969   1.325   5.173  0.0570 -2.3804 -1.9075
  254MOL   H14446190   0.989   1.524   5.270 -0.2078  0.9147  0.2387
  254MOL   H14546191   1.109   1.736   4.963  0.8224  0.0250 -0.5686
  254MOL   C14646192   1.187   1.472   5.222 -0.1161 -0.3397  0.1526
  254MOL   C14746193   1.200   1.447   5.379  0.3006  0.2120 -0.2455
  254MOL   C14846194   1.098   1.338   5.427  0.5675 -0.1827  0.5975
  254MOL   O14946195   0.996   1.366   5.489 -0.1306  0.6256  0.5180
  254MOL   O15046196   1.141   1.210   5.399 -0.0151 -0.3867 -0.1250
  254MOL   H15146197   1.268   1.534   5.181  0.9579 -2.3421 -0.7972
  254MOL   H15246198   1.199   1.372   5.182  0.9398  0.4243 -1.5054
  254MOL   H15346199   1.297   1.407   5.408  0.4065  0.3362 -0.4281
  254MOL   H15446200   1.079   1.147   5.431  0.8766 -1.5592 -0.6753
  254MOL   C15546201   1.193   1.581   5.464 -0.5510 -0.2298 -0.0990
  254MOL   C15646202   1.327   1.655   5.477  0.6397 -0.5746  0.2366
  254MOL   C15746203   1.408   1.590   5.594  0.8596  0.7864 -0.5697
  254MOL   O15846204   1.366   1.494   5.654  0.0037 -0.4920  0.2711
  254MOL   O15946205   1.522   1.649   5.617 -0.0137  0.0163  0.5164
  254MOL   H16046206   1.149   1.558   5.561  1.2885  0.9105  1.0385
  254MOL   H16146207   1.113   1.645   5.427  0.8081  1.7333  0.2654
  254MOL   H16246208   1.391   1.632   5.392  1.3138  0.2106  0.5277
  254MOL   H16346209   1.574   1.592   5.671  0.3864  0.2284  0.3504
  254MOL   C16446210   1.312   1.810   5.489  0.1942  0.2490 -0.3388
  254MOL   C16546211   1.249   1.882   5.361  0.2570  0.2298 -0.7774
  254MOL   C16646212   1.352   1.873   5.243 -0.2550 -0.2210  0.0842
  254MOL   O16746213   1.319   1.847   5.132  0.5619  0.2499  0.2143
  254MOL   O16846214   1.483   1.908   5.277 -0.1743 -0.2517 -0.1698
  254MOL   H16946215   1.402   1.859   5.525 -0.6598  1.2385  0.4901
  254MOL   H17046216   1.238   1.824   5.568  0.0690  0.5573 -0.5092
  254MOL   H17146217   1.159   1.832   5.325  0.1656 -0.3476  0.2263
  254MOL   H17246218   1.548   1.922   5.211  0.6027 -0.6626  0.5045
  254MOL   C17346219   1.228   2.027   5.409 -0.2553 -0.3703  0.0403
  254MOL   C17446220   1.167   2.117   5.302  0.1854 -0.1246  0.6337
  254MOL   C17546221   1.147   2.256   5.369  0.5738 -0.2002  0.3279
  254MOL   O17646222   1.241   2.319   5.409 -0.3054  0.1715  0.7933
  254MOL   O17746223   1.026   2.313   5.358 -0.3284  0.0410 -0.0452
  254MOL   H17846224   1.327   2.047   5.451 -0.7792 -0.0223  1.1213
  254MOL   H17946225   1.155   2.025   5.490 -1.5163 -2.1937 -1.0892
  254MOL   H18046226   1.223   2.124   5.209 -0.2062 -0.0773  0.3974
  254MOL   H18146227   1.036   2.399   5.393  0.5554 -0.0444 -0.0742
  254MOL   H18246228   1.070   2.070   5.284  0.4778 -0.6885  0.5360
  255MOL     C146229   6.965   6.528   7.179  0.4642  0.3003  0.5152
  255MOL     C246230   6.844   6.617   7.162 -0.0134  0.1841  0.5415
  255MOL     C346231   6.807   6.618   7.013 -0.4823  1.2145 -0.2838
  255MOL     O446232   6.715   6.563   6.964  0.3529 -0.3710 -0.2325
  255MOL     O546233   6.899   6.695   6.947 -0.2927 -0.1832  0.0897
  255MOL     H646234   7.063   6.564   7.145  0.9476 -0.4373  1.1223
  255MOL     H746235   6.982   6.504   7.283  1.5672  1.2744  0.5776
  255MOL     H846236   6.762   6.558   7.204  0.6054 -0.6820  0.5600
  255MOL     H946237   6.954   6.726   7.018  0.5805 -0.4910 -0.4466
  255MOL    H1046238   6.963   6.440   7.114 -0.3687  1.1592 -0.6526
  255MOL    C1146239   6.861   6.748   7.244  0.5912  0.3267 -0.9281
  255MOL    C1246240   6.760   6.863   7.223  0.2359 -0.4238  0.1351
  255MOL    C1346241   6.808   6.988   7.292  0.0366 -0.1998  0.1720
  255MOL    O1446242   6.783   7.011   7.414  0.1169 -0.3785 -0.1703
  255MOL    O1546243   6.895   7.047   7.209  0.3936 -0.1741  0.3161
  255MOL    H1646244   6.960   6.789   7.224  0.3303  1.8351  0.6925
  255MOL    H1746245   6.865   6.708   7.345  2.2985  1.2485 -0.6054
  255MOL    H1846246   6.753   6.890   7.118  2.0636 -1.8212 -0.3723
  255MOL    H1946247   6.929   7.124   7.252 -1.8889  0.1296  1.6480
  255MOL    C2046248   6.623   6.811   7.268  0.2187 -0.2643  0.7493
  255MOL    C2146249   6.495   6.902   7.228 -0.5660  0.4954  0.9874
  255MOL    C2246250   6.457   6.884   7.083  0.4963 -0.1603  0.3970
  255MOL    O2346251   6.462   6.973   7.001  0.4487  0.0989 -0.8686
  255MOL    O2446252   6.436   6.753   7.057  0.1131  0.1052 -0.0084
  255MOL    H2546253   6.634   6.791   7.375  0.4609  0.5844  0.8852
  255MOL    H2646254   6.601   6.716   7.221 -0.2693 -1.1157  2.6373
  255MOL    H2746255   6.414   6.846   7.275 -1.8545  0.7012 -0.9425
  255MOL    H2846256   6.422   6.741   6.965  1.0458  0.9454 -0.2778
  255MOL    C2946257   6.477   7.046   7.284 -0.3165  0.6424  0.5164
  255MOL    C3046258   6.459   7.065   7.440  1.0381  0.5186  0.0246
  255MOL    C3146259   6.316   7.023   7.480 -0.3018  0.3699  0.1608
  255MOL    O3246260   6.214   7.087   7.462  0.1611 -0.2385 -0.3676
  255MOL    O3346261   6.309   6.902   7.535 -0.1433 -0.0694 -0.4835
  255MOL    H3446262   6.398   7.098   7.229  0.0608 -0.7406 -1.3696
  255MOL    H3546263   6.566   7.108   7.266  0.2407 -0.1714  0.4521
  255MOL    H3646264   6.513   6.983   7.487 -1.6129 -2.1171 -1.3826
  255MOL    H3746265   6.219   6.883   7.555 -1.6320  2.7531 -3.9314
  255MOL    C3846266   6.513   7.197   7.510  0.1414  0.1663 -0.0248
  255MOL    C3946267   6.444   7.328   7.467  0.4380 -0.7535 -0.3420
  255MOL    C4046268   6.484   7.361   7.321 -0.0419 -0.9086 -1.3655
  255MOL    O4146269   6.403   7.384   7.232 -0.0245 -0.4530  0.3031
  255MOL    O4246270   6.617   7.402   7.314  0.9188  0.0330 -0.1960
  255MOL    H4346271   6.620   7.198   7.492  0.2321 -2.0322  0.3152
  255MOL    H4446272   6.509   7.185   7.618 -0.3412 -0.0803 -0.0667
  255MOL    H4546273   6.336   7.313   7.466  0.4099 -0.7420  1.5019
  255MOL    H4646274   6.625   7.444   7.230  0.0604  1.5240  0.4496
  255MOL    C4746275   6.469   7.437   7.571  0.2725 -0.3659 -0.1692
  255MOL    C4846276   6.366   7.556   7.573 -0.3563 -0.9079 -0.1091
  255MOL    C4946277   6.449   7.686   7.610  0.2830 -0.1270  0.8122
  255MOL    O5046278   6.480   7.779   7.532  0.1827 -0.2762  0.5711
  255MOL    O5146279   6.475   7.685   7.742  0.1243 -0.0424  0.3647
  255MOL    H5246280   6.572   7.467   7.555 -0.8633  2.7866 -1.8088
  255MOL    H5346281   6.463   7.403   7.675  0.7001  0.5266  0.1459
  255MOL    H5446282   6.334   7.568   7.469 -1.2178  2.3614  0.4822
  255MOL    H5546283   6.523   7.759   7.776  1.8046 -1.0750  0.3037
  255MOL    C5646284   6.235   7.537   7.652  0.5403  0.4392  0.5923
  255MOL    C5746285   6.103   7.585   7.598 -0.0697  0.5977 -0.4572
  255MOL    C5846286   6.060   7.484   7.486 -0.5929 -0.0863  0.0030
  255MOL    O5946287   6.111   7.376   7.452 -0.7880  0.5936 -0.1500
  255MOL    O6046288   5.939   7.513   7.442 -0.0841 -0.4025 -0.3147
  255MOL    H6146289   6.253   7.569   7.755 -1.6568  0.9105  0.8519
  255MOL    H6246290   6.227   7.429   7.661  3.8012 -0.0919 -1.7243
  255MOL    H6346291   6.025   7.574   7.673  1.3770 -0.6486  0.9106
  255MOL    H6446292   5.921   7.441   7.383  0.4413  0.4403 -1.5202
  255MOL    C6546293   6.100   7.735   7.547 -0.2694  0.5338 -0.6671
  255MOL    C6646294   6.130   7.835   7.658  0.4264 -0.1909  0.0488
  255MOL    C6746295   6.005   7.831   7.749 -0.1421  0.4064 -0.5282
  255MOL    O6846296   5.894   0.029   7.717  0.5295 -0.7027 -0.5982
  255MOL    O6946297   6.030   7.755   0.006 -0.1337 -0.4571 -0.5315
  255MOL    H7046298   6.003   7.769   7.510 -0.0947  2.4070  0.5204
  255MOL    H7146299   6.174   7.747   7.468  0.0312  2.1902 -0.1611
  255MOL    H7246300   6.218   7.798   7.712  1.0968 -0.0554 -0.9411
  255MOL    H7346301   5.950   7.749   0.055 -0.3609  0.6234 -0.7415
  255MOL    C7446302   6.162   0.126   7.610 -0.0720  0.7731  0.0062
  255MOL    C7546303   6.207   0.230   7.721 -0.1791 -0.7665 -0.4101
  255MOL    C7646304   6.102   0.330   7.777 -0.0305  1.1248  0.9279
  255MOL    O7746305   5.994   0.365   7.719 -0.8778  0.1163  0.0155
  255MOL    O7846306   6.144   0.374   0.046 -0.0107 -0.0720  0.5715
  255MOL    H7946307   6.078   0.168   7.554 -2.1155 -2.7106  0.3108
  255MOL    H8046308   6.237   0.118   7.532  1.8234  1.0250  1.7804
  255MOL    H8146309   6.237   0.178   7.812 -0.5744 -0.1821  0.0487
  255MOL    H8246310   6.102   0.441   0.098 -0.0722 -0.7985  1.4730
  255MOL    C8346311   6.330   0.308   7.672  0.1016 -0.2677 -0.0864
  255MOL    C8446312   6.466   0.258   7.695  0.0635  0.5010 -0.8728
  255MOL    C8546313   6.502   0.231   7.841 -0.0857 -0.2736  0.0409
  255MOL    O8646314   6.521   0.114   0.027  0.6383 -0.0671  0.4609
  255MOL    O8746315   6.521   0.343   0.063  0.0268 -0.2084 -0.1761
  255MOL    H8846316   6.319   0.399   7.732  0.0103 -0.0753 -0.3951
  255MOL    H8946317   6.325   0.333   7.566 -0.7480 -1.1805 -0.2683
  255MOL    H9046318   6.475   0.163   7.642 -2.7017 -1.0246  1.2872
  255MOL    H9146319   6.561   0.320   0.145  0.9861  0.5736 -0.4200
  255MOL    C9246320   6.571   0.346   7.627 -0.2101 -0.2487 -0.5080
  255MOL    C9346321   6.558   0.373   7.479  0.1169 -1.1806  0.6120
  255MOL    C9446322   6.526   0.244   7.405 -0.4123 -0.4708 -0.0789
  255MOL    O9546323   6.415   0.226   7.360  0.4334 -0.0949  0.5217
  255MOL    O9646324   6.627   0.154   7.395 -0.1169 -0.8862 -0.1101
  255MOL    H9746325   6.666   0.295   7.641  0.3278  1.1131  0.8726
  255MOL    H9846326   6.574   0.445   7.671 -2.0715  0.2703 -1.4938
  255MOL    H9946327   6.473   0.439   7.464  0.5216 -0.7924 -0.0031
  255MOL   H10046328   6.580   0.076   7.372  0.6198 -0.7938 -1.9950
  255MOL   C10146329   6.696   0.440   7.424  0.2173 -0.1562 -0.0870
  255MOL   C10246330   6.696   0.491   7.286 -0.4733  0.2987 -0.2246
  255MOL   C10346331   6.573   0.574   7.240  0.0299 -0.3918  0.1817
  255MOL   O10446332   6.470   0.538   7.176  0.4864 -0.2606 -0.9544
  255MOL   O10546333   6.587   0.704   7.274  0.2854 -0.8352 -0.8295
  255MOL   H10646334   6.785   0.385   7.456  0.9011  1.3768  0.7001
  255MOL   H10746335   6.692   0.536   7.476  0.4258 -0.6658  0.8862
  255MOL   H10846336   6.778   0.561   7.292  0.2121 -0.5386  0.2124
  255MOL   H10946337   6.517   0.752   7.232  0.9228  1.2207  0.4082
  255MOL   C11046338   6.752   0.390   7.185 -0.3513  0.6080  0.1971
  255MOL   C11146339   6.859   0.439   7.075 -0.5607 -0.0677 -0.3755
  255MOL   C11246340   6.822   0.553   6.985 -0.1629 -0.3060 -0.0106
  255MOL   O11346341   6.905   0.634   6.945  0.6905  0.0628  0.5772
  255MOL   O11446342   6.694   0.550   6.943  0.5265  0.0623 -0.5236
  255MOL   H11546343   6.676   0.338   7.127  0.3310  1.2077 -1.2558
  255MOL   H11646344   6.812   0.321   7.244  1.6081  2.1333  0.0270
  255MOL   H11746345   6.938   0.475   7.140  0.6522  0.5676 -2.1581
  255MOL   H11846346   6.674   0.622   6.885 -1.0395 -1.3576 -1.8033
  255MOL   C11946347   6.892   0.312   6.994 -0.0277 -0.3231 -0.9192
  255MOL   C12046348   7.034   0.309   6.923  0.3594 -0.3002  0.8025
  255MOL   C12146349   7.042   0.220   6.796  0.1422 -0.3617 -0.1600
  255MOL   O12246350   6.942   0.162   6.752 -0.0588 -0.2898 -0.5623
  255MOL   O12346351   7.157   0.211   6.733  0.1136 -0.0912  0.0483
  255MOL   H12446352   6.812   0.282   6.926 -0.8033  0.0660 -0.1761
  255MOL   H12546353   6.886   0.232   7.068 -1.5510  1.3326  0.7911
  255MOL   H12646354   7.048   0.407   6.879 -2.4957  0.4020  1.3300
  255MOL   H12746355   7.229   0.262   6.767 -1.2804  1.8821  0.1451
  255MOL   C12846356   7.146   0.261   7.023 -0.6420 -0.7432  0.2888
  255MOL   C12946357   7.266   0.362   7.035  0.5740 -0.0147  0.3448
  255MOL   C13046358   7.358   0.386   6.919  0.6721  0.0787 -0.0171
  255MOL   O13146359   7.361   0.314   6.823 -0.1312  0.0556 -0.1040
  255MOL   O13246360   7.433   0.500   6.927  0.3327  0.4380  0.1972
  255MOL   H13346361   7.195   0.169   6.991  0.3829 -0.8772  2.1487
  255MOL   H13446362   7.105   0.246   7.122 -1.1226  1.0285  0.3786
  255MOL   H13546363   7.220   0.458   7.057  2.8009  1.8024 -2.5998
  255MOL   H13646364   7.471   0.518   6.843 -0.1467  2.0609  0.3152
  255MOL   C13746365   7.359   0.308   7.158  0.2755  0.3982 -0.0114
  255MOL   C13846366   7.393   0.413   7.264 -0.0557  0.0751 -0.0301
  255MOL   C13946367   7.486   0.346   7.362  0.0996  0.0733 -0.5284
  255MOL   O14046368   7.456   0.321   7.480 -0.0305 -0.2236  0.4103
  255MOL   O14146369   7.611   0.316   7.315 -0.3629 -0.0709  0.4900
  255MOL   H14246370   7.453   0.269   7.119 -0.0674  0.7507 -1.2124
  255MOL   H14346371   7.328   0.216   7.208  1.9005  0.3261  0.8768
  255MOL   H14446372   7.436   0.503   7.220  0.2513  0.7656  1.6715
  255MOL   H14546373   7.654   0.267   7.384  2.3752  0.5092 -0.7292
  255MOL   C14646374   7.266   0.470   7.333  0.4912  0.3680 -0.1749
  255MOL   C14746375   7.276   0.592   7.433  0.3319  0.0425  0.6599
  255MOL   C14846376   7.136   0.620   7.506  0.0907 -0.4567  0.6905
  255MOL   O14946377   7.037   0.551   7.487 -0.3552  0.4627  0.1940
  255MOL   O15046378   7.136   0.734   7.582  0.4002  0.2199 -0.0702
  255MOL   H15146379   7.213   0.388   7.382  1.3240  0.1067  0.3031
  255MOL   H15246380   7.209   0.499   7.245 -0.0631 -3.4054 -1.1577
  255MOL   H15346381   7.344   0.560   7.512  2.0794 -0.7772 -1.1323
  255MOL   H15446382   7.047   0.737   7.614  0.1618  0.3013 -0.7348
  255MOL   C15546383   7.350   0.712   7.377  0.5113 -0.3269 -0.7741
  255MOL   C15646384   7.278   0.794   7.269 -0.3787 -0.2608 -0.3016
  255MOL   C15746385   7.328   0.759   7.128  0.0854 -0.2788 -1.1422
  255MOL   O15846386   7.256   0.725   7.039  0.1806  0.1959  0.6394
  255MOL   O15946387   7.463   0.759   7.124 -0.6249 -0.4512 -0.6555
  255MOL   H16046388   7.449   0.674   7.351  0.9402 -1.3059  2.1722
  255MOL   H16146389   7.381   0.773   7.462  1.0764 -2.0063  0.2469
  255MOL   H16246390   7.170   0.779   7.280 -0.2817  0.7985  2.4507
  255MOL   H16346391   7.505   0.763   7.040 -0.6354 -0.5791 -0.6675
  255MOL   C16446392   7.282   0.944   7.299 -0.3232  0.0217 -0.1065
  255MOL   C16546393   7.180   1.040   7.227  0.1341 -1.2034  0.0315
  255MOL   C16646394   7.223   1.190   7.216  0.6501  0.0487  0.3472
  255MOL   O16746395   7.287   1.246   7.309  0.0198  0.0171  0.2006
  255MOL   O16846396   7.189   1.251   7.097  0.7768 -0.1410  0.0357
  255MOL   H16946397   7.388   0.968   7.285 -0.3470  1.0750  1.3625
  255MOL   H17046398   7.258   0.959   7.404 -0.4949  0.7025 -0.2367
  255MOL   H17146399   7.168   1.011   7.123  0.6154 -0.3035 -0.2819
  255MOL   H17246400   7.204   1.344   7.090  1.2703 -0.3393 -1.8252
  255MOL   C17346401   7.041   1.035   7.284 -0.0234  0.0699 -0.3364
  255MOL   C17446402   6.926   1.045   7.178 -0.1540  0.2191 -0.3797
  255MOL   C17546403   6.913   0.901   7.118  0.0778  0.1951  0.2136
  255MOL   O17646404   6.873   0.804   7.184  0.1921 -0.0420 -0.2402
  255MOL   O17746405   6.946   0.894   6.982  0.5018 -0.4605 -0.0312
  255MOL   H17846406   7.022   1.118   7.352 -0.7256 -0.2483 -0.1340
  255MOL   H17946407   7.028   0.949   7.350  2.2923 -0.1270 -0.0838
  255MOL   H18046408   6.837   1.068   7.237 -1.4768 -0.0939 -2.2119
  255MOL   H18146409   6.951   0.805   6.950 -0.6631  0.2702 -2.3433
  255MOL   H18246410   6.948   1.122   7.105  2.0547 -0.7196 -0.7335
  256MOL     C146411   5.629   5.905   0.116  0.3204  0.0417 -0.0534
  256MOL     C246412   5.587   6.001   0.004 -0.6985  0.3038  0.4837
  256MOL     C346413   5.511   5.929   7.748 -0.6315 -0.5069  0.4506
  256MOL     O446414   5.539   5.812   7.718 -0.3943 -0.2193  0.1655
  256MOL     O546415   5.410   6.003   7.690  0.3762  0.4187 -0.4967
  256MOL     H646416   5.554   5.831   0.145 -0.1416  0.5397  0.0434
  256MOL     H746417   5.709   5.847   0.071  0.0015 -1.4627  1.2903
  256MOL     H846418   5.516   6.065   0.056 -2.2030 -0.7747 -0.2092
  256MOL     H946419   5.419   6.087   7.733 -0.1100 -0.4301  1.2655
  256MOL    H1046420   5.648   5.968   0.203  1.7679  0.6843 -0.8247
  256MOL    C1146421   5.706   6.077   7.803 -0.3492  0.0521  0.2014
  256MOL    C1246422   5.756   6.190   0.037  0.0007 -0.6964 -0.6251
  256MOL    C1346423   5.782   6.325   7.819 -0.9367  0.0428  0.0073
  256MOL    O1446424   5.696   6.417   7.826 -0.5477  0.1527 -0.2326
  256MOL    O1546425   5.899   6.326   7.742 -0.1365  0.2221 -0.6032
  256MOL    H1646426   5.664   6.125   7.715  2.5807  1.8578 -0.2957
  256MOL    H1746427   5.790   6.013   7.774  0.7745  1.7432 -0.3895
  256MOL    H1846428   5.677   6.217   0.106  1.9478 -1.3124  1.9530
  256MOL    H1946429   5.908   6.406   7.693 -0.5600  0.9221  0.4668
  256MOL    C2046430   5.881   6.142   0.121 -0.5577 -0.0783 -0.0731
  256MOL    C2146431   5.906   6.225   0.248  0.5077  0.5915  0.4628
  256MOL    C2246432   6.050   6.241   0.287 -1.1363  0.2725  0.5891
  256MOL    O2346433   6.100   6.188   0.389 -0.1279 -0.6277  0.3848
  256MOL    O2446434   6.118   6.317   0.195  0.6057 -0.6387 -0.7283
  256MOL    H2546435   5.970   6.144   0.059 -1.3210  1.7365 -1.1436
  256MOL    H2646436   5.874   6.036   0.146 -0.4615 -0.0500  0.0738
  256MOL    H2746437   5.877   6.329   0.233  1.0643  0.4049 -2.1957
  256MOL    H2846438   6.199   6.329   0.241 -1.5586  0.1571  3.0748
  256MOL    C2946439   5.826   6.172   0.366  0.6339 -0.3499 -0.5710
  256MOL    C3046440   5.684   6.237   0.387 -0.5953 -0.0453 -0.2301
  256MOL    C3146441   5.695   6.393   0.395 -0.5532  0.3500  0.6421
  256MOL    O3246442   5.726   6.447   0.498 -0.1980  0.1602 -0.6900
  256MOL    O3346443   5.664   6.455   0.279  0.6173 -0.2229 -0.0837
  256MOL    H3446444   5.872   6.194   0.462  1.4527  0.9864 -1.2499
  256MOL    H3546445   5.820   6.064   0.357 -0.9145 -0.3777  0.5931
  256MOL    H3646446   5.626   6.208   0.299 -0.8646  0.1049 -0.1005
  256MOL    H3746447   5.681   6.546   0.299  2.2320 -0.8579  1.5720
  256MOL    C3846448   5.604   6.162   0.500 -0.0221 -0.5394 -0.7302
  256MOL    C3946449   5.480   6.245   0.552 -0.1711 -0.1971 -0.2410
  256MOL    C4046450   5.410   6.176   0.674 -0.2599 -0.4827  0.2442
  256MOL    O4146451   5.382   6.231   0.781 -0.3848 -0.3038  0.0310
  256MOL    O4246452   5.381   6.049   0.645  0.1441  0.4612  0.3638
  256MOL    H4346453   5.663   6.162   0.591 -0.7278  1.7219 -0.2518
  256MOL    H4446454   5.570   6.065   0.461  1.8887 -1.4750 -0.1117
  256MOL    H4546455   5.509   6.342   0.593 -1.6393  0.4046 -0.5860
  256MOL    H4646456   5.347   5.989   0.710  0.0168 -2.6436 -2.4047
  256MOL    C4746457   5.374   6.265   0.439 -0.5616 -0.9216  0.0853
  256MOL    C4846458   5.256   6.362   0.464 -0.6574  0.2439  0.1657
  256MOL    C4946459   5.152   6.333   0.358 -0.3456  0.7633 -0.1059
  256MOL    O5046460   5.043   6.284   0.382 -0.0123  0.1549 -0.4167
  256MOL    O5146461   5.207   6.373   0.239  0.6119  0.7189 -0.5933
  256MOL    H5246462   5.340   6.166   0.409 -1.7949 -0.2637 -0.7424
  256MOL    H5346463   5.420   6.306   0.349 -2.2217  1.0213  0.0982
  256MOL    H5446464   5.213   6.339   0.561  0.4768  1.4329  0.9792
  256MOL    H5546465   5.289   6.405   0.272  1.1370 -0.7398 -0.4525
  256MOL    C5646466   5.295   6.505   0.497  0.0693  0.5792 -0.1878
  256MOL    C5746467   5.185   6.609   0.528  0.1341 -0.1312  0.2463
  256MOL    C5846468   5.149   6.687   0.396 -1.0891 -0.4779 -0.3666
  256MOL    O5946469   5.187   6.805   0.373  0.3982 -0.0348 -0.1062
  256MOL    O6046470   5.069   6.617   0.316  0.4795 -0.2026  0.1481
  256MOL    H6146471   5.366   6.541   0.422  1.3391 -1.7296 -0.1374
  256MOL    H6246472   5.358   6.497   0.586  0.3786  2.8433 -0.1706
  256MOL    H6346473   5.095   6.549   0.536  1.1891 -1.9739 -1.2435
  256MOL    H6446474   5.062   6.649   0.228 -0.7756  1.1782  0.7027
  256MOL    C6546475   5.207   6.689   0.657 -0.3193 -0.0137  0.2370
  256MOL    C6646476   5.082   6.766   0.720  0.4429  0.1585  0.1328
  256MOL    C6746477   5.064   6.908   0.667  0.3288  0.1852  0.0837
  256MOL    O6846478   5.159   6.987   0.641  0.2665 -0.0080  0.2510
  256MOL    O6946479   4.932   6.946   0.653  0.1623 -0.4343 -0.0164
  256MOL    H7046480   5.292   6.757   0.648 -1.7898  1.4762 -3.0522
  256MOL    H7146481   5.253   6.624   0.732 -0.4499  0.3756  0.6595
  256MOL    H7246482   4.996   6.707   0.690 -0.5086  1.5773  0.0112
  256MOL    H7346483   4.922   7.026   0.604  0.2870 -0.7938 -0.6358
  256MOL    C7446484   5.088   6.776   0.875  0.1547 -0.1241 -0.1030
  256MOL    C7546485   4.954   6.758   0.947 -0.3971  0.5280  0.3073
  256MOL    C7646486   4.879   6.888   0.982  1.2673  0.4372  0.3793
  256MOL    O7746487   4.928   7.001   0.969 -0.6431 -0.4148  0.4553
  256MOL    O7846488   4.753   6.856   1.038  0.5815 -0.3748 -0.1723
  256MOL    H7946489   5.121   6.878   0.892  0.6577  0.2295 -2.9945
  256MOL    H8046490   5.170   6.721   0.922  0.2894  1.3300  1.4076
  256MOL    H8146491   4.893   6.691   0.887  2.8152 -1.6779 -0.5837
  256MOL    H8246492   4.741   6.763   1.036  0.7626 -0.3943 -0.4786
  256MOL    C8346493   4.988   6.688   1.085  0.0418 -0.0982  0.7999
  256MOL    C8446494   4.961   6.536   1.080  1.0712 -0.1578 -0.2963
  256MOL    C8546495   4.817   6.494   1.067  0.4445  0.4911 -0.4388
  256MOL    O8646496   4.726   6.581   1.054  0.8092  0.1232  0.0540
  256MOL    O8746497   4.791   6.364   1.072 -0.2527  0.0750 -0.6964
  256MOL    H8846498   4.924   6.737   1.158 -0.0060 -1.2620  1.5403
  256MOL    H8946499   5.088   6.714   1.119 -0.3380  0.0103  1.8337
  256MOL    H9046500   4.994   6.492   0.986 -0.1592  0.4086 -1.0130
  256MOL    H9146501   4.700   6.340   1.072 -0.5264  1.0819 -1.2260
  256MOL    C9246502   5.026   6.475   1.201 -0.2819  1.0025 -0.3897
  256MOL    C9346503   5.183   6.459   1.174  0.3596 -0.2780  0.2219
  256MOL    C9446504   5.227   6.346   1.071 -0.5068  0.1522  0.5496
  256MOL    O9546505   5.187   6.228   1.078 -0.5574  0.0651 -0.2663
  256MOL    O9646506   5.300   6.389   0.960 -0.1598 -0.8052  0.3695
  256MOL    H9746507   4.982   6.380   1.233 -0.7213  1.4243  0.2837
  256MOL    H9846508   5.006   6.534   1.291  1.2297  1.2295 -0.1970
  256MOL    H9946509   5.223   6.547   1.123  0.4097  0.9878  2.4161
  256MOL   H10046510   5.318   6.318   0.901  0.8039 -0.7806  0.6251
  256MOL   C10146511   5.255   6.430   1.306 -0.0845 -0.1686 -0.5368
  256MOL   C10246512   5.281   6.554   1.395  0.2089  0.1430 -0.0266
  256MOL   C10346513   5.395   6.643   1.345 -0.0261 -0.2264  0.5031
  256MOL   O10446514   5.501   6.587   1.323 -0.0905  0.1435  0.3817
  256MOL   O10546515   5.364   6.775   1.336  0.1116 -0.4266 -0.1139
  256MOL   H10646516   5.349   6.377   1.291  0.2315  0.4250 -0.6769
  256MOL   H10746517   5.192   6.357   1.358  0.2080  0.4231  0.6671
  256MOL   H10846518   5.188   6.610   1.385  0.4944  0.0337 -4.1750
  256MOL   H10946519   5.420   6.831   1.286  0.1619 -0.4790 -0.1160
  256MOL   C11046520   5.286   6.521   1.545  0.2225 -0.0851 -0.3094
  256MOL   C11146521   5.278   6.636   1.653 -0.6446  0.0696 -0.0822
  256MOL   C11246522   5.139   6.711   1.636  0.1870  0.5379 -0.1614
  256MOL   O11346523   5.127   6.831   1.635  0.0897 -0.0206  0.2468
  256MOL   O11446524   5.035   6.626   1.637  0.3124 -0.0744  0.1235
  256MOL   H11546525   5.382   6.470   1.552  0.0576 -0.5859 -1.5245
  256MOL   H11646526   5.204   6.453   1.568  0.3562 -0.1894 -0.1381
  256MOL   H11746527   5.279   6.588   1.751 -0.4027 -0.6665 -0.4398
  256MOL   H11846528   4.958   6.679   1.652  0.9600  1.4574 -1.6531
  256MOL   C11946529   5.403   6.733   1.669  0.0263  0.3996  0.5702
  256MOL   C12046530   5.548   6.686   1.690  0.1776 -0.3049 -0.4391
  256MOL   C12146531   5.559   6.562   1.784 -0.2988  0.3236  0.3161
  256MOL   O12246532   5.497   6.546   1.887 -0.7359  0.0367  0.5668
  256MOL   O12346533   5.661   6.475   1.738  0.1512  0.1718 -1.1142
  256MOL   H12446534   5.374   6.779   1.764 -0.0341 -0.5793  1.0327
  256MOL   H12546535   5.391   6.801   1.585  0.0811  0.2399  0.4338
  256MOL   H12646536   5.576   6.640   1.595  0.6769 -0.4911 -0.2031
  256MOL   H12746537   5.677   6.401   1.795 -0.6565 -0.4308 -1.6541
  256MOL   C12846538   5.645   6.794   1.736 -0.3953 -0.4969 -0.0031
  256MOL   C12946539   5.683   6.906   1.638 -0.1009 -0.4266  0.0658
  256MOL   C13046540   5.747   6.847   1.517 -0.0996 -0.5368  0.0846
  256MOL   O13146541   5.838   6.759   1.526 -0.1739 -0.3759 -0.5476
  256MOL   O13246542   5.695   6.885   1.398 -0.2681 -0.7962  0.6513
  256MOL   H13346543   5.740   6.746   1.757 -0.5773 -2.3417 -3.0493
  256MOL   H13446544   5.616   6.835   1.832  1.5986 -0.2676  0.5094
  256MOL   H13546545   5.592   6.952   1.599  0.3412 -0.0798 -0.5809
  256MOL   H13646546   5.734   6.844   1.323 -1.4153 -2.9616  1.2233
  256MOL   C13746547   5.762   7.032   1.695  0.6905  0.5425 -0.6435
  256MOL   C13846548   5.711   7.169   1.638  0.3520  0.1877 -0.7348
  256MOL   C13946549   5.836   7.261   1.610 -0.4677  0.6481 -0.5200
  256MOL   O14046550   5.921   7.236   1.525 -0.0430 -0.9534  0.5551
  256MOL   O14146551   5.846   7.370   1.696 -0.2584  0.4309 -0.1374
  256MOL   H14246552   5.868   7.019   1.672  0.9158  1.2153 -0.0015
  256MOL   H14346553   5.751   7.018   1.802 -0.1848 -2.3263 -1.0645
  256MOL   H14446554   5.653   7.164   1.546 -1.7488  1.6157  0.4774
  256MOL   H14546555   5.930   7.406   1.675 -0.6693  0.7230 -1.3920
  256MOL   C14646556   5.617   7.234   1.745 -0.7458  0.9635  0.0357
  256MOL   C14746557   5.487   7.165   1.776 -0.4646 -0.0317  0.5858
  256MOL   C14846558   5.400   7.185   1.651  0.5443 -0.2514 -0.0182
  256MOL   O14946559   5.354   7.297   1.627 -0.6059  0.0439 -0.5164
  256MOL   O15046560   5.384   7.075   1.584  0.7008  0.0723  0.2682
  256MOL   H15146561   5.605   7.339   1.720 -0.4800  0.8155 -0.7104
  256MOL   H15246562   5.685   7.240   1.830  0.8979  0.6544 -1.2512
  256MOL   H15346563   5.490   7.057   1.791 -1.7529 -0.3016 -1.0291
  256MOL   H15446564   5.315   7.083   1.520  0.3854  0.6453  0.6824
  256MOL   C15546565   5.399   7.212   1.892  0.1918 -0.4105  0.1887
  256MOL   C15646566   5.431   7.159   2.033 -0.0766 -0.0176 -0.0335
  256MOL   C15746567   5.370   7.020   2.052  0.4313  0.7256  0.5687
  256MOL   O15846568   5.249   6.996   2.047  0.2595 -0.0036 -0.5509
  256MOL   O15946569   5.462   6.932   2.066 -0.9944  0.0622  0.1087
  256MOL   H16046570   5.292   7.205   1.874 -0.0176  2.7806 -0.0693
  256MOL   H16146571   5.409   7.320   1.880  1.3864 -0.6331 -0.9969
  256MOL   H16246572   5.537   7.156   2.057 -0.4748 -0.9774  1.7232
  256MOL   H16346573   5.412   6.854   2.085 -1.1662  0.4384  1.2192
  256MOL   C16446574   5.376   7.263   2.126  0.3237  0.6031 -0.2490
  256MOL   C16546575   5.423   7.245   2.275 -0.7228 -0.0277  0.8912
  256MOL   C16646576   5.328   7.159   2.356 -0.1650  0.0796 -0.1953
  256MOL   O16746577   5.222   7.197   2.400 -0.0647  0.1734  0.4414
  256MOL   O16846578   5.367   7.029   2.362 -0.0787  0.3227 -0.5917
  256MOL   H16946579   5.268   7.250   2.128  0.3607  0.3579  2.0442
  256MOL   H17046580   5.397   7.364   2.091 -0.5940  0.8669 -0.0578
  256MOL   H17146581   5.521   7.198   2.265 -1.2412 -1.1040  0.9100
  256MOL   H17246582   5.305   6.972   2.405  0.1078 -0.8935 -1.9157
  256MOL   C17346583   5.443   7.391   2.343  0.1001 -0.2411  0.4747
  256MOL   C17446584   5.581   7.446   2.301  0.3467 -0.0449 -0.1384
  256MOL   C17546585   5.613   7.569   2.370 -1.3642  0.1322 -0.1988
  256MOL   O17646586   5.533   7.658   2.400 -0.6536  0.1689 -0.6552
  256MOL   O17746587   5.749   7.577   2.388  0.2944 -0.4519  0.3335
  256MOL   H17846588   5.444   7.383   2.451 -1.5749  1.9922  0.6937
  256MOL   H17946589   5.367   7.467   2.322  0.7750 -0.1406 -1.6959
  256MOL   H18046590   5.652   7.370   2.334  0.2837 -0.6458 -1.3789
  256MOL   H18146591   5.764   7.662   2.426 -0.0108 -1.0607  1.8317
  256MOL   H18246592   5.608   7.454   2.196  0.6762 -2.6468 -0.2982
  257MOL     C146593   2.980   7.784   6.841 -0.0077  0.9254  0.3967
  257MOL     C246594   3.099   7.736   6.763 -0.6332  0.0117  0.0139
  257MOL     C346595   3.231   7.762   6.842 -0.8177  0.7928 -0.2612
  257MOL     O446596   3.241   7.809   6.955  0.5533  0.8168  0.0685
  257MOL     O546597   3.337   7.709   6.776 -0.2626 -0.3075  0.9160
  257MOL     H646598   2.972   0.039   6.828  1.6780  0.8443 -1.5682
  257MOL     H746599   2.882   7.746   6.810  0.2862  1.1798 -0.8769
  257MOL     H846600   3.070   7.633   6.746 -2.0103  0.0727  1.8150
  257MOL     H946601   3.415   7.722   6.828  0.1231 -0.2173  0.3132
  257MOL    H1046602   2.993   7.760   6.946 -0.5899  2.3799  0.8143
  257MOL    C1146603   3.099   7.801   6.624  0.2221  0.1426 -0.5466
  257MOL    C1246604   3.176   7.720   6.514  0.0883  0.8145 -0.0442
  257MOL    C1346605   3.233   7.819   6.411 -1.1231 -0.4219  0.0000
  257MOL    O1446606   3.205   0.085   6.406 -0.3538 -0.1499  0.1224
  257MOL    O1546607   3.310   7.753   6.319  0.0635 -0.6723 -0.8397
  257MOL    H1646608   3.131   0.050   6.648  1.5610 -0.3311 -0.2392
  257MOL    H1746609   2.999   7.808   6.583 -0.8677  0.6287  2.0582
  257MOL    H1846610   3.260   7.662   6.553  1.3404  0.3052 -3.3640
  257MOL    H1946611   3.343   7.826   6.269  3.2232 -2.8617 -2.1584
  257MOL    C2046612   3.080   7.608   6.458  0.3866  0.8709  0.4828
  257MOL    C2146613   3.139   7.485   6.380 -0.5632 -0.6545 -0.1041
  257MOL    C2246614   3.027   7.425   6.293 -0.7323  0.5418 -0.4529
  257MOL    O2346615   2.961   7.328   6.323  0.2416 -0.0957 -0.2221
  257MOL    O2446616   3.013   7.504   6.183  0.5443  0.0149 -0.6728
  257MOL    H2546617   3.004   7.644   6.388 -0.9332 -2.1561  0.3126
  257MOL    H2646618   3.029   7.571   6.546  0.7024  1.5226  0.9428
  257MOL    H2746619   3.210   7.532   6.312 -1.5411  2.0105  0.6534
  257MOL    H2846620   2.939   7.474   6.133  1.5804 -0.9960 -1.6474
  257MOL    C2946621   3.200   7.383   6.473 -0.2045 -0.6539 -0.2619
  257MOL    C3046622   3.302   7.281   6.422 -0.1801  0.3278  0.3206
  257MOL    C3146623   3.307   7.163   6.518  0.5156  0.7112 -0.2889
  257MOL    O3246624   3.263   7.050   6.491  0.4162  0.1419  0.2972
  257MOL    O3346625   3.354   7.201   6.638  0.4333 -0.1765 -0.7881
  257MOL    H3446626   3.114   7.329   6.512  0.0269 -0.2818  0.7717
  257MOL    H3546627   3.243   7.434   6.559 -0.7371 -1.1742  0.3121
  257MOL    H3646628   3.257   7.236   6.334 -3.0231  0.3899  1.6540
  257MOL    H3746629   3.365   7.122   6.688 -1.1415 -0.4461 -0.8549
  257MOL    C3846630   3.445   7.349   6.410 -0.1019 -0.5021  0.8467
  257MOL    C3946631   3.479   7.392   6.268  0.1317  0.0397 -0.4247
  257MOL    C4046632   3.470   7.281   6.168 -0.1115 -1.5677 -0.0404
  257MOL    O4146633   3.525   7.177   6.192  0.7136  0.0262  0.3017
  257MOL    O4246634   3.415   7.320   6.050 -0.6531  1.2949 -0.1304
  257MOL    H4346635   3.523   7.278   6.439  1.8098  1.7923  1.4767
  257MOL    H4446636   3.442   7.432   6.481  0.7334 -0.4062  0.7821
  257MOL    H4546637   3.405   7.465   6.237  1.1621  0.3807 -2.1388
  257MOL    H4646638   3.428   7.251   5.987 -1.0336  1.6898 -0.6424
  257MOL    C4746639   3.616   7.465   6.269 -0.7497 -0.1215 -0.0191
  257MOL    C4846640   3.652   7.557   6.150 -0.3317  0.1302 -0.7178
  257MOL    C4946641   3.720   7.494   6.024  1.0027  0.1951  1.0235
  257MOL    O5046642   3.730   7.370   6.014 -0.3434 -0.4422  0.2046
  257MOL    O5146643   3.773   7.579   5.932 -0.7575  0.2273  0.0849
  257MOL    H5246644   3.692   7.390   6.289 -0.6609 -0.5248 -1.7348
  257MOL    H5346645   3.616   7.521   6.362  1.3372 -1.2657  0.6940
  257MOL    H5446646   3.558   7.603   6.119 -0.0919  0.7198 -0.5809
  257MOL    H5546647   3.832   7.526   5.881 -0.8543  0.1123  0.0901
  257MOL    C5646648   3.719   7.681   6.205 -0.0780 -0.1229  0.5727
  257MOL    C5746649   3.639   7.789   6.285 -0.3641 -0.0160 -0.8354
  257MOL    C5846650   3.580   0.028   6.178 -0.1269 -0.6220  0.3225
  257MOL    O5946651   3.464   0.058   6.174  0.7068  0.0704 -0.0961
  257MOL    O6046652   3.677   0.077   6.095  0.4854  0.2986 -0.0986
  257MOL    H6146653   3.776   7.732   6.126 -3.0324  2.4248 -0.0065
  257MOL    H6246654   3.792   7.637   6.273 -1.5748  0.4247  2.5434
  257MOL    H6346655   3.560   7.741   6.342  0.6519 -0.8138 -0.0871
  257MOL    H6446656   3.633   0.139   6.039  1.5851  0.4524 -0.8015
  257MOL    C6546657   3.726   0.024   6.383 -0.3778  1.4862 -0.2976
  257MOL    C6646658   3.821   7.799   6.483  0.0151 -0.4041 -0.0311
  257MOL    C6746659   3.758   7.682   6.562 -0.7567  0.5532  0.2929
  257MOL    O6846660   3.820   7.583   6.595 -0.2523  0.0147 -0.2749
  257MOL    O6946661   3.628   7.711   6.599 -0.3471 -0.2658  0.9903
  257MOL    H7046662   3.672   0.098   6.442  0.6867  0.9965  1.3331
  257MOL    H7146663   3.792   0.085   6.321 -0.1188 -1.2615 -2.8526
  257MOL    H7246664   3.887   7.755   6.409  2.4733  0.5754  1.5067
  257MOL    H7346665   3.601   7.643   6.659  0.4732  0.6851  2.4724
  257MOL    C7446666   3.927   0.033   6.555 -0.3901 -0.5898 -0.2352
  257MOL    C7546667   3.898   0.066   6.709  0.2605  0.0304  0.0039
  257MOL    C7646668   3.772   0.161   6.715 -0.3193  0.0654 -0.0819
  257MOL    O7746669   3.734   0.236   6.623 -0.7240  0.2485  0.4878
  257MOL    O7846670   3.715   0.164   6.838  0.3208 -0.0729  0.4602
  257MOL    H7946671   3.962   0.122   6.502 -0.6754 -1.2277 -1.5238
  257MOL    H8046672   4.011   7.817   6.552 -1.3546 -1.7433 -3.2724
  257MOL    H8146673   3.871   7.825   6.757 -1.5330  1.0084  0.9532
  257MOL    H8246674   3.633   0.210   6.828 -0.4128 -1.3357  0.5195
  257MOL    C8346675   4.016   0.130   6.795  0.7379 -0.5321  0.6682
  257MOL    C8446676   4.066   0.268   6.763  0.1788 -1.1442  0.4307
  257MOL    C8546677   4.202   0.256   6.703  0.4584  0.4046  0.4578
  257MOL    O8646678   4.285   0.193   6.764 -0.0564  0.2936 -0.0319
  257MOL    O8746679   4.214   0.320   6.581 -0.2030 -0.0505  0.0741
  257MOL    H8846680   4.097   0.057   6.784  1.0082 -0.2130  0.5494
  257MOL    H8946681   3.991   0.125   6.901 -0.0819  1.0198  0.5581
  257MOL    H9046682   3.999   0.311   6.689  1.1532 -0.6587 -0.1859
  257MOL    H9146683   4.304   0.309   6.556  0.5393  0.6315  2.3866
  257MOL    C9246684   4.078   0.370   6.886  0.6448  0.1172 -0.9282
  257MOL    C9346685   3.948   0.428   6.948 -0.2358 -0.1788 -0.9603
  257MOL    C9446686   3.876   0.525   6.858  0.6683 -0.1064 -0.4916
  257MOL    O9546687   3.927   0.562   6.754  0.3291 -0.6765 -0.3671
  257MOL    O9646688   3.761   0.568   6.914 -0.1806  0.5213  0.6032
  257MOL    H9746689   4.120   0.463   6.848 -2.3987  2.3209  0.9269
  257MOL    H9846690   4.152   0.343   6.961 -1.6808 -2.6976  0.4780
  257MOL    H9946691   3.886   0.340   6.967 -2.3523  1.2129 -1.2917
  257MOL   H10046692   3.705   0.628   6.869 -0.1808  0.1102  0.0521
  257MOL   C10146693   3.973   0.495   7.087 -0.3403 -0.5392 -0.7924
  257MOL   C10246694   3.997   0.409   7.210 -0.2007  0.2280  0.3573
  257MOL   C10346695   3.875   0.316   7.238  0.0387  0.5647  0.8375
  257MOL   O10446696   3.755   0.349   7.216  0.3865  0.0547  0.6115
  257MOL   O10546697   3.912   0.211   7.314  0.3829  0.2880 -0.5010
  257MOL   H10646698   3.901   0.576   7.102  0.1463 -0.4262  1.0607
  257MOL   H10746699   4.050   0.571   7.075 -0.2119 -0.3292  1.2180
  257MOL   H10846700   4.084   0.344   7.196  0.6386  1.6160 -1.0210
  257MOL   H10946701   3.834   0.162   7.339  0.6623  0.2568  0.3185
  257MOL   C11046702   4.012   0.501   7.331 -0.0696  0.4665  0.0818
  257MOL   C11146703   4.149   0.568   7.352  0.4351 -0.3009  0.0271
  257MOL   C11246704   4.241   0.487   7.442 -0.4951 -0.3190  0.0591
  257MOL   O11346705   4.306   0.535   7.534  0.5385  0.0756 -0.1007
  257MOL   O11446706   4.248   0.362   7.393 -0.1889 -0.1252 -0.3073
  257MOL   H11546707   3.988   0.444   7.420  0.3079 -1.6416 -1.1214
  257MOL   H11646708   3.940   0.583   7.328  0.3024  0.7650 -1.0657
  257MOL   H11746709   4.204   0.565   7.258 -0.7707 -1.2863 -0.6605
  257MOL   H11846710   4.312   0.319   7.448 -0.9804 -1.9462 -0.7624
  257MOL   C11946711   4.133   0.714   7.402 -0.2186 -0.3178 -0.3709
  257MOL   C12046712   4.231   0.819   7.338 -0.1610 -0.4262 -0.6604
  257MOL   C12146713   4.244   0.942   7.436 -0.1012 -0.7402  0.7465
  257MOL   O12246714   4.187   1.049   7.420 -0.0662 -0.7604 -0.0493
  257MOL   O12346715   4.325   0.917   7.543 -0.3440 -0.1643  0.1520
  257MOL   H12446716   4.134   0.725   7.511 -2.4590 -0.3277 -0.3411
  257MOL   H12546717   4.035   0.746   7.368 -0.0581  0.4447 -0.1261
  257MOL   H12646718   4.324   0.764   7.322 -1.2811 -1.6542 -3.3692
  257MOL   H12746719   4.322   0.990   7.603 -0.3016  0.5642 -0.7293
  257MOL   C12846720   4.180   0.884   7.204 -0.0081 -0.1577 -0.6906
  257MOL   C12946721   4.286   0.951   7.122  0.1001 -0.3332 -0.3370
  257MOL   C13046722   4.249   1.093   7.072 -0.1734  0.3162  0.3119
  257MOL   O13146723   4.323   1.189   7.092 -0.2321 -0.2506 -0.4269
  257MOL   O13246724   4.142   1.093   6.983  0.1731 -0.2036  0.4293
  257MOL   H13346725   4.096   0.947   7.233 -0.4949  0.1011 -2.5635
  257MOL   H13446726   4.145   0.798   7.146 -1.0584  0.2184 -0.6337
  257MOL   H13546727   4.371   0.971   7.187 -2.2536  0.5574  2.5455
  257MOL   H13646728   4.123   1.176   6.941 -0.4287  0.2119  1.4984
  257MOL   C13746729   4.330   0.870   6.997  0.5943 -0.2476 -0.1854
  257MOL   C13846730   4.406   0.744   7.014 -0.3687  0.6808 -0.1043
  257MOL   C13946731   4.540   0.775   7.082 -0.2259  0.0431 -0.3789
  257MOL   O14046732   4.636   0.811   7.014 -0.1459 -0.2333  0.0843
  257MOL   O14146733   4.550   0.732   7.212  0.2239 -0.3584  0.3703
  257MOL   H14246734   4.389   0.936   6.933  0.4151  1.3257  1.2514
  257MOL   H14346735   4.244   0.836   6.939  0.1893  0.8172 -0.2285
  257MOL   H14446736   4.347   0.674   7.073  0.4233  0.1127  0.0208
  257MOL   H14546737   4.627   0.751   7.264 -1.2044  0.2463  2.3412
  257MOL   C14646738   4.429   0.694   6.862  0.3367  0.3078  0.2678
  257MOL   C14746739   4.534   0.580   6.838  0.4836 -0.1840  0.1471
  257MOL   C14846740   4.562   0.566   6.690  0.0206 -0.2936  0.6392
  257MOL   O14946741   4.674   0.559   6.631  0.5564  0.5402 -0.8393
  257MOL   O15046742   4.449   0.564   6.616 -0.2719 -0.0152  0.2633
  257MOL   H15146743   4.443   0.782   6.799 -0.6530 -0.6536 -1.3359
  257MOL   H15246744   4.333   0.652   6.832  0.2596  2.2709 -2.4617
  257MOL   H15346745   4.631   0.622   6.866 -0.2178  1.9316 -0.4824
  257MOL   H15446746   4.459   0.575   6.523  0.3464  3.1757  0.6624
  257MOL   C15546747   4.506   0.444   6.906  0.2103  0.4337  0.1023
  257MOL   C15646748   4.638   0.375   6.962  0.4485  0.7431 -0.2694
  257MOL   C15746749   4.720   0.300   6.862  0.1191 -0.3278 -0.0191
  257MOL   O15846750   4.680   0.273   6.749 -0.0068  0.0241 -0.0162
  257MOL   O15946751   4.832   0.250   6.924 -0.5353 -0.4732 -0.4460
  257MOL   H16046752   4.439   0.384   6.845 -1.5206  2.6772 -0.2469
  257MOL   H16146753   4.434   0.469   6.984 -0.1252 -0.1864 -0.0013
  257MOL   H16246754   4.705   0.455   6.993  1.5722 -0.1450 -0.3796
  257MOL   H16346755   4.869   0.184   6.867  1.1611  1.5436 -1.7143
  257MOL   C16446756   4.605   0.292   7.095 -0.0258 -0.0372 -1.0913
  257MOL   C16546757   4.512   0.166   7.067 -0.1579 -0.0888 -0.1185
  257MOL   C16646758   4.427   0.134   7.195 -0.8329  0.2061  0.3430
  257MOL   O16746759   4.461   0.166   7.308 -0.1575 -0.2788 -0.2198
  257MOL   O16846760   4.325   0.059   7.166  0.1360  0.0603  0.0145
  257MOL   H16946761   4.558   0.354   7.172 -0.7876 -0.6544 -1.0524
  257MOL   H17046762   4.698   0.252   7.137 -1.4750 -0.5736  1.7328
  257MOL   H17146763   4.442   0.199   6.991  1.3528 -0.9271 -1.9070
  257MOL   H17246764   4.296   0.033   7.253  2.5763  0.1964  0.9112
  257MOL   C17346765   4.578   0.033   7.024  0.7725 -0.9057 -0.0109
  257MOL   C17446766   4.693   7.830   7.108 -0.2212 -0.8435  0.1555
  257MOL   C17546767   4.664   7.765   7.238 -0.3161 -0.4137  0.1554
  257MOL   O17646768   4.561   7.700   7.246  0.5025  0.6045 -0.3168
  257MOL   O17746769   4.763   7.780   7.331  0.3674  0.1115  0.6272
  257MOL   H17846770   4.604   0.047   6.919 -0.8125  0.7485 -0.2030
  257MOL   H17946771   4.501   7.809   7.016 -0.6349  0.5487 -0.6465
  257MOL   H18046772   4.743   7.749   7.055  0.2225  1.7267 -3.4910
  257MOL   H18146773   4.766   7.730   7.411 -0.1421 -2.0567 -0.6798
  257MOL   H18246774   4.771   0.053   7.112 -0.9712  0.1252 -2.3463
  258MOL     C146775   5.124   1.359   2.044  0.4560  0.5333  0.2322
  258MOL     C246776   5.011   1.443   2.098 -0.2681  0.1578 -0.1826
  258MOL     C346777   4.959   1.394   2.234  0.1692 -0.2839  0.2884
  258MOL     O446778   4.962   1.279   2.279  0.3278  0.3817 -0.0588
  258MOL     O546779   4.925   1.500   2.307  0.1018  0.2040 -0.0524
  258MOL     H646780   5.179   1.412   1.967 -0.8761  1.1882 -0.2895
  258MOL     H746781   5.197   1.343   2.123 -0.5698  2.2995  1.5914
  258MOL     H846782   5.060   1.538   2.116 -0.4496  0.2117  0.0361
  258MOL     H946783   4.897   1.484   2.395  0.4491 -1.6252 -0.2539
  258MOL    H1046784   5.086   1.264   2.007  0.3288  0.6788 -0.0118
  258MOL    C1146785   4.907   1.444   1.991  0.1290  0.5114  0.3432
  258MOL    C1246786   4.940   1.486   1.846  0.2245  0.1830  0.6988
  258MOL    C1346787   5.014   1.622   1.852  0.1061 -0.1174 -0.4714
  258MOL    O1446788   5.135   1.630   1.823  0.2772  0.3549  0.2706
  258MOL    O1546789   4.940   1.724   1.898  0.1644 -0.3036  0.1958
  258MOL    H1646790   4.818   1.494   2.029 -2.5215 -1.3823 -3.0792
  258MOL    H1746791   4.872   1.340   1.990 -1.6329  1.0890  0.9275
  258MOL    H1846792   5.001   1.415   1.789 -1.0703 -0.1791 -0.2700
  258MOL    H1946793   4.994   1.801   1.906 -0.3868  0.0804  0.2367
  258MOL    C2046794   4.826   1.484   1.747  0.5030 -0.0352  0.4593
  258MOL    C2146795   4.766   1.345   1.710  0.1061  0.9691 -0.3269
  258MOL    C2246796   4.872   1.239   1.664  0.1379  0.3160 -0.3908
  258MOL    O2346797   4.878   1.206   1.549 -0.7797  0.3948 -0.6653
  258MOL    O2446798   4.943   1.184   1.768 -0.0579 -0.1719  0.0477
  258MOL    H2546799   4.848   1.528   1.650 -0.6063  2.4322  1.2637
  258MOL    H2646800   4.742   1.543   1.785 -0.6642 -0.7708 -0.9544
  258MOL    H2746801   4.724   1.310   1.804 -0.0289  0.2060 -0.6697
  258MOL    H2846802   5.001   1.117   1.737  0.2839 -0.1349  0.5973
  258MOL    C2946803   4.653   1.366   1.608 -0.2046 -0.3057  0.7229
  258MOL    C3046804   4.531   1.274   1.646 -0.4344 -0.1441  0.1942
  258MOL    C3146805   4.450   1.263   1.520 -0.2999 -0.4993  0.2809
  258MOL    O3246806   4.378   1.356   1.485  0.2663  0.1580 -0.2131
  258MOL    O3346807   4.488   1.148   1.448  0.0975 -0.1524  0.5575
  258MOL    H3446808   4.681   1.344   1.505 -1.3263 -1.5609  0.6671
  258MOL    H3546809   4.625   1.471   1.596 -1.6688 -0.9264 -1.6593
  258MOL    H3646810   4.584   1.183   1.671  1.5839  0.9699  0.1149
  258MOL    H3746811   4.451   1.153   1.361  1.4190  0.8496  0.0398
  258MOL    C3846812   4.461   1.320   1.777  0.6537 -0.5633 -0.2396
  258MOL    C3946813   4.420   1.215   1.879  0.2225 -0.0288 -0.1613
  258MOL    C4046814   4.330   1.114   1.804  0.4365  0.6719  0.3684
  258MOL    O4146815   4.212   1.129   1.780  0.4748  0.4576  0.1897
  258MOL    O4246816   4.393   1.002   1.771 -0.3393 -0.4969  0.9100
  258MOL    H4346817   4.375   1.378   1.745  1.7069 -0.3435 -2.8288
  258MOL    H4446818   4.520   1.388   1.838  0.4760 -0.0593 -0.6297
  258MOL    H4546819   4.511   1.162   1.906  1.7733  0.5842 -3.9624
  258MOL    H4646820   4.322   0.970   1.718  0.5475  0.5618 -0.9979
  258MOL    C4746821   4.350   1.277   1.998  0.2758  0.2181  0.0969
  258MOL    C4846822   4.348   1.196   2.130 -0.4935 -0.5025  0.2794
  258MOL    C4946823   4.285   1.064   2.116 -0.1086  0.9048 -0.0382
  258MOL    O5046824   4.164   1.047   2.123  0.2640 -0.6105 -0.2440
  258MOL    O5146825   4.374   0.966   2.094  1.2576 -0.5737  0.2178
  258MOL    H5246826   4.245   1.285   1.973 -0.0543 -0.2684  1.3061
  258MOL    H5346827   4.393   1.373   2.025  1.5808 -0.3308  0.0498
  258MOL    H5446828   4.454   1.178   2.148 -0.0470  0.4156 -1.3475
  258MOL    H5546829   4.313   0.894   2.084  0.3322  0.0046  1.5602
  258MOL    C5646830   4.291   1.284   2.246 -0.2132  0.2493 -0.4063
  258MOL    C5746831   4.275   1.234   2.387 -0.0877 -0.2433 -0.9638
  258MOL    C5846832   4.217   1.346   2.479  0.6360 -0.6846  0.6411
  258MOL    O5946833   4.176   1.456   2.439 -0.7237  0.1721  0.2495
  258MOL    O6046834   4.225   1.315   2.611 -0.0943 -0.0339 -0.3952
  258MOL    H6146835   4.185   1.296   2.223 -0.7673  0.8696  2.2621
  258MOL    H6246836   4.332   1.385   2.240  0.5619 -0.0357 -0.0071
  258MOL    H6346837   4.201   1.156   2.376  0.5423 -0.5357 -3.4686
  258MOL    H6446838   4.194   1.392   2.656  1.7873  0.2133  0.4951
  258MOL    C6546839   4.402   1.166   2.440  0.0208  0.0430 -0.6018
  258MOL    C6646840   4.527   1.257   2.450  0.0714  0.4362  0.5740
  258MOL    C6746841   4.644   1.184   2.378  0.0890 -0.8794  0.1944
  258MOL    O6846842   4.723   1.100   2.425 -0.1340  0.1766 -0.0072
  258MOL    O6946843   4.652   1.227   2.251  0.5010  0.3561  0.4464
  258MOL    H7046844   4.414   1.091   2.361 -1.6597 -0.6009 -0.2661
  258MOL    H7146845   4.389   1.110   2.533  0.7708 -0.0323 -0.5400
  258MOL    H7246846   4.503   1.358   2.417 -0.5513 -0.8162 -3.0078
  258MOL    H7346847   4.598   1.297   2.215  2.7985  2.5240  1.0524
  258MOL    C7446848   4.556   1.277   2.607  0.1650  0.5430 -0.1112
  258MOL    C7546849   4.645   1.401   2.634  0.4174  0.1073 -0.4581
  258MOL    C7646850   4.798   1.370   2.621  0.8103  0.3100 -0.8691
  258MOL    O7746851   4.873   1.444   2.556 -0.4728 -0.0794  0.7244
  258MOL    O7846852   4.831   1.262   2.692 -0.0609 -0.2969 -0.1168
  258MOL    H7946853   4.596   1.182   2.642 -1.5831  0.0035  0.5131
  258MOL    H8046854   4.463   1.294   2.662  0.2939 -2.0694  0.9873
  258MOL    H8146855   4.610   1.491   2.586 -1.1092  0.9638  2.1770
  258MOL    H8246856   4.924   1.245   2.691 -0.0649 -0.7595  3.0141
  258MOL    C8346857   4.623   1.463   2.785 -0.7209 -0.3380 -0.1604
  258MOL    C8446858   4.586   1.609   2.800  0.2025 -0.5077  0.1508
  258MOL    C8546859   4.450   1.643   2.739 -0.3250  0.0782 -0.1503
  258MOL    O8646860   4.361   1.552   2.732 -0.6372  0.2563  0.5567
  258MOL    O8746861   4.441   1.770   2.687 -0.0398 -0.3247 -0.4470
  258MOL    H8846862   4.708   1.446   2.852 -0.1171  1.2956 -0.5029
  258MOL    H8946863   4.543   1.407   2.835 -2.6378  2.3369 -0.1427
  258MOL    H9046864   4.562   1.624   2.905 -0.5378 -0.6773  0.0095
  258MOL    H9146865   4.371   1.789   2.627  0.6367  0.4080 -1.0102
  258MOL    C9246866   4.698   1.711   2.750  0.1867  0.4022  0.4661
  258MOL    C9346867   4.717   1.840   2.836 -0.5814 -0.4488  0.5660
  258MOL    C9446868   4.805   1.936   2.754  0.4737 -0.5069  0.3137
  258MOL    O9546869   4.758   2.045   2.712 -0.3346 -0.3071  0.0478
  258MOL    O9646870   4.933   1.892   2.719 -0.1328 -0.0720  0.0065
  258MOL    H9746871   4.679   1.737   2.645 -0.1888 -0.8265  0.2204
  258MOL    H9846872   4.795   1.661   2.746 -1.4911 -2.8532 -1.6083
  258MOL    H9946873   4.623   1.893   2.848 -0.4425 -0.0320 -0.1484
  258MOL   H10046874   4.952   1.806   2.754  2.0282 -0.3725 -1.8049
  258MOL   C10146875   4.787   1.826   2.975 -0.5534 -0.9178 -0.0991
  258MOL   C10246876   4.726   1.902   3.097  0.1389 -0.0484 -0.2181
  258MOL   C10346877   4.808   1.876   3.227  0.1251  0.1228 -0.0345
  258MOL   O10446878   4.847   1.964   3.299 -0.0624  0.2267 -0.7948
  258MOL   O10546879   4.819   1.741   3.255  0.1320 -0.2259  0.0263
  258MOL   H10646880   4.896   1.837   2.967 -0.8709  0.5928 -2.9868
  258MOL   H10746881   4.771   1.724   3.009 -2.8583  0.0356  1.7874
  258MOL   H10846882   4.745   2.005   3.068  2.2776  0.2669  2.1737
  258MOL   H10946883   4.869   1.742   3.335  0.3898 -2.9852 -0.0343
  258MOL   C11046884   4.571   1.867   3.107 -0.0740 -0.8135 -0.6599
  258MOL   C11146885   4.467   1.967   3.159 -0.8770 -0.0287 -0.7979
  258MOL   C11246886   4.476   2.090   3.064 -0.5030  0.0137  0.2092
  258MOL   O11346887   4.518   2.196   3.101  0.0890 -0.4975  0.8371
  258MOL   O11446888   4.441   2.055   2.942  0.0529 -0.0049 -0.7013
  258MOL   H11546889   4.562   1.787   3.181 -1.1175  0.6016  0.7505
  258MOL   H11646890   4.526   1.825   3.017 -1.6181  2.2191 -1.3679
  258MOL   H11746891   4.365   1.928   3.161  0.1853 -3.0990 -2.9546
  258MOL   H11846892   4.462   2.128   2.886  2.0438  2.5999  3.2202
  258MOL   C11946893   4.501   2.002   3.305  0.0481  0.1191 -0.2586
  258MOL   C12046894   4.397   2.086   3.378 -0.7611 -0.3320  0.2622
  258MOL   C12146895   4.446   2.119   3.522  0.4894  1.2408 -0.6233
  258MOL   O12246896   4.545   2.070   3.571 -0.1223 -0.0497  0.2939
  258MOL   O12346897   4.362   2.210   3.580  0.3011  0.1430  0.0801
  258MOL   H12446898   4.600   2.048   3.317  0.1866  0.3619 -2.1242
  258MOL   H12546899   4.514   1.907   3.356 -1.3801  0.4353  0.7228
  258MOL   H12646900   4.391   2.189   3.341  1.3156  0.3128  1.6176
  258MOL   H12746901   4.297   2.237   3.517  0.7012  2.7602  0.7269
  258MOL   C12846902   4.254   2.018   3.375  0.4320 -0.1496 -0.0167
  258MOL   C12946903   4.147   2.079   3.286  0.7477 -0.2896 -0.5130
  258MOL   C13046904   4.101   2.213   3.351 -0.3582  0.1378  0.2884
  258MOL   O13146905   4.170   2.283   3.427  0.1115  0.1513 -0.6003
  258MOL   O13246906   3.975   2.243   3.308 -0.0521 -0.1023  0.1590
  258MOL   H13346907   4.214   2.017   3.476 -0.8950  3.2257 -0.4341
  258MOL   H13446908   4.273   1.914   3.348  0.7771  0.0253 -0.4487
  258MOL   H13546909   4.193   2.117   3.195  1.8851  2.0238  0.9665
  258MOL   H13646910   3.950   2.327   3.344  1.4574  0.0730  0.8507
  258MOL   C13746911   4.023   1.986   3.256 -0.8354  0.4936  0.9151
  258MOL   C13846912   3.938   1.934   3.378 -0.5378  0.0742 -0.2346
  258MOL   C13946913   4.025   1.848   3.482  0.0409 -0.0349  0.0587
  258MOL   O14046914   4.104   1.763   3.451  0.0752  0.0452 -0.1595
  258MOL   O14146915   3.985   1.868   3.607  0.6751  0.5886 -0.2095
  258MOL   H14246916   4.066   1.897   3.210  0.0434 -0.1359  2.8684
  258MOL   H14346917   3.964   2.027   3.174 -3.5224  1.5776  3.3129
  258MOL   H14446918   3.903   2.019   3.436 -0.6012  1.4019 -2.1588
  258MOL   H14546919   4.032   1.812   3.667 -1.1535 -0.4926  0.2408
  258MOL   C14646920   3.816   1.860   3.331  0.3384 -0.0376  0.8230
  258MOL   C14746921   3.681   1.886   3.404  0.6557  0.3271 -0.5370
  258MOL   C14846922   3.626   2.029   3.394 -0.1698 -0.2998  0.1541
  258MOL   O14946923   3.687   2.123   3.444 -0.1670  0.0597  0.4611
  258MOL   O15046924   3.497   2.025   3.341  0.4806 -0.3779 -0.2344
  258MOL   H15146925   3.834   1.752   3.331 -0.7868 -0.2357 -0.3610
  258MOL   H15246926   3.807   1.892   3.228 -0.3644  1.0731  1.2276
  258MOL   H15346927   3.604   1.826   3.355  1.9111  0.3987 -2.6971
  258MOL   H15446928   3.461   2.113   3.337 -2.2335 -1.4898 -1.3218
  258MOL   C15546929   3.670   1.836   3.551 -0.7267 -0.4284 -0.0066
  258MOL   C15646930   3.680   1.687   3.568  0.6143 -0.1770 -0.4446
  258MOL   C15746931   3.566   1.615   3.490  0.1408  0.1851 -0.4635
  258MOL   O15846932   3.449   1.622   3.516  0.3712 -0.0620 -0.1534
  258MOL   O15946933   3.610   1.545   3.383 -0.4285  0.3610 -0.3996
  258MOL   H16046934   3.571   1.846   3.596 -0.5111 -2.4373  0.9424
  258MOL   H16146935   3.739   1.889   3.617 -0.5222  2.5105 -2.4375
  258MOL   H16246936   3.777   1.648   3.539 -0.5791 -4.4890  0.9300
  258MOL   H16346937   3.558   1.487   3.329 -0.7703  2.1866 -2.1037
  258MOL   C16446938   3.673   1.654   3.722  0.1178  0.0716  0.1883
  258MOL   C16546939   3.657   1.509   3.768  0.0679 -0.2269  0.8644
  258MOL   C16646940   3.648   1.499   3.914  0.8335  0.8475 -0.5888
  258MOL   O16746941   3.538   1.513   3.982  0.4644 -0.1644 -0.3438
  258MOL   O16846942   3.769   1.479   3.976 -0.2543  0.2537  0.1400
  258MOL   H16946943   3.590   1.709   3.766  2.9789  3.1255  2.0357
  258MOL   H17046944   3.756   1.703   3.773  0.7958 -0.6010 -0.2633
  258MOL   H17146945   3.563   1.473   3.725 -0.0654  1.1220  0.0099
  258MOL   H17246946   3.733   1.486   4.064 -0.1836  1.8048  0.0590
  258MOL   C17346947   3.759   1.409   3.714  0.0014 -0.0373  0.5978
  258MOL   C17446948   3.737   1.263   3.753  0.2830 -0.1733  0.8355
  258MOL   C17546949   3.845   1.156   3.736 -0.2269 -0.0721  0.3793
  258MOL   O17646950   3.830   1.038   3.760 -0.3896 -0.0140 -0.9028
  258MOL   O17746951   3.954   1.211   3.678  0.4121  0.0793  0.5772
  258MOL   H17846952   3.863   1.436   3.734  0.7120 -3.0219  1.0979
  258MOL   H17946953   3.743   1.424   3.607  1.8388  1.2789  0.4734
  258MOL   H18046954   3.712   1.257   3.859 -2.2917 -0.0946  0.2517
  258MOL   H18146955   4.027   1.151   3.670  1.2084  1.1751 -0.5009
  258MOL   H18246956   3.661   1.217   3.691  2.8019  0.1127 -2.6342
  259MOL     C146957   4.229   1.692   5.232  0.0660  0.2057  0.0992
  259MOL     C246958   4.111   1.798   5.237 -0.1178  0.6328  0.9855
  259MOL     C346959   3.979   1.722   5.263  0.0273  0.0580  0.4026
  259MOL     O446960   3.949   1.611   5.225 -0.4697  0.1157 -0.1951
  259MOL     O546961   3.902   1.792   5.350 -0.1682 -0.0235  0.5116
  259MOL     H646962   4.240   1.651   5.131  0.6730 -0.3053  0.3723
  259MOL     H746963   4.324   1.732   5.267 -0.2957  0.3864  0.8685
  259MOL     H846964   4.119   1.859   5.327  1.1337  0.9474  0.6805
  259MOL     H946965   3.934   1.876   5.379 -0.8817 -0.4456  2.5581
  259MOL    H1046966   4.203   1.602   5.286 -2.7544  0.4941 -0.7189
  259MOL    C1146967   4.097   1.896   5.118 -0.0494 -0.2392  0.0782
  259MOL    C1246968   4.211   1.996   5.101 -0.3095  0.3286  0.2714
  259MOL    C1346969   4.191   2.125   5.184  0.1635 -0.1991 -0.4882
  259MOL    O1446970   4.201   2.241   5.146  0.0058 -0.1227  0.0470
  259MOL    O1546971   4.150   2.090   5.306 -0.2446  0.4349  0.1224
  259MOL    H1646972   4.000   1.944   5.106  0.2096  0.2560 -0.0582
  259MOL    H1746973   4.101   1.833   5.029 -1.6379  0.7579 -0.7294
  259MOL    H1846974   4.296   1.945   5.147 -0.4588  0.4728  0.7096
  259MOL    H1946975   4.133   2.172   5.350 -0.3364  0.2022  0.5267
  259MOL    C2046976   4.247   2.023   4.953 -0.0096  0.0116  0.5794
  259MOL    C2146977   4.399   2.025   4.909 -0.7681 -0.0666 -1.3931
  259MOL    C2246978   4.453   1.883   4.877  0.3682 -0.1381 -0.1325
  259MOL    O2346979   4.537   1.867   4.789  0.0713 -0.4459  0.3538
  259MOL    O2446980   4.406   1.790   4.959 -0.4705  0.1292  0.0348
  259MOL    H2546981   4.222   2.126   4.929 -0.8337 -0.3818 -0.2830
  259MOL    H2646982   4.188   1.960   4.886 -0.2444  1.7105 -0.8441
  259MOL    H2746983   4.397   2.068   4.809  0.3473  0.0056 -1.3876
  259MOL    H2846984   4.438   1.705   4.931  2.2947  1.1402 -0.0388
  259MOL    C2946985   4.497   2.099   5.004  0.6653  0.1988 -0.5085
  259MOL    C3046986   4.651   2.094   4.962  0.2501 -0.4861 -0.3484
  259MOL    C3146987   4.738   1.984   5.033 -0.3567  0.2073  0.2634
  259MOL    O3246988   4.697   1.875   5.067  0.3755  0.0415 -0.0588
  259MOL    O3346989   4.868   2.023   5.037  0.4083  0.4501 -0.2386
  259MOL    H3446990   4.489   2.065   5.107 -0.1385  2.6959  0.2753
  259MOL    H3546991   4.471   2.205   4.997  1.3271  0.5300  1.7681
  259MOL    H3646992   4.660   2.069   4.856  1.4315  2.0720 -0.8726
  259MOL    H3746993   4.929   1.959   5.069  0.4030 -0.9646 -2.9894
  259MOL    C3846994   4.712   2.238   4.962  0.3779 -0.3380  0.4439
  259MOL    C3946995   4.748   2.309   5.098 -0.0935 -0.4038  0.4820
  259MOL    C4046996   4.668   2.281   5.230  0.1813  0.5589 -0.4145
  259MOL    O4146997   4.712   2.205   5.317  0.2883 -0.0099 -0.3195
  259MOL    O4246998   4.555   2.350   5.251  0.6396 -0.5264 -0.2023
  259MOL    H4346999   4.649   2.306   4.906 -0.1371 -0.4466  0.8918
  259MOL    H4447000   4.798   2.231   4.894 -0.9451  1.7059 -1.5115
  259MOL    H4547001   4.851   2.283   5.121  0.0102  0.4837  1.0838
  259MOL    H4647002   4.522   2.325   5.336 -0.5771 -0.3034 -0.6067
  259MOL    C4747003   4.752   2.461   5.064  0.3664  0.6304 -0.3993
  259MOL    C4847004   4.845   2.563   5.143 -0.0217 -0.1043  0.1212
  259MOL    C4947005   4.995   2.515   5.134  0.9734 -1.0004 -0.0065
  259MOL    O5047006   5.074   2.574   5.060  0.3139 -0.0711 -0.2906
  259MOL    O5147007   5.030   2.417   5.220 -0.1595  0.3487 -0.1012
  259MOL    H5247008   4.651   2.501   5.058 -0.8461 -2.1044  0.8142
  259MOL    H5347009   4.785   2.476   4.961 -1.6090  2.3904 -0.8175
  259MOL    H5447010   4.837   2.652   5.081  2.5955 -0.0448 -0.1963
  259MOL    H5547011   5.123   2.407   5.205 -0.4205 -0.5693 -1.1521
  259MOL    C5647012   4.807   2.605   5.291 -0.1099 -0.5660 -0.8672
  259MOL    C5747013   4.852   2.743   5.340  0.4119 -0.2280  0.0153
  259MOL    C5847014   4.784   2.858   5.266  0.1377  0.5959 -0.8488
  259MOL    O5947015   4.842   2.957   5.213 -0.1819 -0.1422  0.2996
  259MOL    O6047016   4.653   2.831   5.261 -0.0457  0.5219 -0.0791
  259MOL    H6147017   4.852   2.529   5.355 -0.0167  0.6954  0.6022
  259MOL    H6247018   4.702   2.577   5.299  0.6640 -3.0676  1.3304
  259MOL    H6347019   4.804   2.743   5.438  0.2006  1.4735 -0.0817
  259MOL    H6447020   4.606   2.908   5.233 -2.5327 -0.6597  0.7189
  259MOL    C6547021   5.001   2.759   5.367  0.2660 -0.4252 -0.7344
  259MOL    C6647022   5.050   2.866   5.458  0.3834  0.4307 -0.9928
  259MOL    C6747023   5.204   2.876   5.441 -0.1470  0.0377  0.5311
  259MOL    O6847024   5.286   2.787   5.410  0.3467 -0.6573  0.2543
  259MOL    O6947025   5.247   2.997   5.482  0.0342  0.6723  0.1012
  259MOL    H7047026   5.059   2.759   5.275 -0.2390 -0.7685 -1.0586
  259MOL    H7147027   5.030   2.665   5.415  0.3175  1.5936  3.3531
  259MOL    H7247028   5.004   2.958   5.422  0.3783  0.0215 -2.0515
  259MOL    H7347029   5.341   2.996   5.491 -0.1092 -1.3419  1.7221
  259MOL    C7447030   5.013   2.844   5.610  0.0987  0.5825 -0.7002
  259MOL    C7547031   5.021   2.967   5.706  0.4313  1.4688  0.5409
  259MOL    C7647032   5.147   2.976   5.784 -0.3046 -0.2306  0.0374
  259MOL    O7747033   5.223   2.879   5.782 -0.2947 -0.0768 -0.5787
  259MOL    O7847034   5.163   3.093   5.848 -0.3157 -0.1586 -0.0242
  259MOL    H7947035   5.058   2.750   5.643  2.1516  0.3850 -3.8493
  259MOL    H8047036   4.908   2.814   5.612  0.6836 -1.5099 -0.0033
  259MOL    H8147037   5.010   3.055   5.643 -0.6110 -0.1142 -1.5202
  259MOL    H8247038   5.222   3.099   5.922 -0.3662 -1.3736  0.1257
  259MOL    C8347039   4.899   2.970   5.807 -0.2740  0.4260  0.1793
  259MOL    C8447040   4.757   3.008   5.737  0.1618 -0.6585  0.2236
  259MOL    C8547041   4.728   3.160   5.727  0.0955  0.4147 -0.5221
  259MOL    O8647042   4.779   3.252   5.793 -0.2404  0.7386 -0.0284
  259MOL    O8747043   4.626   3.180   5.637 -0.1550  0.5671  0.1027
  259MOL    H8847044   4.915   3.041   5.888 -0.4767 -0.7601  1.2907
  259MOL    H8947045   4.891   2.873   5.857  0.6159  0.0140 -0.4771
  259MOL    H9047046   4.759   2.972   5.634 -0.7462 -0.2072  0.0438
  259MOL    H9147047   4.607   3.272   5.642 -0.1736  0.4750  2.0809
  259MOL    C9247048   4.642   2.950   5.817  0.4665 -0.6829 -0.8115
  259MOL    C9347049   4.616   2.799   5.801  0.4398 -0.0712 -0.1963
  259MOL    C9447050   4.556   2.764   5.666  0.5509 -0.8557  0.2177
  259MOL    O9547051   4.493   2.844   5.590 -0.2501  0.0405  0.2663
  259MOL    O9647052   4.581   2.640   5.629  0.3251 -0.1205 -0.5826
  259MOL    H9747053   4.546   3.001   5.807  1.2297  1.1284  0.8918
  259MOL    H9847054   4.654   2.973   5.923 -2.5397 -0.6696 -0.4383
  259MOL    H9947055   4.712   2.752   5.821  0.6059  0.5623  0.5506
  259MOL   H10047056   4.536   2.612   5.551 -0.9967 -1.8440  0.7518
  259MOL   C10147057   4.520   2.745   5.918 -0.6859  0.0452 -0.0537
  259MOL   C10247058   4.527   2.796   6.065  0.7713  0.2689  0.4740
  259MOL   C10347059   4.663   2.810   6.129 -0.6548 -0.2922 -0.0762
  259MOL   O10447060   4.700   2.904   6.203  0.4659  0.1479 -0.1973
  259MOL   O10547061   4.740   2.707   6.104  0.1136  0.0689 -0.2082
  259MOL   H10647062   4.520   2.636   5.919  0.1284  0.0344 -0.5151
  259MOL   H10747063   4.416   2.759   5.890 -0.9086  0.2693  0.8830
  259MOL   H10847064   4.475   2.891   6.071 -0.9960 -0.5704 -0.9516
  259MOL   H10947065   4.820   2.715   6.153  0.9271 -1.9944 -1.1516
  259MOL   C11047066   4.448   2.698   6.157 -0.0806  0.0124 -0.2663
  259MOL   C11147067   4.309   2.646   6.121  0.1927 -0.0225 -0.2625
  259MOL   C11247068   4.203   2.744   6.171  0.0798  0.7081 -0.0444
  259MOL   O11347069   4.129   2.723   6.268 -0.0906 -0.4622  0.3685
  259MOL   O11447070   4.194   2.856   6.094  0.1722  0.0181  0.0315
  259MOL   H11547071   4.443   2.746   6.255 -3.1275  1.6738 -1.2043
  259MOL   H11647072   4.502   2.605   6.176 -0.8230 -0.2379  0.6681
  259MOL   H11747073   4.292   2.648   6.013 -0.2389  0.5485 -0.1899
  259MOL   H11847074   4.124   2.908   6.130  1.2429  1.1481  0.4989
  259MOL   C11947075   4.275   2.505   6.176 -0.8825  0.6248  0.2894
  259MOL   C12047076   4.155   2.435   6.100 -0.7550 -0.1162  0.1264
  259MOL   C12147077   4.034   2.397   6.189 -0.0693 -0.5244  0.3911
  259MOL   O12247078   4.032   2.416   6.312  1.0238  0.3740 -0.2626
  259MOL   O12347079   3.931   2.347   6.116  0.0074 -0.0126  0.2903
  259MOL   H12447080   4.261   2.490   6.283 -0.9914 -0.1091  0.1729
  259MOL   H12547081   4.362   2.444   6.151 -0.2540  1.6228 -0.0051
  259MOL   H12647082   4.112   2.519   6.046  0.1278  0.3967  0.2157
  259MOL   H12747083   3.852   2.336   6.166  1.5901 -2.5909  2.3671
  259MOL   C12847084   4.206   2.320   6.006  0.0323  0.4245 -0.1139
  259MOL   C12947085   4.284   2.381   5.889  0.0048  0.8582  0.0889
  259MOL   C13047086   4.202   2.454   5.783  0.2214 -0.2664  0.7517
  259MOL   O13147087   4.082   2.426   5.763  0.3650  0.6444 -0.3613
  259MOL   O13247088   4.276   2.549   5.718  0.2996  0.3033  0.5587
  259MOL   H13347089   4.124   2.256   5.974  0.7254 -0.6665  0.2324
  259MOL   H13447090   4.261   2.248   6.067 -1.3145 -1.2629 -0.8515
  259MOL   H13547091   4.361   2.449   5.924  0.9107  0.0566 -0.3071
  259MOL   H13647092   4.211   2.579   5.656 -1.4848 -0.6768  1.8861
  259MOL   C13747093   4.368   2.263   5.835 -0.1170 -0.5319 -0.1416
  259MOL   C13847094   4.508   2.299   5.774  0.4514  0.2506  0.3128
  259MOL   C13947095   4.504   2.324   5.625  0.7703 -0.6048 -0.0441
  259MOL   O14047096   4.402   2.330   5.560 -0.5854  0.3604 -0.4497
  259MOL   O14147097   4.626   2.340   5.571 -0.4275 -0.2351  0.2020
  259MOL   H14247098   4.305   2.212   5.763 -1.8811 -1.3761  1.9471
  259MOL   H14347099   4.382   2.194   5.918  0.2144 -1.0980 -0.6644
  259MOL   H14447100   4.534   2.393   5.823 -1.0292 -0.9259  3.5172
  259MOL   H14547101   4.694   2.356   5.633 -0.5649  2.8554 -0.3280
  259MOL   C14647102   4.611   2.199   5.808  0.0724  0.3770 -0.3627
  259MOL   C14747103   4.659   2.189   5.960 -0.4435  0.4108 -0.1898
  259MOL   C14847104   4.713   2.328   6.008 -0.4546 -0.3527 -0.7725
  259MOL   O14947105   4.831   2.352   6.005  0.4302 -0.1839  0.4944
  259MOL   O15047106   4.619   2.405   6.066  0.2336  0.5098  0.3446
  259MOL   H15147107   4.710   2.213   5.763 -0.1361  0.4214 -0.8089
  259MOL   H15247108   4.568   2.104   5.776 -2.8203  1.4673  0.2073
  259MOL   H15347109   4.567   2.164   6.014 -0.9650 -0.4305 -1.4210
  259MOL   H15447110   4.670   2.480   6.094  1.6268 -0.8228  1.5230
  259MOL   C15547111   4.760   2.072   5.997  0.8755 -0.2956 -0.4537
  259MOL   C15647112   4.742   1.992   6.130 -0.1461 -1.0473 -0.1923
  259MOL   C15747113   4.607   1.917   6.138 -0.7055  0.5976  0.4993
  259MOL   O15847114   4.509   1.945   6.208  0.4269  0.0921 -0.2749
  259MOL   O15947115   4.605   1.826   6.037 -0.5765 -0.2790 -0.1681
  259MOL   H16047116   4.865   2.096   5.978  0.7448  1.4996  1.0123
  259MOL   H16147117   4.746   1.999   5.917 -1.0333  0.1268 -0.5327
  259MOL   H16247118   4.819   1.914   6.133 -2.0111 -2.8717  1.2595
  259MOL   H16347119   4.524   1.783   6.018  0.1534 -1.5080 -0.5573
  259MOL   C16447120   4.774   2.082   6.253  0.1303  0.2922  0.0977
  259MOL   C16547121   4.780   2.004   6.388 -0.5160  0.0210  0.1793
  259MOL   C16647122   4.857   2.103   6.478  0.4825 -0.8168 -0.4855
  259MOL   O16747123   4.975   2.106   6.489 -0.1047  0.2958  0.3644
  259MOL   O16847124   4.777   2.189   6.545  0.1777 -0.1567  0.2842
  259MOL   H16947125   4.694   2.156   6.259 -1.1063 -1.1084  1.3986
  259MOL   H17047126   4.863   2.138   6.225  0.3881 -0.1563  0.0163
  259MOL   H17147127   4.676   1.995   6.421 -1.0801  0.5013 -1.4217
  259MOL   H17247128   4.827   2.237   6.609  0.8415 -1.2873  0.6175
  259MOL   C17347129   4.838   1.859   6.390  0.4931  0.1757  0.1477
  259MOL   C17447130   4.809   1.782   6.520 -0.2407  0.9956  0.5288
  259MOL   C17547131   4.662   1.730   6.532 -0.6389  0.2714  0.2551
  259MOL   O17647132   4.558   1.791   6.499  0.2606 -0.5380 -0.7728
  259MOL   O17747133   4.668   1.603   6.579  0.0392  0.5131  0.4730
  259MOL   H17847134   4.945   1.862   6.372  0.5545 -1.8643  0.0149
  259MOL   H17947135   4.793   1.805   6.308  0.1210 -0.2266  0.6140
  259MOL   H18047136   4.874   1.694   6.517  2.5824  3.0210 -0.3536
  259MOL   H18147137   4.580   1.569   6.575  0.2336  0.1696 -1.0768
  259MOL   H18247138   4.838   1.842   6.607 -3.2254  1.6775  1.1111
  260MOL     C147139   4.726   0.335   7.838 -0.3354 -0.0930 -0.2601
  260MOL     C247140   4.633   0.273   0.092 -0.2206  0.5055 -0.2647
  260MOL     C347141   4.707   0.171   0.187 -0.8304 -0.5711  0.6165
  260MOL     O447142   4.709   0.048   0.173 -0.0479  0.7761  0.0241
  260MOL     O547143   4.768   0.235   0.292  0.6195  0.1177  0.7189
  260MOL     H647144   4.667   0.409   7.785  0.2691  0.8393  0.3440
  260MOL     H747145   4.809   0.391   0.028  0.7035 -0.4974 -1.6917
  260MOL     H847146   4.597   0.349   0.161 -2.7497 -0.9243  0.0703
  260MOL     H947147   4.809   0.172   0.349  0.6319  0.5382  1.1709
  260MOL    H1047148   4.773   0.258   7.776  0.3030  0.1807 -0.1200
  260MOL    C1147149   4.510   0.208   0.028 -0.1418  0.5354 -0.0537
  260MOL    C1247150   4.512   0.116   7.759 -0.3073 -0.3589 -0.2869
  260MOL    C1347151   4.534   0.184   7.628  0.8292  0.3367 -0.6641
  260MOL    O1447152   4.461   0.268   7.576 -0.2362 -0.3770  0.3210
  260MOL    O1547153   4.646   0.143   7.562 -0.0541  0.3594 -0.6046
  260MOL    H1647154   4.441   0.291   0.011  0.5937  1.4622  1.3684
  260MOL    H1747155   4.474   0.152   0.114 -1.2894 -1.3773 -1.7579
  260MOL    H1847156   4.596   0.049   7.778  2.0877  2.7572  0.5862
  260MOL    H1947157   4.668   0.194   7.486  1.2166 -1.0602 -1.2118
  260MOL    C2047158   4.383   0.028   7.768 -0.0093 -0.5349 -0.1294
  260MOL    C2147159   4.377   7.769   7.648  0.7733 -0.3019  0.6402
  260MOL    C2247160   4.273   7.807   7.543  0.5478 -0.0244  0.2638
  260MOL    O2347161   4.298   7.813   7.423  0.2597  0.2808 -0.3866
  260MOL    O2447162   4.153   7.822   7.601 -0.3248  0.0921  0.0621
  260MOL    H2547163   4.296   0.094   7.766 -0.3567 -0.9964 -0.4589
  260MOL    H2647164   4.377   7.841   0.016  0.8922  0.7498  0.4362
  260MOL    H2747165   4.477   7.763   7.607  0.4976 -1.5658  0.1049
  260MOL    H2847166   4.086   7.796   7.539  2.3963 -2.7638 -1.8313
  260MOL    C2947167   4.348   7.634   7.717 -0.3638 -0.4438 -0.1281
  260MOL    C3047168   4.361   7.527   7.611 -0.2144 -0.0826 -0.2757
  260MOL    C3147169   4.289   7.399   7.662 -0.2134 -1.1103  0.0209
  260MOL    O3247170   4.198   7.345   7.594  0.1809  0.1219 -0.2116
  260MOL    O3347171   4.331   7.367   7.781 -0.1493  0.1844 -0.0678
  260MOL    H3447172   4.260   7.633   7.782 -0.6499  0.7994 -0.4790
  260MOL    H3547173   4.430   7.625   7.788  0.2250  1.1409 -0.5885
  260MOL    H3647174   4.307   7.548   7.519 -1.5886 -1.2425  0.2502
  260MOL    H3747175   4.288   7.289   7.812 -1.1867  1.0344  0.6416
  260MOL    C3847176   4.500   7.490   7.546 -0.3938  0.4635  0.0656
  260MOL    C3947177   4.639   7.505   7.619 -0.0140  0.1888  0.1384
  260MOL    C4047178   4.761   7.481   7.525 -0.5352 -0.1150 -0.5711
  260MOL    O4147179   4.849   7.566   7.497  0.3494 -0.7357  0.3204
  260MOL    O4247180   4.757   7.355   7.487 -0.5213 -0.0237 -0.0237
  260MOL    H4347181   4.512   7.553   7.457 -0.4185 -1.8761 -1.6490
  260MOL    H4447182   4.501   7.389   7.507 -0.3153  0.4221  0.1761
  260MOL    H4547183   4.639   7.605   7.663 -0.2661 -0.7987  2.4596
  260MOL    H4647184   4.835   7.341   7.437 -0.8168  0.8164 -0.7335
  260MOL    C4747185   4.647   7.424   7.751  0.5079 -0.2095  0.4409
  260MOL    C4847186   4.754   7.454   0.007 -0.3844  0.1183  0.0756
  260MOL    C4947187   4.733   7.583   0.099  0.5420  0.3525 -0.0136
  260MOL    O5047188   4.807   7.612   0.191 -0.1472 -0.1715  0.0572
  260MOL    O5147189   4.619   7.655   0.077 -0.1247  0.1863  1.0093
  260MOL    H5247190   4.656   7.318   7.727  1.0187 -0.3332  1.1624
  260MOL    H5347191   4.551   7.433   7.802  0.6349  0.6503  0.5284
  260MOL    H5447192   4.737   7.375   0.080  2.6702  0.3020  1.0592
  260MOL    H5547193   4.610   7.738   0.121  0.6854  0.4008  0.7882
  260MOL    C5647194   4.899   7.445   7.810  0.3365 -0.5693  0.2037
  260MOL    C5747195   5.010   7.426   0.057  0.4652  0.3648 -0.4676
  260MOL    C5847196   5.149   7.461   7.846  0.1054 -0.0926 -0.3105
  260MOL    O5947197   5.243   7.387   7.828 -0.3045 -0.1805  0.1442
  260MOL    O6047198   5.138   7.587   7.794 -0.2975  0.5960  0.0442
  260MOL    H6147199   4.923   7.525   7.740  0.1949 -1.7541 -1.2269
  260MOL    H6247200   4.897   7.359   7.742 -1.2097  1.9233 -3.0802
  260MOL    H6347201   5.005   7.492   0.144  1.6079 -0.7523  0.4764
  260MOL    H6447202   5.219   7.604   7.748 -0.0679  0.1505  0.2765
  260MOL    C6547203   5.005   7.285   0.117  0.4794  0.0859  0.3188
  260MOL    C6647204   5.114   7.250   0.220 -0.0724 -0.3247  0.5839
  260MOL    C6747205   5.103   7.107   0.269 -0.3699 -0.0827 -0.3243
  260MOL    O6847206   5.016   7.028   0.231  0.5838 -0.9640 -0.2215
  260MOL    O6947207   5.197   7.068   0.361  0.8202 -0.0018 -0.1168
  260MOL    H7047208   5.012   7.207   0.042 -0.1259  0.5745 -0.2487
  260MOL    H7147209   4.906   7.270   0.159  0.2067 -0.4923 -0.5427
  260MOL    H7247210   5.215   7.245   0.181 -0.2861  2.2338 -0.4408
  260MOL    H7347211   5.193   6.975   0.372 -2.9671  0.2144  1.1710
  260MOL    C7447212   5.141   7.348   0.343 -0.2700  0.0082  0.5929
  260MOL    C7547213   5.049   7.336   0.467  0.4208 -0.2402  0.0722
  260MOL    C7647214   4.893   7.337   0.432 -0.0880 -0.0647 -0.2533
  260MOL    O7747215   4.831   7.234   0.402  0.8969 -0.4404 -0.0976
  260MOL    O7847216   4.845   7.465   0.415  0.1805  0.3230  0.5225
  260MOL    H7947217   5.136   7.454   0.314 -0.3729  0.5191  2.4353
  260MOL    H8047218   5.241   7.322   0.376  0.1051  2.7043  1.7554
  260MOL    H8147219   5.076   7.238   0.505  0.5673  0.3854  1.6068
  260MOL    H8247220   4.759   7.467   0.376  0.4616  0.5012 -0.0939
  260MOL    C8347221   5.092   7.440   0.571  0.3479  0.5022 -0.0014
  260MOL    C8447222   5.131   7.383   0.705  0.0969 -0.0306 -0.2612
  260MOL    C8547223   5.023   7.311   0.788 -0.5455 -0.2594  0.1135
  260MOL    O8647224   4.902   7.341   0.776 -0.8938  0.1015  0.4857
  260MOL    O8747225   5.072   7.219   0.878 -0.2551 -0.6558  0.2200
  260MOL    H8847226   5.015   7.516   0.582  0.3371  0.5259 -0.2437
  260MOL    H8947227   5.179   7.501   0.546  0.4145 -0.0913 -1.2834
  260MOL    H9047228   5.200   7.302   0.683  1.5741  1.0745  0.1892
  260MOL    H9147229   4.998   7.188   0.929 -1.4989 -1.0983 -1.7939
  260MOL    C9247230   5.224   7.467   0.793 -0.7572 -0.3773 -0.7061
  260MOL    C9347231   5.375   7.453   0.782  0.4217  0.1169  0.0113
  260MOL    C9447232   5.436   7.323   0.803 -0.2978  0.7132  0.3518
  260MOL    O9547233   5.371   7.227   0.845 -0.6356  0.4371  0.1506
  260MOL    O9647234   5.566   7.311   0.769 -0.5721  0.0499  0.0922
  260MOL    H9747235   5.207   7.450   0.900  1.2301 -0.5239 -0.3882
  260MOL    H9847236   5.193   7.569   0.769  1.9483  0.8612  0.8436
  260MOL    H9947237   5.405   7.474   0.679  1.5811 -1.8620 -0.0665
  260MOL   H10047238   5.590   7.221   0.782 -1.1872 -0.0221  0.7983
  260MOL   C10147239   5.441   7.561   0.874 -0.1694  0.0300 -0.1361
  260MOL   C10247240   5.422   7.717   0.823 -0.2221  0.2828  0.3520
  260MOL   C10347241   5.410   7.732   0.665  0.4025  0.3863  0.8871
  260MOL   O10447242   5.296   7.746   0.618 -0.1888 -0.2813 -0.7478
  260MOL   O10547243   5.520   7.738   0.596 -0.3909  0.1224  0.4441
  260MOL   H10647244   5.548   7.549   0.889  0.1784  1.8951 -0.9538
  260MOL   H10747245   5.408   7.561   0.978  1.4096 -0.7434  0.3841
  260MOL   H10847246   5.323   7.747   0.857 -0.6748  0.9217 -1.4669
  260MOL   H10947247   5.504   7.734   0.502 -0.6849  0.5402  0.4777
  260MOL   C11047248   5.526   7.817   0.878 -0.2161  0.2435 -0.3756
  260MOL   C11147249   5.501   0.113   0.829  0.0541  0.2133  0.4592
  260MOL   C11247250   5.615   0.191   0.900  0.9608  0.0954 -0.2422
  260MOL   O11347251   5.616   0.240   1.013 -0.2448 -0.0133 -0.3049
  260MOL   O11447252   5.728   0.189   0.823  0.4134  0.1457 -0.3704
  260MOL   H11547253   5.622   7.791   0.834 -0.4358  1.2525 -1.4631
  260MOL   H11647254   5.519   7.806   0.987  2.7368  0.4360 -0.1171
  260MOL   H11747255   5.528   0.123   0.724  0.4504 -2.2973  0.2943
  260MOL   H11847256   5.798   0.240   0.862  1.7463 -0.5610 -1.7962
  260MOL   C11947257   5.363   0.173   0.863 -0.0551  0.2553  0.4286
  260MOL   C12047258   5.324   0.305   0.807  0.1743 -0.2695  0.2397
  260MOL   C12147259   5.189   0.353   0.872  0.2111  0.1376  0.0529
  260MOL   O12247260   5.089   0.398   0.805 -1.2238  0.1011  0.4230
  260MOL   O12347261   5.187   0.331   1.005 -0.2009 -0.0826 -0.7745
  260MOL   H12447262   5.360   0.177   0.972  0.0628  1.3924  0.3908
  260MOL   H12547263   5.290   0.099   0.829  2.1598 -1.1544 -1.4543
  260MOL   H12647264   5.398   0.379   0.841 -0.0760 -0.5102  1.3337
  260MOL   H12747265   5.102   0.366   1.029  0.9207  1.7436  0.6139
  260MOL   C12847266   5.306   0.306   0.648  0.1678 -0.5389 -0.0455
  260MOL   C12947267   5.319   0.449   0.586  0.0168  0.1346  0.2468
  260MOL   C13047268   5.246   0.468   0.451  0.0223 -0.5628 -0.3334
  260MOL   O13147269   5.259   0.566   0.378  0.6731 -0.3827 -0.5580
  260MOL   O13247270   5.166   0.360   0.429  0.2871 -0.2291 -0.2046
  260MOL   H13347271   5.215   0.250   0.623  0.6253 -1.3310  0.0367
  260MOL   H13447272   5.391   0.256   0.602  0.7196  2.1223 -2.0081
  260MOL   H13547273   5.266   0.518   0.652  0.3364  1.4112 -0.8152
  260MOL   H13647274   5.099   0.378   0.365 -0.6544 -1.9978  0.2501
  260MOL   C13747275   5.462   0.498   0.574 -0.9010  0.8611  0.4298
  260MOL   C13847276   5.547   0.409   0.472  0.3802  0.5423  0.5734
  260MOL   C13947277   5.677   0.345   0.538  0.4227  0.0801  0.1055
  260MOL   O14047278   5.755   0.405   0.619  0.0432  0.4728  0.3358
  260MOL   O14147279   5.669   0.211   0.513  0.0883 -0.2103  0.0903
  260MOL   H14247280   5.515   0.485   0.668 -0.9243  2.6535  0.7043
  260MOL   H14347281   5.465   0.603   0.547 -0.0386  0.4704 -1.0347
  260MOL   H14447282   5.487   0.329   0.427 -0.1271  0.3496  1.5863
  260MOL   H14547283   5.732   0.173   0.572 -0.1521  0.7634  0.9744
  260MOL   C14647284   5.592   0.496   0.350 -0.0336 -0.4441 -0.5486
  260MOL   C14747285   5.642   0.413   0.227  0.0511 -0.1556 -0.0418
  260MOL   C14847286   5.703   0.504   0.119 -0.6060 -0.4861 -0.1115
  260MOL   O14947287   5.671   0.621   0.095  0.1450 -0.3832  1.0403
  260MOL   O15047288   5.799   0.437   0.061 -0.4982 -0.8576  0.0204
  260MOL   H15147289   5.673   0.564   0.380  0.1186 -1.1504  0.6590
  260MOL   H15247290   5.500   0.547   0.323  0.6101  0.3452 -1.2918
  260MOL   H15347291   5.720   0.349   0.268 -0.8362 -0.5075  1.1049
  260MOL   H15447292   5.841   0.470   7.836 -1.5073  0.4357 -0.0152
  260MOL   C15547293   5.529   0.329   0.155  0.1033 -0.5549  0.3169
  260MOL   C15647294   5.556   0.175   0.153  0.8417 -0.2007 -0.5256
  260MOL   C15747295   5.687   0.139   0.081  0.5074 -0.3383 -0.3382
  260MOL   O15847296   5.775   0.087   0.148 -0.1151 -0.1502 -0.6660
  260MOL   O15947297   5.670   0.141   7.793  0.2801  0.2318 -0.5188
  260MOL   H16047298   5.511   0.349   0.049  2.0832 -0.3921 -0.0079
  260MOL   H16147299   5.430   0.357   0.193  0.6397  0.3945  1.0493
  260MOL   H16247300   5.585   0.141   0.253  3.9608  0.1582 -1.2484
  260MOL   H16347301   5.755   0.109   7.767  0.5928  1.0665 -0.5389
  260MOL   C16447302   5.437   0.098   0.099  0.5394 -0.3435  0.3152
  260MOL   C16547303   5.305   0.101   0.179  0.0910 -0.4749 -0.3531
  260MOL   C16647304   5.307   0.021   0.310 -0.5548  0.7004 -0.5635
  260MOL   O16747305   5.391   7.787   0.336  0.4899  0.1790  0.2425
  260MOL   O16847306   5.196   0.046   0.386  0.0259  0.2780 -0.3781
  260MOL   H16947307   5.476   7.849   0.096  1.8983  0.1684  0.1499
  260MOL   H17047308   5.426   0.138   7.851 -1.5190  0.2872  0.7719
  260MOL   H17147309   5.299   0.204   0.214 -0.3729 -0.1826 -1.2756
  260MOL   H17247310   5.205   7.837   0.456  1.0799  1.5160  0.6074
  260MOL   C17347311   5.182   0.065   0.096  0.8322  0.3730  0.3130
  260MOL   C17447312   5.067   0.169   0.097  0.1006 -0.1707 -0.1305
  260MOL   C17547313   5.112   0.308   0.059  0.1560 -0.2293  0.0959
  260MOL   O17647314   5.208   0.340   7.839 -0.5021  0.3469  0.8532
  260MOL   O17747315   5.040   0.398   0.132 -0.1264  0.0717  0.3804
  260MOL   H17847316   5.151   7.815   0.115  2.1374 -0.2944 -1.0617
  260MOL   H17947317   5.210   0.068   7.843 -1.2697  2.6461 -0.2087
  260MOL   H18047318   4.995   0.147   0.018  0.2145 -0.6791 -0.0951
  260MOL   H18147319   5.072   0.485   0.111 -0.9532 -0.0918 -1.7114
  260MOL   H18247320   5.013   0.172   0.192  0.8972  3.2685  0.2949
  261MOL     C147321   5.022   1.500   3.132 -0.1406 -0.1398  0.3077
  261MOL     C247322   5.124   1.396   3.087 -0.0822 -0.4113  0.1939
  261MOL     C347323   5.050   1.273   3.032 -0.0485  0.3177 -0.1083
  261MOL     O447324   4.939   1.251   3.071  0.4286 -0.3966 -0.3934
  261MOL     O547325   5.132   1.194   2.957  0.1078  0.7685  0.3139
  261MOL     H647326   4.972   1.473   3.225  0.7974  1.0231  1.1597
  261MOL     H747327   5.064   1.600   3.141  0.0323 -0.1447 -0.4756
  261MOL     H847328   5.169   1.435   2.996  1.7078 -1.6422  0.5195
  261MOL     H947329   5.072   1.125   2.932 -1.9197  2.1185  1.3083
  261MOL    H1047330   4.937   1.507   3.065 -2.1867  0.6265  2.8748
  261MOL    C1147331   5.243   1.362   3.187  0.4801  0.3650 -0.2378
  261MOL    C1247332   5.342   1.470   3.236 -0.2079 -0.4630 -0.2115
  261MOL    C1347333   5.279   1.550   3.347  0.0649  0.4390 -0.1173
  261MOL    O1447334   5.223   1.658   3.333  0.2180  0.6355 -0.4796
  261MOL    O1547335   5.286   1.478   3.463 -0.0803  0.2671  0.0152
  261MOL    H1647336   5.303   1.290   3.131 -0.0831 -0.2548 -0.0522
  261MOL    H1747337   5.208   1.304   3.273 -2.6979  1.0342 -1.0014
  261MOL    H1847338   5.429   1.418   3.279  0.2998  0.4913 -0.0783
  261MOL    H1947339   5.248   1.529   3.533  0.2320  0.1144  0.2993
  261MOL    C2047340   5.399   1.564   3.119  0.6929  0.4981 -0.2942
  261MOL    C2147341   5.546   1.606   3.124 -0.2561  0.6693  0.0525
  261MOL    C2247342   5.641   1.482   3.128 -0.4351  0.4357 -0.3685
  261MOL    O2347343   5.746   1.476   3.197 -0.5093 -0.6589 -0.2214
  261MOL    O2447344   5.602   1.385   3.038  0.6699  0.2783  0.3955
  261MOL    H2547345   5.344   1.657   3.110  0.2058  0.3938  1.4857
  261MOL    H2647346   5.381   1.517   3.022 -2.2296  0.9694 -0.0151
  261MOL    H2747347   5.570   1.653   3.029  0.4553 -1.5665 -0.8939
  261MOL    H2847348   5.679   1.331   3.027 -0.1688 -0.9189  0.2494
  261MOL    C2947349   5.576   1.708   3.239 -0.3473 -0.2227  0.4882
  261MOL    C3047350   5.510   1.849   3.241  0.7172  0.2014 -0.4129
  261MOL    C3147351   5.538   1.936   3.117  0.6777 -0.4259 -0.7112
  261MOL    O3247352   5.631   2.018   3.106  0.3839  0.3209 -0.3018
  261MOL    O3347353   5.452   1.898   3.018 -0.0263 -0.0897 -0.0902
  261MOL    H3447354   5.683   1.729   3.243 -0.0224 -1.3770 -1.3196
  261MOL    H3547355   5.564   1.654   3.333 -0.1717 -0.0769  0.5942
  261MOL    H3647356   5.401   1.846   3.239  0.7315 -0.4429 -0.5730
  261MOL    H3747357   5.465   1.928   2.929 -0.5123  0.9570  0.1919
  261MOL    C3847358   5.539   1.916   3.377 -0.0505 -0.5426  0.4978
  261MOL    C3947359   5.684   1.955   3.430 -0.0156  0.0684  0.2433
  261MOL    C4047360   5.782   1.843   3.451  0.5000 -0.2012 -0.2615
  261MOL    O4147361   5.900   1.842   3.426 -0.2133 -0.3889  0.1156
  261MOL    O4247362   5.720   1.740   3.512  0.4079 -0.3501  0.5252
  261MOL    H4347363   5.482   1.861   3.452  0.3702 -1.4104  0.1926
  261MOL    H4447364   5.488   2.012   3.372 -0.9103 -1.0036  0.2625
  261MOL    H4547365   5.733   2.017   3.355 -2.3134  1.0101 -0.5311
  261MOL    H4647366   5.788   1.676   3.526  0.0291 -1.0647 -0.8312
  261MOL    C4747367   5.670   2.036   3.558 -0.1715  0.6780 -0.2304
  261MOL    C4847368   5.798   2.128   3.590  0.0261  0.4009  0.0941
  261MOL    C4947369   5.855   2.118   3.728  0.2116  0.6422 -0.0186
  261MOL    O5047370   5.814   2.044   3.816  0.0952  0.2265 -0.3598
  261MOL    O5147371   5.973   2.202   3.737  0.0845  0.3297  0.3030
  261MOL    H5247372   5.670   1.961   3.637 -0.1467  0.2125 -0.6665
  261MOL    H5347373   5.576   2.090   3.555 -0.8333 -0.4164  0.5434
  261MOL    H5447374   5.880   2.088   3.529  0.2126 -0.5961  0.9954
  261MOL    H5547375   5.994   2.197   3.829 -1.7247 -0.5938  0.6748
  261MOL    C5647376   5.769   2.278   3.547  0.1581 -0.1647 -0.3974
  261MOL    C5747377   5.735   2.300   3.398  0.7212  0.0374 -0.0347
  261MOL    C5847378   5.858   2.283   3.306  0.2686  0.1631  0.1463
  261MOL    O5947379   5.971   2.314   3.341  0.6579  0.1138 -0.2168
  261MOL    O6047380   5.817   2.248   3.180  0.6501  0.1600 -0.1373
  261MOL    H6147381   5.859   2.335   3.572 -0.1080 -0.8651  2.3563
  261MOL    H6247382   5.700   2.325   3.617  0.2080 -2.0745  0.9648
  261MOL    H6347383   5.668   2.216   3.379 -0.0255  1.0230 -1.8323
  261MOL    H6447384   5.894   2.243   3.125  0.1533  1.8968 -1.0407
  261MOL    C6547385   5.687   2.448   3.371  0.1052 -0.0087 -0.0828
  261MOL    C6647386   5.794   2.562   3.383  0.3185 -0.0861 -0.0122
  261MOL    C6747387   5.728   2.679   3.459  0.6585 -0.5044 -0.4221
  261MOL    O6847388   5.698   2.789   3.412 -0.1666 -0.2574  0.1022
  261MOL    O6947389   5.689   2.640   3.583 -0.3840  0.1631  0.5509
  261MOL    H7047390   5.594   2.455   3.426 -2.7266 -0.4304 -4.5235
  261MOL    H7147391   5.651   2.453   3.268  1.2212 -1.1647 -0.5406
  261MOL    H7247392   5.877   2.531   3.446  0.1800 -1.0788 -0.3080
  261MOL    H7347393   5.637   2.706   3.625  1.3768  2.1650 -0.3364
  261MOL    C7447394   5.862   2.610   3.245 -0.1903  0.3722 -0.4895
  261MOL    C7547395   6.018   2.633   3.263 -0.2900  0.0937  0.1471
  261MOL    C7647396   6.057   2.759   3.343 -0.0994 -0.8416 -0.8751
  261MOL    O7747397   6.016   2.873   3.316 -0.2803  0.4522 -0.1134
  261MOL    O7847398   6.125   2.733   3.457 -0.3861  0.1127 -0.3651
  261MOL    H7947399   5.825   2.697   3.191  1.4907  1.4865  0.1365
  261MOL    H8047400   5.852   2.526   3.176  1.3583 -0.7933  0.6527
  261MOL    H8147401   6.058   2.558   3.330 -1.4813  0.4624  1.2923
  261MOL    H8247402   6.152   2.807   3.509 -1.6555 -0.6235  1.3898
  261MOL    C8347403   6.108   2.631   3.144  0.8010 -0.2154 -0.3207
  261MOL    C8447404   6.161   2.485   3.101  0.2476  0.2528  0.0051
  261MOL    C8547405   6.291   2.462   3.170  0.3839  0.5355 -0.1704
  261MOL    O8647406   6.403   2.476   3.119  1.1101 -0.1906  0.6680
  261MOL    O8747407   6.276   2.428   3.299 -0.2246 -0.0136  0.0757
  261MOL    H8847408   6.196   2.692   3.165  0.6849  0.0743 -0.6608
  261MOL    H8947409   6.040   2.670   3.068  0.1496  0.0117  0.3644
  261MOL    H9047410   6.087   2.414   3.137 -0.7692  1.2956 -0.0158
  261MOL    H9147411   6.360   2.391   3.322 -0.4256 -1.8947 -2.0000
  261MOL    C9247412   6.181   2.457   2.951  0.4709  0.7189  0.2736
  261MOL    C9347413   6.056   2.458   2.858 -0.6276  0.2920 -0.0833
  261MOL    C9447414   5.955   2.352   2.881 -0.1149  0.0368 -0.5432
  261MOL    O9547415   5.975   2.263   2.965  0.2388 -0.3239  0.1229
  261MOL    O9647416   5.834   2.364   2.819  0.0657  0.3996 -0.1849
  261MOL    H9747417   6.219   2.356   2.936 -0.6068  0.1000  1.6197
  261MOL    H9847418   6.251   2.530   2.912  0.7085 -0.2452 -1.1414
  261MOL    H9947419   6.002   2.547   2.890  1.6180  1.3296  0.9785
  261MOL   H10047420   5.789   2.281   2.826 -0.3645  0.6517  0.0269
  261MOL   C10147421   6.103   2.472   2.710 -0.6212  1.2735  0.5230
  261MOL   C10247422   6.078   2.617   2.648  0.1916  0.0989 -0.0946
  261MOL   C10347423   5.924   2.630   2.610  0.4260  0.0320  0.1263
  261MOL   O10447424   5.857   2.730   2.622 -0.2522  0.2846  0.1554
  261MOL   O10547425   5.882   2.515   2.553  0.0712  0.1850  0.0574
  261MOL   H10647426   6.058   2.391   2.652  1.3103 -0.5301  1.4893
  261MOL   H10747427   6.210   2.457   2.699 -0.7783  0.7539 -0.3240
  261MOL   H10847428   6.088   2.695   2.723  3.5983 -1.1321  0.8013
  261MOL   H10947429   5.791   2.528   2.531 -0.1768  0.0554  0.9888
  261MOL   C11047430   6.171   2.653   2.538  0.6747  0.1678  0.2254
  261MOL   C11147431   6.302   2.723   2.575 -0.0949 -0.6691  0.2614
  261MOL   C11247432   6.281   2.879   2.600 -0.6537  0.3406  0.0167
  261MOL   O11347433   6.212   2.950   2.528 -0.2577 -0.2000  0.0480
  261MOL   O11447434   6.330   2.916   2.716 -0.2409  0.3187  0.5968
  261MOL   H11547435   6.120   2.719   2.468  2.3763 -0.3650 -1.5866
  261MOL   H11647436   6.175   2.573   2.464 -2.7738 -0.5185  0.7268
  261MOL   H11747437   6.330   2.674   2.668  0.0947 -3.2535 -1.1169
  261MOL   H11847438   6.323   3.010   2.724  0.3195  0.4986 -0.8488
  261MOL   C11947439   6.409   2.706   2.462  0.0684 -0.3610 -0.1345
  261MOL   C12047440   6.475   2.570   2.467 -0.3728 -0.4774 -0.5279
  261MOL   C12147441   6.621   2.576   2.510  1.2136 -0.0698  0.0225
  261MOL   O12247442   6.715   2.588   2.436 -0.6646 -0.1133  0.3275
  261MOL   O12347443   6.630   2.564   2.645  0.2803 -0.8610  0.6290
  261MOL   H12447444   6.494   2.773   2.476  2.0240 -2.0923 -3.2137
  261MOL   H12547445   6.370   2.713   2.360 -0.6758 -0.7297  0.1213
  261MOL   H12647446   6.421   2.515   2.544 -1.7454 -0.8679 -1.7445
  261MOL   H12747447   6.713   2.590   2.682  0.8091 -1.8528  0.1603
  261MOL   C12847448   6.456   2.496   2.336 -0.0661 -0.2554 -0.1742
  261MOL   C12947449   6.497   2.346   2.343 -0.2674 -0.2148  0.1455
  261MOL   C13047450   6.567   2.295   2.217 -0.1812 -0.8022 -0.3009
  261MOL   O13147451   6.521   2.210   2.146 -0.1517 -0.1235  0.0249
  261MOL   O13247452   6.691   2.345   2.204  0.2713 -0.1464  0.1612
  261MOL   H13347453   6.506   2.556   2.259 -0.5508  0.7727  0.2966
  261MOL   H13447454   6.359   2.503   2.285 -0.4225 -1.4753  0.3150
  261MOL   H13547455   6.569   2.337   2.424 -0.9677 -0.0883  0.7852
  261MOL   H13647456   6.719   2.321   2.117  0.8986 -1.1678  0.6350
  261MOL   C13747457   6.382   2.248   2.389  0.3776 -0.2979  0.6037
  261MOL   C13847458   6.423   2.139   2.479 -0.1196  0.3261 -0.2264
  261MOL   C13947459   6.470   2.009   2.414 -0.2823 -0.3040  0.2345
  261MOL   O14047460   6.408   1.909   2.401 -0.0901 -0.0174  0.0636
  261MOL   O14147461   6.592   2.021   2.359 -0.6414  0.3089  0.2935
  261MOL   H14247462   6.326   2.219   2.300 -1.5759 -1.3823  2.1347
  261MOL   H14347463   6.309   2.313   2.438  0.2917  0.3073 -0.3186
  261MOL   H14447464   6.501   2.174   2.546 -1.2871 -2.0824  2.4784
  261MOL   H14547465   6.635   2.100   2.390 -0.3244  0.4662 -0.5452
  261MOL   C14647466   6.312   2.122   2.583 -0.3238 -0.1185  0.1242
  261MOL   C14747467   6.337   2.021   2.704 -0.2128 -0.2859  0.3630
  261MOL   C14847468   6.212   2.019   2.793  0.6904 -0.5794 -0.2942
  261MOL   O14947469   6.156   1.913   2.829 -0.0690  0.5399  0.7508
  261MOL   O15047470   6.159   2.141   2.825  0.0538 -0.1796  0.2000
  261MOL   H15147471   6.233   2.072   2.526 -0.9237 -0.1741  1.0028
  261MOL   H15247472   6.284   2.222   2.617  0.3983 -0.1967  0.9550
  261MOL   H15347473   6.344   1.926   2.651 -0.7565  0.5950 -1.3259
  261MOL   H15447474   6.072   2.129   2.861 -1.0593 -0.5866 -2.4848
  261MOL   C15547475   6.455   2.055   2.787  0.6128 -0.0087 -0.4776
  261MOL   C15647476   6.539   1.948   2.853 -0.3240  0.2886  0.5654
  261MOL   C15747477   6.626   1.867   2.755  0.0600  0.2131  0.2098
  261MOL   O15847478   6.680   1.761   2.792 -0.5830  0.0507 -0.2784
  261MOL   O15947479   6.651   1.925   2.632  0.2202 -0.3607 -0.6546
  261MOL   H16047480   6.419   2.121   2.866 -2.1249  0.7290 -2.2618
  261MOL   H16147481   6.519   2.125   2.735 -0.6415  1.0260 -0.6596
  261MOL   H16247482   6.624   1.995   2.902  2.2817 -0.0618 -3.3942
  261MOL   H16347483   6.730   1.880   2.605 -0.8368 -2.0197 -1.0980
  261MOL   C16447484   6.470   1.878   2.974  0.4942 -0.4191 -0.0476
  261MOL   C16547485   6.465   1.962   3.108 -0.2684  0.3184  0.1846
  261MOL   C16647486   6.567   1.899   3.203  0.5315 -0.7934 -0.3072
  261MOL   O16747487   6.544   1.833   3.302  0.3661  0.1019  0.2747
  261MOL   O16847488   6.688   1.941   3.162 -0.3723  0.3528 -0.1544
  261MOL   H16947489   6.526   1.785   2.988  0.1093 -0.6028  0.2952
  261MOL   H17047490   6.368   1.849   2.946  0.3759 -0.3850  0.3424
  261MOL   H17147491   6.486   2.067   3.090  4.2608 -0.5457 -0.1940
  261MOL   H17247492   6.757   1.908   3.217 -0.6885  1.8067  1.1637
  261MOL   C17347493   6.324   1.961   3.159  1.0180  0.0162 -0.8359
  261MOL   C17447494   6.308   2.042   3.278 -0.0348 -0.0842 -0.3492
  261MOL   C17547495   6.169   2.070   3.321 -0.0082  0.2580 -0.7533
  261MOL   O17647496   6.069   2.040   3.260 -0.4888 -0.4761 -0.3437
  261MOL   O17747497   6.168   2.154   3.436 -0.2535  0.1478 -0.4342
  261MOL   H17847498   6.285   1.860   3.175 -0.0177  0.3868 -0.9517
  261MOL   H17947499   6.262   1.989   3.074 -0.2374 -1.2110 -0.3463
  261MOL   H18047500   6.363   2.008   3.366  2.0410 -0.2099 -1.6612
  261MOL   H18147501   6.086   2.199   3.444  0.9154  2.2368  0.2904
  261MOL   H18247502   6.339   2.146   3.274  3.5737 -1.1880 -2.6930
  262MOL     C147503   5.971   2.813   4.527 -0.3925 -0.0576  0.3024
  262MOL     C247504   5.883   2.941   4.511  0.1845 -0.5175 -0.2533
  262MOL     C347505   5.939   3.029   4.398 -0.0499  0.2469  0.3076
  262MOL     O447506   5.964   3.151   4.419 -0.0755  0.6139  0.2780
  262MOL     O547507   5.967   2.967   4.277  0.0262 -0.4112  0.2267
  262MOL     H647508   6.000   2.768   4.432  1.0598  0.8258  0.3034
  262MOL     H747509   6.063   2.831   4.583  1.0626 -0.2736 -1.9725
  262MOL     H847510   5.790   2.901   4.472  1.0290 -0.9061 -1.9569
  262MOL     H947511   6.004   3.038   4.227 -0.4449 -0.4741 -0.2317
  262MOL    H1047512   5.918   2.737   4.584 -1.3131  2.0481  2.3478
  262MOL    C1147513   5.849   3.017   4.641  0.5569 -0.0738 -0.1260
  262MOL    C1247514   5.804   2.948   4.774  1.0451  0.7323  0.1444
  262MOL    C1347515   5.917   2.872   4.846 -0.5150  0.8961 -0.6354
  262MOL    O1447516   6.027   2.932   4.861 -0.3781 -0.0105 -0.0700
  262MOL    O1547517   5.888   2.750   4.901  0.3108  0.6024 -0.4138
  262MOL    H1647518   5.768   3.084   4.611 -0.5601 -0.8848  1.0442
  262MOL    H1747519   5.936   3.078   4.668  1.4192 -1.0101 -0.7542
  262MOL    H1847520   5.774   3.037   4.829 -0.3509 -0.7013  1.7540
  262MOL    H1947521   5.951   2.709   4.959 -1.4243  0.6684  1.6160
  262MOL    C2047522   5.683   2.863   4.737 -0.3698  0.5383  0.1349
  262MOL    C2147523   5.582   2.836   4.850 -0.4345  0.3562 -0.8933
  262MOL    C2247524   5.507   2.700   4.825 -0.6051 -0.2659  0.1258
  262MOL    O2347525   5.554   2.592   4.855  0.2817  0.4724  0.2509
  262MOL    O2447526   5.394   2.721   4.762  0.5216  0.3696  0.2587
  262MOL    H2547527   5.724   2.767   4.705 -1.5584  1.7086 -5.5147
  262MOL    H2647528   5.629   2.904   4.651  0.5614 -0.2785 -0.8627
  262MOL    H2747529   5.636   2.820   4.943 -0.8734  0.9349 -0.5347
  262MOL    H2847530   5.368   2.631   4.746  0.8684  0.0650  1.3710
  262MOL    C2947531   5.487   2.956   4.873 -0.1327  0.3148  0.1241
  262MOL    C3047532   5.382   2.944   4.991 -0.4181 -0.3729 -0.1143
  262MOL    C3147533   5.271   3.050   4.973 -0.1678 -0.0186  0.4811
  262MOL    O3247534   5.270   3.136   4.887  0.0048  0.9084  0.2886
  262MOL    O3347535   5.180   3.046   5.075  0.4347  0.1823 -0.7883
  262MOL    H3447536   5.436   2.985   4.781 -1.6599  5.7963  2.4943
  262MOL    H3547537   5.552   3.044   4.880 -0.1596  0.3946 -0.5407
  262MOL    H3647538   5.322   2.855   4.976 -0.0266 -0.5449 -0.6738
  262MOL    H3747539   5.106   3.100   5.051  0.7149 -0.3767 -3.0324
  262MOL    C3847540   5.446   2.943   5.140  0.4616  0.6309  0.2675
  262MOL    C3947541   5.565   3.039   5.168  0.1761  0.6925 -0.4759
  262MOL    C4047542   5.688   2.948   5.208  0.8631  0.8597 -0.0025
  262MOL    O4147543   5.683   2.864   5.299 -0.0101  0.7653  0.0503
  262MOL    O4247544   5.794   2.979   5.134 -0.0184 -0.5446 -0.2145
  262MOL    H4347545   5.465   2.840   5.166 -3.3620 -0.1179  0.4789
  262MOL    H4447546   5.367   2.950   5.215 -0.8784 -2.1296 -0.8301
  262MOL    H4547547   5.592   3.091   5.077  0.5538 -1.2046 -1.4811
  262MOL    H4647548   5.870   2.929   5.157  1.7174  1.6725 -1.0013
  262MOL    C4747549   5.544   3.141   5.285  0.0031  0.2736  0.1102
  262MOL    C4847550   5.439   3.252   5.256 -0.2727 -0.1786  0.1799
  262MOL    C4947551   5.454   3.318   5.118 -0.4934  0.2605  0.5996
  262MOL    O5047552   5.558   3.329   5.056 -0.1766  0.3031 -0.0270
  262MOL    O5147553   5.337   3.366   5.065  0.3596  0.2896 -0.0762
  262MOL    H5247554   5.637   3.192   5.310 -0.0440  1.0409 -1.2503
  262MOL    H5347555   5.514   3.086   5.374  0.1520  0.9994  0.6136
  262MOL    H5447556   5.339   3.209   5.258 -0.1206 -0.7781 -2.8477
  262MOL    H5547557   5.354   3.415   4.986  1.1715 -1.5440 -1.0713
  262MOL    C5647558   5.457   3.358   5.368  0.0013 -0.0318 -0.0403
  262MOL    C5747559   5.332   3.451   5.379  0.2731  0.4023 -0.1092
  262MOL    C5847560   5.361   3.586   5.464 -0.9751  0.4889 -0.4848
  262MOL    O5947561   5.422   3.583   5.573  0.4170  0.3404  0.3971
  262MOL    O6047562   5.299   3.695   5.414  0.2654  0.0072 -0.1131
  262MOL    H6147563   5.537   3.429   5.343 -0.6494  0.1980 -1.5545
  262MOL    H6247564   5.462   3.299   5.459  0.8011  0.1897  0.0639
  262MOL    H6347565   5.303   3.491   5.282 -2.5177 -0.4270  0.3480
  262MOL    H6447566   5.320   3.768   5.470 -0.2794  1.2721 -1.4994
  262MOL    C6547567   5.212   3.378   5.438 -0.3114  0.0719 -0.0475
  262MOL    C6647568   5.078   3.411   5.378  0.2818 -0.0721 -0.0938
  262MOL    C6747569   4.969   3.393   5.487 -0.7982  0.2827  0.9576
  262MOL    O6847570   4.886   3.301   5.485  0.4500  0.2939 -0.0139
  262MOL    O6947571   4.960   3.497   5.576 -0.0153 -0.2817  0.0770
  262MOL    H7047572   5.214   3.397   5.545 -0.2190 -2.0645  0.3493
  262MOL    H7147573   5.222   3.270   5.442  1.3055  0.1471 -1.5151
  262MOL    H7247574   5.065   3.514   5.345  3.0693  0.7870  1.3673
  262MOL    H7347575   4.904   3.471   5.647  1.5980 -1.8176  0.8195
  262MOL    C7447576   5.058   3.312   5.257  0.3001 -0.1855  0.3341
  262MOL    C7547577   4.962   3.386   5.154  0.1242  0.6334  0.0818
  262MOL    C7647578   4.885   3.277   5.089 -0.6128 -0.3341 -0.2515
  262MOL    O7747579   4.943   3.170   5.056  0.0471 -0.2541  1.2404
  262MOL    O7847580   4.754   3.310   5.073 -0.0884  0.1086  0.2922
  262MOL    H7947581   5.023   3.218   5.299  0.2632 -0.6506 -0.7159
  262MOL    H8047582   5.150   3.288   5.203  0.3199  0.1662  0.2128
  262MOL    H8147583   4.888   3.443   5.210  1.0714  0.7294  1.2661
  262MOL    H8247584   4.710   3.249   5.015  1.7316  1.3531 -2.4906
  262MOL    C8347585   5.039   3.471   5.050  0.2036 -0.9044 -0.0170
  262MOL    C8447586   4.950   3.556   4.954 -0.8765 -0.0027  0.0180
  262MOL    C8547587   5.039   3.604   4.845  0.2125  0.2670 -0.1648
  262MOL    O8647588   5.107   3.701   4.867  0.4309 -0.6737  0.5746
  262MOL    O8747589   5.029   3.537   4.729  0.2142 -0.8164  0.3914
  262MOL    H8847590   5.096   3.405   4.985  1.8601  0.2657  0.2003
  262MOL    H8947591   5.116   3.531   5.098  0.6080 -1.4132 -0.0216
  262MOL    H9047592   4.874   3.491   4.911 -1.3863 -0.2833  1.3288
  262MOL    H9147593   5.071   3.584   4.659 -0.2866  1.4998  1.5915
  262MOL    C9247594   4.877   3.670   5.042 -0.8462  0.6925  0.3453
  262MOL    C9347595   4.728   3.650   5.096 -0.2568  0.3700 -1.2133
  262MOL    C9447596   4.621   3.671   4.982 -1.1703  0.1660  0.3288
  262MOL    O9547597   4.553   3.770   4.983 -0.6076  0.3316 -0.5165
  262MOL    O9647598   4.613   3.585   4.878 -0.2675  0.0840  0.4200
  262MOL    H9747599   4.886   3.764   4.987 -0.8786 -0.0336 -0.9197
  262MOL    H9847600   4.948   3.694   5.121 -2.1795  0.0793  1.7579
  262MOL    H9947601   4.726   3.547   5.130  1.7751  1.0676  1.1859
  262MOL   H10047602   4.554   3.613   4.809 -0.9214 -1.1911  0.4460
  262MOL   C10147603   4.693   3.737   5.218  0.4610 -0.0533  0.1016
  262MOL   C10247604   4.556   3.723   5.289  0.3594  0.2010 -0.3156
  262MOL   C10347605   4.514   3.864   5.343 -0.0291 -0.0330  0.2556
  262MOL   O10447606   4.418   3.923   5.304  0.0484 -0.0655  0.0144
  262MOL   O10547607   4.603   3.918   5.430  0.5533 -0.0716 -0.8316
  262MOL   H10647608   4.700   3.841   5.189 -1.2555 -0.5197 -2.1210
  262MOL   H10747609   4.770   3.713   5.292 -0.6610  2.1822  2.0749
  262MOL   H10847610   4.473   3.687   5.228  0.9073 -0.8946 -0.4185
  262MOL   H10947611   4.586   4.001   5.471 -0.4434 -0.0636 -1.2407
  262MOL   C11047612   4.564   3.623   5.406 -0.2788  0.0587 -0.5906
  262MOL   C11147613   4.444   3.606   5.501  0.1081 -0.0647 -0.2425
  262MOL   C11247614   4.485   3.529   5.628 -0.0038 -0.1187  0.6882
  262MOL   O11347615   4.573   3.440   5.634  0.2188  0.0734  0.0660
  262MOL   O11447616   4.424   3.573   5.737 -0.0751  0.6720 -0.7190
  262MOL   H11547617   4.660   3.628   5.457 -0.4918 -0.7142 -0.1056
  262MOL   H11647618   4.568   3.530   5.350 -0.2544 -0.3343  0.0609
  262MOL   H11747619   4.430   3.707   5.539  1.5008 -0.0012  0.1086
  262MOL   H11847620   4.453   3.510   5.802 -0.9366 -1.5227 -2.4239
  262MOL   C11947621   4.313   3.538   5.436  0.0283  0.4573  0.8823
  262MOL   C12047622   4.180   3.581   5.496  0.1943  0.8792 -0.3192
  262MOL   C12147623   4.061   3.497   5.454 -0.0916  0.5116 -0.1017
  262MOL   O12247624   3.954   3.536   5.410 -0.3255 -0.2764  0.2749
  262MOL   O12347625   4.080   3.365   5.486 -0.2663  0.0842  0.2521
  262MOL   H12447626   4.317   3.431   5.458 -0.4440 -0.3139 -2.5830
  262MOL   H12547627   4.328   3.552   5.329 -0.7387 -1.1779  0.5428
  262MOL   H12647628   4.195   3.571   5.603 -1.0170 -2.0182 -0.3785
  262MOL   H12747629   4.003   3.315   5.464  0.1599 -1.4023  2.0339
  262MOL   C12847630   4.164   3.733   5.464  0.7880 -0.4281  0.4858
  262MOL   C12947631   4.096   3.828   5.569 -0.3304 -0.2418  0.2297
  262MOL   C13047632   4.175   3.816   5.698  0.0312  0.4437 -0.8020
  262MOL   O13147633   4.139   3.755   5.800 -0.0283  0.4604  0.1573
  262MOL   O13247634   4.288   3.889   5.694  0.1554 -0.2153 -0.2238
  262MOL   H13347635   4.106   3.738   5.373  2.1974  0.2379 -0.3988
  262MOL   H13447636   4.258   3.777   5.429  0.4036  0.1263  0.1594
  262MOL   H13547637   4.112   3.924   5.520 -0.5686  1.0740  2.6641
  262MOL   H13647638   4.330   3.876   5.777  2.4527 -0.6603 -1.4163
  262MOL   C13747639   3.946   3.812   5.581  0.6207  0.3539 -0.0429
  262MOL   C13847640   3.869   3.930   5.622 -0.0743  0.1634 -0.0183
  262MOL   C13947641   3.868   3.950   5.774 -0.5488  0.0753  0.6808
  262MOL   O14047642   3.965   4.013   5.823  0.2344 -0.0684  0.4573
  262MOL   O14147643   3.766   3.889   5.836 -0.0661  0.4555  0.0846
  262MOL   H14247644   3.915   3.735   5.651 -0.5622 -0.3550 -1.3110
  262MOL   H14347645   3.909   3.789   5.480  1.0817 -0.3537 -0.0553
  262MOL   H14447646   3.923   4.017   5.587 -0.9912  0.5347 -0.5245
  262MOL   H14547647   3.771   3.891   5.931 -0.1270 -1.9343  0.1877
  262MOL   C14647648   3.730   3.944   5.565  0.3202  0.0240  0.7858
  262MOL   C14747649   3.700   4.047   5.453  0.1555  0.6941  0.1727
  262MOL   C14847650   3.715   4.199   5.487  0.0020 -0.5942 -0.5973
  262MOL   O14947651   3.746   4.289   5.405  0.2940 -0.2407 -0.0617
  262MOL   O15047652   3.709   4.222   5.624  0.0126 -0.6261  0.4372
  262MOL   H15147653   3.656   3.958   5.644  0.0811  0.0603  0.5560
  262MOL   H15247654   3.700   3.843   5.536  1.9959 -0.0842 -0.6633
  262MOL   H15347655   3.757   4.015   5.367  1.1125 -1.3260  1.5280
  262MOL   H15447656   3.710   4.313   5.650 -1.8182 -0.4049 -0.1660
  262MOL   C15547657   3.543   4.045   5.418  0.3922 -0.4019 -0.2068
  262MOL   C15647658   3.499   4.119   5.283  0.5865  0.2394 -0.6238
  262MOL   C15747659   3.342   4.115   5.284  0.0574 -0.3490 -0.1368
  262MOL   O15847660   3.285   4.046   5.203  0.0477  0.4066 -0.0795
  262MOL   O15947661   3.268   4.185   5.381 -0.6145 -0.3252  0.5532
  262MOL   H16047662   3.498   4.094   5.504 -0.0499  1.2743 -1.3676
  262MOL   H16147663   3.490   3.949   5.424  0.7013 -0.3859  4.2198
  262MOL   H16247664   3.540   4.220   5.286  0.6773  0.1816  0.1711
  262MOL   H16347665   3.322   4.248   5.427 -0.1211  0.9336 -1.6619
  262MOL   C16447666   3.555   4.039   5.159  0.5863  0.4969 -0.3271
  262MOL   C16547667   3.554   4.122   5.029  0.0482  0.2530 -0.5548
  262MOL   C16647668   3.520   4.035   4.913 -0.0629 -0.1560 -0.9489
  262MOL   O16747669   3.575   3.925   4.898  0.0199  0.0366  0.0767
  262MOL   O16847670   3.421   4.087   4.841  0.3327  0.1613 -0.3021
  262MOL   H16947671   3.500   3.945   5.155  1.5699 -0.0377 -1.5653
  262MOL   H17047672   3.652   3.995   5.182  0.5003  1.1936  1.4191
  262MOL   H17147673   3.471   4.193   5.033 -1.2599 -1.1739 -1.9027
  262MOL   H17247674   3.390   4.022   4.779  4.0265 -0.0462 -2.1193
  262MOL   C17347675   3.680   4.210   5.004  0.8021 -0.2375  0.2227
  262MOL   C17447676   3.663   4.323   4.899  0.2101 -0.0079  0.2262
  262MOL   C17547677   3.789   4.404   4.870  0.6444  1.1299  0.2787
  262MOL   O17647678   3.797   4.522   4.893  0.1358 -0.2908  0.3894
  262MOL   O17747679   3.883   4.338   4.804 -0.1009  0.6849 -0.0569
  262MOL   H17847680   3.762   4.146   4.971  1.9442 -0.5749  3.5056
  262MOL   H17947681   3.721   4.243   5.099  1.5902 -0.3915 -0.0658
  262MOL   H18047682   3.617   4.294   4.805  1.4463 -2.4142  0.3154
  262MOL   H18147683   3.955   4.397   4.788  0.7076 -0.0507  0.7740
  262MOL   H18247684   3.579   4.382   4.936  1.6387  0.1564  3.3536
  263MOL     C147685   2.271   2.743   5.473  0.1321 -0.0776  0.3618
  263MOL     C247686   2.263   2.827   5.345 -0.2810 -0.1208 -0.4584
  263MOL     C347687   2.302   2.968   5.381  0.2768 -0.0098 -0.4390
  263MOL     O447688   2.223   3.060   5.408  0.0594 -0.0989  0.2076
  263MOL     O547689   2.438   2.978   5.389  0.0889  0.0340 -0.4030
  263MOL     H647690   2.231   2.642   5.462 -1.0698  0.6210 -2.0197
  263MOL     H747691   2.377   2.730   5.494  0.9837  0.8249 -3.0776
  263MOL     H847692   2.336   2.798   5.270 -1.2591 -0.9217 -1.1074
  263MOL     H947693   2.468   3.063   5.416  2.3500 -0.6000 -0.8451
  263MOL    H1047694   2.229   2.785   5.564  0.5569 -0.7702  0.8882
  263MOL    C1147695   2.140   2.820   5.265  0.3569  0.3543 -0.0954
  263MOL    C1247696   2.147   2.894   5.129  0.0427  0.5496 -0.7678
  263MOL    C1347697   2.042   3.001   5.111  0.7110 -0.3481 -0.4231
  263MOL    O1447698   1.925   2.970   5.120 -0.3072 -0.2466  0.2223
  263MOL    O1547699   2.089   3.120   5.079  0.6136 -0.0315  0.1159
  263MOL    H1647700   2.064   2.870   5.325  1.0499  1.6532 -0.2979
  263MOL    H1747701   2.101   2.720   5.247  0.8404  0.3697 -1.2504
  263MOL    H1847702   2.239   2.952   5.127  0.0660  0.5671  0.5199
  263MOL    H1947703   2.021   3.177   5.046 -0.7021 -2.2248 -1.0991
  263MOL    C2047704   2.148   2.807   5.004  0.3972  0.2915 -0.7762
  263MOL    C2147705   2.275   2.716   4.988  0.2363  0.5994 -0.6837
  263MOL    C2247706   2.402   2.791   4.964 -0.4781  0.3101  0.1341
  263MOL    O2347707   2.489   2.803   5.050  0.0306  0.2556 -0.5215
  263MOL    O2447708   2.417   2.847   4.838 -0.3838 -0.5058 -0.5967
  263MOL    H2547709   2.127   2.870   4.917 -0.7477  0.8453 -0.1025
  263MOL    H2647710   2.061   2.742   5.013  0.0484  0.8336 -0.1410
  263MOL    H2747711   2.291   2.668   5.085  0.7943  0.4893 -0.8283
  263MOL    H2847712   2.347   2.854   4.775 -1.2109 -0.8069  0.2670
  263MOL    C2947713   2.264   2.612   4.871  0.0976  0.4419 -0.2696
  263MOL    C3047714   2.173   2.492   4.896 -0.4458  0.5984  0.7401
  263MOL    C3147715   2.203   2.415   5.030 -0.8403 -0.5376 -0.0989
  263MOL    O3247716   2.258   2.307   5.030  0.0372  0.3262 -0.0913
  263MOL    O3347717   2.157   2.480   5.139 -0.4352  0.4251  0.3644
  263MOL    H3447718   2.360   2.573   4.838 -0.7758 -0.7898 -1.4053
  263MOL    H3547719   2.230   2.656   4.777 -1.0180 -0.1460 -0.1609
  263MOL    H3647720   2.073   2.535   4.898  0.0668  1.9578 -1.2249
  263MOL    H3747721   2.199   2.424   5.203  1.0580 -0.1151 -1.0215
  263MOL    C3847722   2.167   2.400   4.770  0.0533  0.3631 -0.4678
  263MOL    C3947723   2.069   2.285   4.776  0.3093 -0.0107  0.1215
  263MOL    C4047724   2.080   2.219   4.636 -0.1466 -0.3407  0.4375
  263MOL    O4147725   1.992   2.227   4.547  0.1558 -0.4955  0.1002
  263MOL    O4247726   2.194   2.141   4.622 -0.1468  0.1645 -0.1059
  263MOL    H4347727   2.267   2.358   4.756 -0.3403 -0.9614  0.6311
  263MOL    H4447728   2.143   2.456   4.679  0.6812  2.4322  0.6047
  263MOL    H4547729   2.110   2.213   4.848  0.5806  2.8102  2.8813
  263MOL    H4647730   2.189   2.101   4.537 -0.8278  1.4574 -0.6879
  263MOL    C4747731   1.922   2.319   4.810 -0.0453  0.3641  0.6431
  263MOL    C4847732   1.850   2.242   4.918  0.4329 -0.0076  0.5001
  263MOL    C4947733   1.885   2.092   4.913  0.7905 -0.0531 -0.5030
  263MOL    O5047734   1.829   2.015   4.832 -0.2599  0.3637  0.2791
  263MOL    O5147735   1.986   2.062   5.002 -0.2120  0.5976  0.3991
  263MOL    H5247736   1.862   2.310   4.719  0.9020 -2.1568  0.2467
  263MOL    H5347737   1.905   2.423   4.840 -0.2341  0.3520  0.5795
  263MOL    H5447738   1.893   2.290   5.006 -0.1589  0.8702  0.3151
  263MOL    H5547739   2.022   1.974   4.999 -0.6655  0.4133  0.3381
  263MOL    C5647740   1.698   2.268   4.914  1.1754 -0.3431 -0.1618
  263MOL    C5747741   1.641   2.291   5.057  0.0894 -1.0601 -0.1067
  263MOL    C5847742   1.521   2.206   5.104  0.1570 -0.8703  0.3735
  263MOL    O5947743   1.462   2.120   5.033  0.5229 -0.5598 -0.7268
  263MOL    O6047744   1.503   2.223   5.238  0.0605  0.4837 -0.5324
  263MOL    H6147745   1.642   2.192   4.860  0.9845 -1.1461  1.1480
  263MOL    H6247746   1.684   2.364   4.864  0.8063 -0.3228 -0.0186
  263MOL    H6347747   1.715   2.256   5.129  2.5689  0.4966 -1.8002
  263MOL    H6447748   1.433   2.168   5.271  1.6276 -0.2147  1.7158
  263MOL    C6547749   1.615   2.447   5.083 -0.4941 -0.4149 -0.1515
  263MOL    C6647750   1.752   2.522   5.104  0.4378 -0.2245  0.2929
  263MOL    C6747751   1.791   2.517   5.254 -0.0336 -0.4853  0.5257
  263MOL    O6847752   1.721   2.472   5.339  0.1695 -0.0684  0.0756
  263MOL    O6947753   1.919   2.546   5.282 -0.2573 -0.4537 -0.2928
  263MOL    H7047754   1.550   2.468   5.168 -2.0219 -2.8958 -0.6559
  263MOL    H7147755   1.561   2.481   4.994 -1.1537  1.7508  1.0365
  263MOL    H7247756   1.837   2.487   5.045  1.5558 -0.4547  2.0149
  263MOL    H7347757   1.931   2.535   5.375  1.1688 -1.8110 -0.6071
  263MOL    C7447758   1.723   2.676   5.083  0.2047 -0.6114  0.5931
  263MOL    C7547759   1.666   2.716   4.950  0.3272  0.4506 -0.1905
  263MOL    C7647760   1.750   2.662   4.837 -0.0100  0.3106 -0.2795
  263MOL    O7747761   1.862   2.698   4.817  0.0508 -0.1856  0.6118
  263MOL    O7847762   1.689   2.567   4.752  0.1940 -0.6506 -0.4959
  263MOL    H7947763   1.815   2.731   5.101  0.1388 -0.8939  1.7966
  263MOL    H8047764   1.656   2.713   5.160 -1.7723 -2.6920 -0.0480
  263MOL    H8147765   1.567   2.672   4.940  0.1533  0.9043 -0.4932
  263MOL    H8247766   1.736   2.523   4.683  2.7367  0.8931  0.1899
  263MOL    C8347767   1.646   2.872   4.944 -0.3779 -0.0615  1.0167
  263MOL    C8447768   1.508   2.927   4.884 -0.7573  0.3588  0.2692
  263MOL    C8547769   1.486   2.904   4.734 -0.7304 -0.2749 -0.4745
  263MOL    O8647770   1.582   2.883   4.656 -0.6105  0.1358  0.3253
  263MOL    O8747771   1.360   2.900   4.710 -0.1374 -0.1543  0.2527
  263MOL    H8847772   1.723   2.916   4.881 -0.3457 -1.3796  0.1127
  263MOL    H8947773   1.663   2.921   5.040 -2.0118  2.1547  0.2210
  263MOL    H9047774   1.427   2.868   4.928  2.4325 -3.8420  0.8275
  263MOL    H9147775   1.347   2.862   4.624 -2.7153  1.4146 -0.0841
  263MOL    C9247776   1.474   3.066   4.939  0.5206  0.2281  0.6336
  263MOL    C9347777   1.533   3.199   4.884 -0.6602  0.4946  0.5705
  263MOL    C9447778   1.687   3.203   4.884  0.6666 -0.2645  0.2579
  263MOL    O9547779   1.749   3.218   4.991  0.2133  1.1655  0.6050
  263MOL    O9647780   1.749   3.185   4.763  0.3315  0.4562  0.4659
  263MOL    H9747781   1.495   3.074   5.046  0.4720 -0.3281  0.6867
  263MOL    H9847782   1.368   3.072   4.914  0.1752 -1.1651  1.6888
  263MOL    H9947783   1.512   3.230   4.782  0.1060  3.0224  1.1375
  263MOL   H10047784   1.843   3.188   4.763  0.3505  0.4542 -0.7335
  263MOL   C10147785   1.475   3.315   4.974 -0.0723  0.0390  0.3862
  263MOL   C10247786   1.504   3.457   4.936 -0.7830  0.4913  0.2798
  263MOL   C10347787   1.556   3.536   5.056 -0.1268  0.3022  0.2510
  263MOL   O10447788   1.504   3.635   5.107  0.1335  0.1607 -0.0715
  263MOL   O10547789   1.674   3.482   5.105 -0.4544 -0.0054  0.0228
  263MOL   H10647790   1.507   3.296   5.076  3.8881 -0.0264 -0.7921
  263MOL   H10747791   1.368   3.298   4.992  0.4776 -2.5534  1.4152
  263MOL   H10847792   1.591   3.450   4.870  0.2157 -0.4881  1.7017
  263MOL   H10947793   1.687   3.528   5.187 -0.1450  0.9294 -0.5400
  263MOL   C11047794   1.385   3.521   4.857 -0.4140 -0.5228  0.2332
  263MOL   C11147795   1.402   3.656   4.776  0.1491  0.0326  0.0358
  263MOL   C11247796   1.284   3.751   4.801  0.2398 -0.5141 -0.2798
  263MOL   O11347797   1.292   3.839   4.890  0.1656  0.1010  0.3473
  263MOL   O11447798   1.183   3.730   4.721  0.2493 -0.5120 -0.1476
  263MOL   H11547799   1.305   3.540   4.928 -1.0342  0.4534 -0.7038
  263MOL   H11647800   1.339   3.444   4.795  1.1753 -0.3489 -1.2150
  263MOL   H11747801   1.488   3.707   4.818  0.5482 -0.9006  0.3814
  263MOL   H11847802   1.107   3.780   4.743  0.0007 -1.2522  0.6908
  263MOL   C11947803   1.433   3.620   4.629 -0.3707 -1.0386  0.3798
  263MOL   C12047804   1.577   3.562   4.594  0.2149 -0.2903  0.0094
  263MOL   C12147805   1.691   3.663   4.621  0.1698  0.3288  1.2843
  263MOL   O12247806   1.673   3.777   4.661 -0.0888  0.4448 -0.3406
  263MOL   O12347807   1.805   3.596   4.623 -0.0362 -0.4207 -0.8235
  263MOL   H12447808   1.408   3.714   4.582 -0.8904 -0.3127  2.0596
  263MOL   H12547809   1.358   3.549   4.594  0.3641 -1.7336  0.1843
  263MOL   H12647810   1.600   3.492   4.675 -1.7952 -0.4747  0.4544
  263MOL   H12747811   1.873   3.660   4.640  1.2390 -1.5583 -1.5420
  263MOL   C12847812   1.590   3.488   4.462 -0.0741  0.1462 -0.1921
  263MOL   C12947813   1.534   3.341   4.474  0.4906  0.0332  0.2949
  263MOL   C13047814   1.650   3.239   4.479 -0.1810 -0.3567  0.2436
  263MOL   O13147815   1.774   3.259   4.459 -0.0487 -0.1256 -0.0290
  263MOL   O13247816   1.601   3.118   4.513  1.0295 -0.1533 -0.3274
  263MOL   H13347817   1.693   3.497   4.427  1.4374  2.6440  4.4569
  263MOL   H13447818   1.535   3.551   4.393 -0.9515 -0.7833 -0.3482
  263MOL   H13547819   1.472   3.333   4.563 -0.0152  1.6894  0.1055
  263MOL   H13647820   1.668   3.052   4.505  2.4249  1.4387 -2.7638
  263MOL   C13747821   1.426   3.319   4.358  0.3690 -0.3366 -0.1503
  263MOL   C13847822   1.430   3.199   4.264  0.2525 -0.1283 -0.0102
  263MOL   C13947823   1.537   3.196   4.155 -0.5286 -0.5857  0.2836
  263MOL   O14047824   1.532   3.115   4.067 -0.0126 -0.1154  0.0446
  263MOL   O14147825   1.624   3.303   4.160 -0.2109 -0.1861  0.2880
  263MOL   H14247826   1.411   3.411   4.302  1.4700  0.1726  0.3839
  263MOL   H14347827   1.332   3.309   4.413 -1.1480  1.0626 -2.3948
  263MOL   H14447828   1.466   3.117   4.327  0.7520 -0.3016 -0.5255
  263MOL   H14547829   1.686   3.301   4.089  0.6166  1.0961  0.9549
  263MOL   C14647830   1.293   3.135   4.230 -0.2418  0.0325 -0.0830
  263MOL   C14747831   1.180   3.221   4.151 -0.3139 -0.0983  0.4424
  263MOL   C14847832   1.240   3.280   4.027 -1.0387 -1.0923 -0.3892
  263MOL   O14947833   1.241   3.405   4.001 -0.2599  0.2790 -0.0218
  263MOL   O15047834   1.307   3.198   3.951  0.3855  0.1780  0.1930
  263MOL   H15147835   1.256   3.091   4.322  1.5349 -1.6987 -0.1710
  263MOL   H15247836   1.316   3.054   4.161  0.7589  1.7113 -1.7833
  263MOL   H15347837   1.101   3.152   4.122 -0.3831  0.2707 -0.2389
  263MOL   H15447838   1.303   3.104   3.963  0.4896  0.0214 -0.9255
  263MOL   C15547839   1.110   3.334   4.233 -0.0420 -0.3738  0.1547
  263MOL   C15647840   1.040   3.300   4.366 -0.1230  0.7873  0.4165
  263MOL   C15747841   0.901   3.238   4.326  0.4673  0.8977  0.6439
  263MOL   O15847842   0.881   3.114   4.321  0.3124 -0.1441 -0.3851
  263MOL   O15947843   0.815   3.342   4.289 -0.2885  0.6421 -0.2797
  263MOL   H16047844   1.041   3.383   4.163 -0.0782  2.4470  2.1086
  263MOL   H16147845   1.185   3.411   4.250 -0.2864  0.0362 -0.5940
  263MOL   H16247846   1.085   3.215   4.417  0.5335 -0.2460 -1.8231
  263MOL   H16347847   0.729   3.311   4.263 -0.9893  3.7062 -1.8307
  263MOL   C16447848   1.027   3.420   4.459  0.4146  0.3511 -0.3884
  263MOL   C16547849   0.987   3.363   4.599  0.1367  0.3883 -0.0720
  263MOL   C16647850   0.925   3.461   4.691  0.0318 -0.3507  0.2007
  263MOL   O16747851   0.867   3.436   4.793  0.3124  0.1059  0.0940
  263MOL   O16847852   0.946   3.592   4.654 -0.1991 -0.9231 -0.1437
  263MOL   H16947853   0.950   3.491   4.431 -0.8808  0.6036  3.4294
  263MOL   H17047854   1.125   3.467   4.472  0.3485  0.4936 -0.4060
  263MOL   H17147855   0.905   3.292   4.585 -1.3048  1.3019  3.3562
  263MOL   H17247856   0.982   3.593   4.567 -2.0590 -0.7000 -0.9400
  263MOL   C17347857   1.119   3.308   4.668 -0.5532 -0.2740  0.1459
  263MOL   C17447858   1.095   3.181   4.749 -0.0604  0.6239 -0.3989
  263MOL   C17547859   1.037   3.061   4.676  0.4158 -0.2458  0.2699
  263MOL   O17647860   1.100   3.003   4.590 -0.1566  0.4228  0.1483
  263MOL   O17747861   0.905   3.032   4.705  0.7263  0.2701 -0.2555
  263MOL   H17847862   1.154   3.383   4.739  2.9187 -1.5763 -0.1002
  263MOL   H17947863   1.202   3.294   4.598 -0.7165 -0.4383 -0.0152
  263MOL   H18047864   1.194   3.154   4.785 -0.5707  0.2058  0.7000
  263MOL   H18147865   0.856   2.974   4.650 -1.5898  0.3873  1.5951
  263MOL   H18247866   1.035   3.201   4.838 -1.2865 -0.4904 -0.9527
  264MOL     C147867   5.696   5.017   1.468  0.0731 -0.6026  0.2665
  264MOL     C247868   5.641   5.069   1.333  0.0650  0.7218 -0.6149
  264MOL     C347869   5.526   4.981   1.276 -0.7338 -0.7529 -0.0858
  264MOL     O447870   5.427   5.019   1.217 -0.0877 -0.0805  0.3031
  264MOL     O547871   5.547   4.850   1.294 -0.4828 -0.9085 -0.1941
  264MOL     H647872   5.711   5.105   1.531 -2.2805  0.3095 -0.4096
  264MOL     H747873   5.640   4.938   1.517  0.3522  0.5426  2.5032
  264MOL     H847874   5.597   5.165   1.363 -0.4597 -0.3416  2.2387
  264MOL     H947875   5.637   4.839   1.323 -0.9161  0.6586  1.9189
  264MOL    H1047876   5.800   4.986   1.458  0.2952 -0.3779  1.8034
  264MOL    C1147877   5.755   5.116   1.239 -0.0289 -0.3386  0.7872
  264MOL    C1247878   5.726   5.211   1.125  0.6367 -0.1988  0.6543
  264MOL    C1347879   5.693   5.136   0.997  1.1171  0.3418  0.4747
  264MOL    O1447880   5.724   5.020   0.984  0.0775  0.1554  0.7136
  264MOL    O1547881   5.611   5.210   0.920  0.6290  0.3382  0.0695
  264MOL    H1647882   5.815   5.029   1.215 -0.7084 -0.3395 -1.0011
  264MOL    H1747883   5.816   5.171   1.310  0.3049  1.0867 -0.5951
  264MOL    H1847884   5.636   5.271   1.142 -0.3546 -0.8560 -2.0735
  264MOL    H1947885   5.573   5.149   0.858  1.1573 -1.6010  1.6197
  264MOL    C2047886   5.831   5.320   1.092 -0.0444  0.0134  0.4573
  264MOL    C2147887   5.778   5.462   1.055  0.2328 -0.0068  0.1440
  264MOL    C2247888   5.890   5.551   1.008 -0.6779 -0.0261  1.1173
  264MOL    O2347889   5.957   5.629   1.070 -0.3080  0.2024  0.4865
  264MOL    O2447890   5.907   5.531   0.873 -0.1929  0.5152  0.0997
  264MOL    H2547891   5.891   5.298   1.003 -1.7958 -1.9240 -0.3001
  264MOL    H2647892   5.916   5.312   1.160  0.9943 -1.4699 -0.9597
  264MOL    H2747893   5.708   5.460   0.972  0.2219 -0.7991  0.1639
  264MOL    H2847894   5.978   5.582   0.838 -0.7655 -0.0142 -1.9127
  264MOL    C2947895   5.719   5.532   1.180  0.8169 -0.0977 -0.7432
  264MOL    C3047896   5.603   5.640   1.154 -0.2933 -0.2824  0.3643
  264MOL    C3147897   5.479   5.552   1.124  0.0668  1.5104  0.1234
  264MOL    O3247898   5.418   5.548   1.014 -0.1876 -0.8801  0.1790
  264MOL    O3347899   5.441   5.475   1.228  0.4818  0.0089 -0.0679
  264MOL    H3447900   5.806   5.569   1.233  1.1243 -1.6772 -0.1076
  264MOL    H3547901   5.684   5.459   1.253  2.3973  1.3169  1.4796
  264MOL    H3647902   5.591   5.687   1.251 -0.4382 -1.0095  0.7071
  264MOL    H3747903   5.370   5.420   1.198  1.2068 -0.8881 -0.1815
  264MOL    C3847904   5.635   5.754   1.053  1.5475 -0.2957 -0.5683
  264MOL    C3947905   5.533   5.866   1.047 -0.3316  0.2247 -0.4348
  264MOL    C4047906   5.406   5.836   0.964 -0.2425 -0.3108 -0.0383
  264MOL    O4147907   5.420   5.791   0.857 -0.6364 -0.1785 -0.3202
  264MOL    O4247908   5.289   5.878   1.019 -0.1368  0.0988  0.7577
  264MOL    H4347909   5.648   5.702   0.958  1.2419 -1.8329  0.2058
  264MOL    H4447910   5.724   5.801   1.095 -0.0578  0.8207  1.7015
  264MOL    H4547911   5.502   5.890   1.149  2.9770 -2.9905  1.4303
  264MOL    H4647912   5.222   5.877   0.953 -0.2043 -0.3766  0.8348
  264MOL    C4747913   5.579   6.004   0.994  0.5981 -0.4017  0.0152
  264MOL    C4847914   5.689   6.084   1.059  0.2958  0.2536 -0.3917
  264MOL    C4947915   5.634   6.182   1.162  0.2309 -0.3522  0.3893
  264MOL    O5047916   5.556   6.275   1.136 -0.4512 -0.1882 -0.4594
  264MOL    O5147917   5.672   6.153   1.293 -0.2848 -0.1160 -0.8243
  264MOL    H5247918   5.498   6.073   0.973  1.1236  0.0656 -0.5262
  264MOL    H5347919   5.610   5.982   0.891 -2.9591 -3.0621 -0.5757
  264MOL    H5447920   5.759   6.022   1.115 -0.9504  0.5706  1.5701
  264MOL    H5547921   5.642   6.229   1.339 -2.1549 -0.4055 -1.5325
  264MOL    C5647922   5.779   6.154   0.951 -0.0400 -0.5216 -0.4057
  264MOL    C5747923   5.896   6.061   0.910 -0.6917 -0.2777  0.2769
  264MOL    C5847924   6.021   6.079   1.007 -0.1227  0.1808 -0.5931
  264MOL    O5947925   6.089   6.180   1.030 -0.2173  0.1981 -0.2644
  264MOL    O6047926   6.052   5.956   1.061 -0.4304  0.1976  0.9377
  264MOL    H6147927   5.824   6.240   1.001  1.0050 -0.8730 -0.7297
  264MOL    H6247928   5.728   6.204   0.869  1.4181  0.1076 -0.9512
  264MOL    H6347929   5.862   5.958   0.911 -0.3270 -0.4242 -1.2038
  264MOL    H6447930   6.126   5.959   1.119 -0.7952  0.9134  1.3737
  264MOL    C6547931   5.933   6.079   0.754 -0.4569  0.3690 -0.5245
  264MOL    C6647932   5.958   5.952   0.667 -0.1425  0.7608  0.1874
  264MOL    C6747933   5.825   5.879   0.631  0.0327  0.6110  0.2045
  264MOL    O6847934   5.774   5.881   0.519 -0.0613 -0.1859  0.2619
  264MOL    O6947935   5.792   5.802   0.733 -0.0081  0.4718 -0.0302
  264MOL    H7047936   6.030   6.127   0.749  0.2543 -0.7313  2.0116
  264MOL    H7147937   5.874   6.156   0.704  0.8370  1.4385 -0.4256
  264MOL    H7247938   6.004   5.984   0.574  0.4708  1.4162  0.7079
  264MOL    H7347939   5.722   5.745   0.705  0.7549 -0.4290 -0.0926
  264MOL    C7447940   6.073   5.867   0.729 -0.3497 -0.0038 -0.0848
  264MOL    C7547941   6.132   5.754   0.648  0.0978  0.8966  0.3402
  264MOL    C7647942   6.195   5.651   0.745  0.0032  0.1075 -0.0562
  264MOL    O7747943   6.161   5.532   0.744  0.2297 -0.3596 -0.6602
  264MOL    O7847944   6.282   5.702   0.836  0.3982 -0.0783  0.2568
  264MOL    H7947945   6.025   5.821   0.816 -1.8116  0.9449 -0.3706
  264MOL    H8047946   6.150   5.933   0.769  1.3367 -0.5771 -2.2926
  264MOL    H8147947   6.055   5.700   0.594  0.1427  1.5737 -0.4120
  264MOL    H8247948   6.310   5.641   0.902 -2.3339 -0.2337  1.3280
  264MOL    C8347949   6.229   5.797   0.537 -0.0767  0.4613  0.1943
  264MOL    C8447950   6.249   5.704   0.417  0.4469 -0.7551 -0.0903
  264MOL    C8547951   6.290   5.559   0.443 -0.0880  0.0136  0.9842
  264MOL    O8647952   6.396   5.516   0.488 -0.0464 -0.4617  0.2817
  264MOL    O8747953   6.200   5.478   0.383 -0.3277  0.2826  0.0378
  264MOL    H8847954   6.322   5.831   0.581  0.2977 -0.7461  0.3461
  264MOL    H8947955   6.187   5.891   0.500 -0.7206  0.3388  0.6071
  264MOL    H9047956   6.149   5.706   0.375 -0.1072  1.3828  1.3086
  264MOL    H9147957   6.229   5.390   0.363 -2.4080 -0.1785 -1.0271
  264MOL    C9247958   6.353   5.761   0.309 -0.9136 -0.4877  0.1032
  264MOL    C9347959   6.286   5.877   0.224 -0.3037  0.5037 -0.4394
  264MOL    C9447960   6.183   5.819   0.131 -0.2425 -0.6658  1.1535
  264MOL    O9547961   6.206   5.748   0.033  0.2207 -0.2928  0.1615
  264MOL    O9647962   6.056   5.854   0.173 -0.1195  0.9901 -0.1869
  264MOL    H9747963   6.389   5.685   0.240  0.3976 -1.2155  1.5656
  264MOL    H9847964   6.436   5.790   0.373 -0.5247  2.4316 -1.6463
  264MOL    H9947965   6.242   5.947   0.296  0.5233  1.0195 -0.4307
  264MOL   H10047966   5.988   5.825   0.114 -1.5562  0.9080  1.4715
  264MOL   C10147967   6.394   5.955   0.143 -0.1050 -0.0110 -0.2695
  264MOL   C10247968   6.503   6.036   0.221 -0.3725  0.2076  0.0033
  264MOL   C10347969   6.430   6.143   0.316 -0.3140 -0.4477  0.2340
  264MOL   O10447970   6.374   6.240   0.281 -0.2390 -0.2729  0.1580
  264MOL   O10547971   6.469   6.119   0.447  0.0513  0.0059  0.3699
  264MOL   H10647972   6.331   6.018   0.080 -0.4139 -0.8574 -0.8142
  264MOL   H10747973   6.447   5.888   0.076 -0.9663 -2.8821  1.8525
  264MOL   H10847974   6.558   5.970   0.288 -0.8572  1.2339  1.4547
  264MOL   H10947975   6.462   6.202   0.493 -0.8141  0.9213 -1.3527
  264MOL   C11047976   6.595   6.100   0.117 -0.9890 -0.2572 -0.3475
  264MOL   C11147977   6.715   6.188   0.164  0.3323 -0.4225 -0.6529
  264MOL   C11247978   6.773   6.268   0.045 -0.0784  0.1651  0.6377
  264MOL   O11347979   6.748   6.252   7.780  0.2217 -0.1453  1.0323
  264MOL   O11447980   6.864   6.354   0.091 -0.5810 -0.1504 -0.1982
  264MOL   H11547981   6.533   6.165   0.056 -0.4542  0.6918  0.1095
  264MOL   H11647982   6.632   6.020   0.052 -0.3917 -0.7854  0.6236
  264MOL   H11747983   6.677   6.266   0.229 -1.1467 -1.8475  0.2330
  264MOL   H11847984   6.860   6.356   0.185  0.4465 -3.2283 -0.0402
  264MOL   C11947985   6.827   6.090   0.243  0.2142 -0.4339  0.0105
  264MOL   C12047986   6.818   6.109   0.397 -0.1984 -0.3841 -0.4059
  264MOL   C12147987   6.829   6.254   0.455  0.3018 -0.3438  0.0602
  264MOL   O12247988   6.867   6.354   0.392  0.2129  0.2425 -0.0244
  264MOL   O12347989   6.794   6.262   0.584  0.2542  0.4464  0.4311
  264MOL   H12447990   6.927   6.117   0.209  0.4727 -4.1140 -2.4285
  264MOL   H12547991   6.816   5.987   0.208  1.5134 -0.4566 -0.3611
  264MOL   H12647992   6.717   6.082   0.429  0.3067  0.7251  2.1634
  264MOL   H12747993   6.783   6.349   0.619  1.2858 -0.2333  2.5515
  264MOL   C12847994   6.912   6.019   0.489 -0.0477 -0.9210 -0.5515
  264MOL   C12947995   7.066   6.038   0.473  0.7875 -0.2414  1.1535
  264MOL   C13047996   7.113   5.946   0.361 -0.3420  0.0221 -0.1011
  264MOL   O13147997   7.122   5.821   0.366  0.3583  0.0779 -0.0097
  264MOL   O13247998   7.141   6.018   0.251 -0.5821  0.0818 -0.0017
  264MOL   H13347999   6.885   5.917   0.463  0.5525 -1.3397  0.4685
  264MOL   H13448000   6.876   6.029   0.591  0.0908  2.1357 -0.7471
  264MOL   H13548001   7.085   6.142   0.449  0.4882 -0.5536 -0.5169
  264MOL   H13648002   7.183   5.965   0.185 -0.2420 -0.0002  0.2782
  264MOL   C13748003   7.144   5.998   0.608  0.4303  0.0165  0.3765
  264MOL   C13848004   7.207   6.115   0.665 -0.1115 -0.4066  0.3068
  264MOL   C13948005   7.104   6.212   0.723  0.6757  0.7377 -0.5912
  264MOL   O14048006   7.030   6.190   0.821 -0.5790  0.4031 -0.2940
  264MOL   O14148007   7.104   6.335   0.659  0.2707  0.4510 -0.4206
  264MOL   H14248008   7.220   5.922   0.593  0.5553  0.2908 -0.3830
  264MOL   H14348009   7.073   5.940   0.667 -0.9550 -1.3586 -2.5658
  264MOL   H14448010   7.240   6.064   0.755  0.6525 -0.7189 -0.1464
  264MOL   H14548011   7.054   6.399   0.706  0.1309 -1.7480  2.5252
  264MOL   C14648012   7.328   6.170   0.592 -0.2751  0.1680 -0.0519
  264MOL   C14748013   7.451   6.182   0.691  0.0100  0.2489 -0.1446
  264MOL   C14848014   7.498   6.043   0.726 -1.0270  1.0194 -0.9221
  264MOL   O14948015   7.511   5.993   0.839  0.2967  0.4803  0.1992
  264MOL   O15048016   7.521   5.973   0.613  0.2855 -0.3170 -0.3425
  264MOL   H15148017   7.321   6.258   0.528  0.4154  0.1166 -0.2088
  264MOL   H15248018   7.355   6.103   0.511  1.2286 -0.3139  0.8289
  264MOL   H15348019   7.533   6.226   0.634 -0.7354  0.4050 -1.1041
  264MOL   H15448020   7.548   5.889   0.648 -0.8805 -0.2962  0.6079
  264MOL   C15548021   7.427   6.281   0.808  0.3475 -0.6333 -0.3709
  264MOL   C15648022   7.554   6.370   0.856  0.1094 -0.3672 -0.3110
  264MOL   C15748023   7.641   6.304   0.964 -0.1171 -0.6100  0.4081
  264MOL   O15848024   7.762   6.307   0.946 -0.1456  0.0055  0.1083
  264MOL   O15948025   7.565   6.241   1.058 -0.0935  0.0300 -0.3730
  264MOL   H16048026   7.378   6.230   0.891  0.2225  1.2703  0.7615
  264MOL   H16148027   7.346   6.350   0.782  1.2260  1.5626  2.4662
  264MOL   H16248028   7.624   6.383   0.773  0.3353  0.8194  0.0525
  264MOL   H16348029   7.628   6.199   1.114 -1.0346  0.7513  1.2782
  264MOL   C16448030   7.508   6.510   0.903 -0.5312  0.0789  1.1393
  264MOL   C16548031   7.422   6.602   0.805 -0.1742  0.1722 -0.5714
  264MOL   C16648032   7.489   6.578   0.666 -0.7598  0.2348 -0.5445
  264MOL   O16748033   7.435   6.528   0.571  0.4780 -0.4347  0.1223
  264MOL   O16848034   7.624   6.618   0.670  0.3323  0.2284 -0.3990
  264MOL   H16948035   7.600   6.557   0.937  0.5943 -2.3013  1.4683
  264MOL   H17048036   7.449   6.508   0.995 -0.2895 -0.6986  1.2756
  264MOL   H17148037   7.321   6.561   0.802 -0.1567  0.0433  0.5310
  264MOL   H17248038   7.675   6.579   0.601 -0.6244 -2.2841  0.2746
  264MOL   C17348039   7.416   6.748   0.854 -0.2445  0.3782  0.2737
  264MOL   C17448040   7.311   6.842   0.793 -0.0697 -0.4868  0.3018
  264MOL   C17548041   7.174   6.832   0.856  0.2459 -0.6558  0.4301
  264MOL   O17648042   7.144   6.747   0.945 -0.0247  0.3369  0.3557
  264MOL   O17748043   7.089   6.928   0.811 -0.3121  1.2693  0.7133
  264MOL   H17848044   7.518   6.782   0.837 -0.4953  0.3217 -1.4371
  264MOL   H17948045   7.420   6.746   0.963  0.8270  1.7473  0.2732
  264MOL   H18048046   7.354   6.943   0.797  0.4144 -0.6338 -0.8193
  264MOL   H18148047   7.009   6.936   0.861 -2.5572  1.7612 -2.7308
  264MOL   H18248048   7.304   6.805   0.691 -0.9083 -0.6837  0.4296
  265MOL     C148049   0.150   3.111   0.386 -0.3564 -0.8516 -0.2751
  265MOL     C248050   0.177   3.054   0.248  0.3493  0.5930  0.3736
  265MOL     C348051   0.201   3.169   0.145  0.2268  0.6995 -0.8164
  265MOL     O448052   0.311   3.196   0.094  0.2321  0.1723 -0.3492
  265MOL     O548053   0.088   3.242   0.129 -0.0324 -0.3123  0.1733
  265MOL     H648054   0.120   3.032   0.454  0.1906 -0.2617  0.6548
  265MOL     H748055   0.235   3.149   0.442  0.1157 -1.3189 -0.6698
  265MOL     H848056   0.275   3.011   0.266  0.5893  0.3177 -1.5331
  265MOL     H948057   0.106   3.311   0.066 -2.5269 -0.1838 -0.4564
  265MOL    H1048058   0.076   3.191   0.389 -0.1569 -0.5854 -1.8228
  265MOL    C1148059   0.067   2.963   0.185  0.3041 -0.1587  0.0036
  265MOL    C1248060   0.006   2.850   0.272 -0.7365 -0.7543  0.5123
  265MOL    C1348061   0.097   2.727   0.271  0.5702  0.0613  0.7841
  265MOL    O1448062   0.174   2.699   0.175  0.1487  0.0172  0.0615
  265MOL    O1548063   0.091   2.656   0.385  1.1612 -0.0254  0.0477
  265MOL    H1648064   0.116   2.925   0.095 -2.1669  0.0312 -1.4502
  265MOL    H1748065   7.837   3.014   0.137 -0.6443 -1.9798 -0.3294
  265MOL    H1848066   0.015   2.875   0.377  3.2045 -1.2080  0.3366
  265MOL    H1948067   0.016   2.684   0.434  2.0344 -0.3733  1.6114
  265MOL    C2048068   7.710   2.818   0.231 -0.6411  0.1933 -0.2054
  265MOL    C2148069   7.606   2.915   0.300  1.2570  0.5082  0.6893
  265MOL    C2248070   7.584   2.868   0.441  0.5714 -0.7745  0.2020
  265MOL    O2348071   7.590   2.752   0.483  0.7368  0.0086 -0.2699
  265MOL    O2448072   7.543   2.970   0.521  0.3256 -0.1982 -0.6512
  265MOL    H2548073   7.700   2.712   0.252  0.3646 -0.0645 -0.9784
  265MOL    H2648074   7.704   2.827   0.122  1.3048 -0.1359 -0.3612
  265MOL    H2748075   7.656   3.012   0.294  0.4196  0.9266  0.4562
  265MOL    H2848076   7.544   2.947   0.613  0.5867 -0.1067 -0.6318
  265MOL    C2948077   7.469   2.922   0.227  0.4513 -0.3066 -0.3645
  265MOL    C3048078   7.436   3.044   0.131 -0.6738  0.2774  0.2895
  265MOL    C3148079   7.542   3.060   0.022 -0.3510  0.4246  0.3497
  265MOL    O3248080   7.589   3.169   7.845 -0.5118 -0.1589  0.2884
  265MOL    O3348081   7.568   2.949   7.805 -0.0006  0.2352 -0.1695
  265MOL    H3448082   7.389   2.903   0.299  0.2611 -3.2043 -1.2783
  265MOL    H3548083   7.465   2.831   0.168 -1.7749 -0.5118  0.0550
  265MOL    H3648084   7.346   3.011   0.078  0.2583 -0.3304 -0.9558
  265MOL    H3748085   7.641   2.960   7.746 -0.4897 -1.0488 -1.0270
  265MOL    C3848086   7.406   3.167   0.213 -0.4323  0.0159 -0.0842
  265MOL    C3948087   7.334   3.280   0.131  0.2969 -0.0097 -0.0177
  265MOL    C4048088   7.314   3.402   0.230 -0.6045  0.2103  0.2016
  265MOL    O4148089   7.355   3.410   0.347 -0.3668 -0.2769  0.2670
  265MOL    O4248090   7.236   3.499   0.175  0.3273 -0.0473 -0.1536
  265MOL    H4348091   7.495   3.209   0.259  0.9768 -1.1894 -1.6728
  265MOL    H4448092   7.343   3.135   0.296  1.1441  0.8438  1.4542
  265MOL    H4548093   7.403   3.324   0.059 -0.5872 -0.9206 -1.4528
  265MOL    H4648094   7.233   3.554   0.252 -3.0411 -2.2381  1.3907
  265MOL    C4748095   7.206   3.242   0.051  0.5076  1.0634 -0.0149
  265MOL    C4848096   7.195   3.317   7.771  0.2344 -0.1070 -0.5444
  265MOL    C4948097   7.051   3.362   7.745  0.1347  0.6116  0.3052
  265MOL    O5048098   6.977   3.399   7.834  0.0510 -0.0460  0.1244
  265MOL    O5148099   7.013   3.348   7.615 -0.4744 -0.1366 -0.0332
  265MOL    H5248100   7.119   3.255   0.115  0.9331 -0.4800  0.9088
  265MOL    H5348101   7.188   3.136   0.037  0.0302  1.3938 -1.9897
  265MOL    H5448102   7.251   3.409   7.783 -2.2138  1.3961 -0.3091
  265MOL    H5548103   6.925   3.376   7.595  0.5642  2.8488 -0.6713
  265MOL    C5648104   7.269   3.243   7.655 -0.2636 -0.2720 -0.5053
  265MOL    C5748105   7.324   3.336   7.540 -0.0096 -0.4383 -0.2532
  265MOL    C5848106   7.293   3.293   7.399  0.8635 -0.7400 -0.2997
  265MOL    O5948107   7.204   3.341   7.333  0.2633  0.6233  0.1333
  265MOL    O6048108   7.376   3.198   7.358  0.2181  0.6557  0.4315
  265MOL    H6148109   7.208   3.163   7.612 -0.7867  1.4313 -3.0369
  265MOL    H6248110   7.355   3.196   7.703 -1.2960 -0.7595  0.9236
  265MOL    H6348111   7.286   3.435   7.564  1.4564 -0.2642  1.3798
  265MOL    H6448112   7.457   3.189   7.406 -0.7027 -3.4477  1.4137
  265MOL    C6548113   7.472   3.376   7.567 -0.5160  0.0181 -0.6325
  265MOL    C6648114   7.522   3.516   7.525  0.0942  0.1828 -0.2674
  265MOL    C6748115   7.552   3.517   7.372  0.3345  0.5572 -0.1246
  265MOL    O6848116   7.565   3.419   7.301  0.2525 -1.1282 -0.1200
  265MOL    O6948117   7.583   3.642   7.336 -0.0290 -0.7986  0.5009
  265MOL    H7048118   7.538   3.299   7.526  0.0093  1.2992 -2.2580
  265MOL    H7148119   7.494   3.361   7.672 -1.1549 -1.1740 -0.6563
  265MOL    H7248120   7.446   3.593   7.537 -0.1890  0.1431 -1.6199
  265MOL    H7348121   7.630   3.631   7.254  0.1607 -2.7351  0.8496
  265MOL    C7448122   7.645   3.579   7.596  0.0301 -0.4189 -0.4512
  265MOL    C7548123   7.629   3.593   7.751  0.3863 -0.0503  0.0470
  265MOL    C7648124   7.560   3.726   7.790  0.4484  0.0914 -0.1125
  265MOL    O7748125   7.612   3.836   7.809 -0.4423  0.5014 -0.5207
  265MOL    O7848126   7.428   3.711   7.788  0.1085  0.4053  0.1057
  265MOL    H7948127   7.660   3.681   7.561  1.9933 -0.0990  1.2075
  265MOL    H8048128   7.726   3.513   7.567 -1.1479 -1.6452 -1.0002
  265MOL    H8148129   7.559   3.518   7.788  0.4000  1.0462  2.3992
  265MOL    H8248130   7.386   3.792   7.811 -0.3216  0.1435  0.2484
  265MOL    C8348131   7.762   3.574   7.830  0.0780 -0.1376  0.6641
  265MOL    C8448132   7.789   3.601   0.125  1.0477  0.1968 -0.2676
  265MOL    C8548133   0.080   3.587   0.160 -0.5314  0.0054  0.0674
  265MOL    O8648134   0.150   3.502   0.103  0.2971 -0.3241 -1.0032
  265MOL    O8748135   0.119   3.683   0.252  0.2864  0.0099 -0.0348
  265MOL    H8848136   7.834   3.631   7.770 -1.5618  1.5511  0.2604
  265MOL    H8948137   7.784   3.468   7.818  2.7492  0.3417  0.8885
  265MOL    H9048138   7.760   3.705   0.139 -0.8389 -0.4880  1.0397
  265MOL    H9148139   0.044   3.733   0.281 -0.5293 -1.5523  0.6397
  265MOL    C9248140   7.700   3.511   0.214 -0.0661 -0.2246  0.3586
  265MOL    C9348141   7.676   3.529   0.367 -0.4689 -0.0715 -0.3153
  265MOL    C9448142   7.588   3.651   0.398 -0.7270 -0.3773 -0.3594
  265MOL    O9548143   7.596   3.724   0.496  0.1092 -0.0058  0.2797
  265MOL    O9648144   7.498   3.678   0.299 -0.4932 -0.2715 -0.0482
  265MOL    H9748145   7.745   3.412   0.204  0.5457  0.2206 -1.4694
  265MOL    H9848146   7.609   3.503   0.155  1.1652 -0.3249 -1.5637
  265MOL    H9948147   7.604   3.449   0.384  2.8205 -2.8055  1.4120
  265MOL   H10048148   7.433   3.744   0.320  2.8692  2.8413  1.1380
  265MOL   C10148149   7.796   3.498   0.461 -0.0720 -0.2822  0.6472
  265MOL   C10248150   7.761   3.477   0.614  0.3052 -0.2538  0.1317
  265MOL   C10348151   0.046   3.442   0.675 -0.1639 -0.2135 -0.1023
  265MOL   O10448152   0.107   3.334   0.663 -0.0138 -0.2042 -0.2945
  265MOL   O10548153   0.115   3.549   0.715  0.3742 -0.1225 -0.0333
  265MOL   H10648154   0.026   3.568   0.453 -0.0702 -0.4201 -0.4971
  265MOL   H10748155   7.843   3.408   0.420  0.1619 -1.0519  2.5230
  265MOL   H10848156   7.727   3.570   0.661 -0.1322  0.1779 -1.0099
  265MOL   H10948157   0.202   3.516   0.734 -0.0491 -1.2370  0.0107
  265MOL   C11048158   7.658   3.365   0.640  0.5886 -0.2423 -0.3084
  265MOL   C11148159   7.511   3.408   0.653 -0.0649 -0.8753 -0.2962
  265MOL   C11248160   7.497   3.504   0.771  0.9717  0.0831 -0.1786
  265MOL   O11348161   7.560   3.500   0.875  0.2424 -0.1578 -0.2617
  265MOL   O11448162   7.415   3.610   0.732  0.4327 -0.2414  0.1984
  265MOL   H11548163   7.672   3.314   0.735 -1.6816 -0.5522 -0.1062
  265MOL   H11648164   7.669   3.294   0.558  0.1555 -0.4801 -0.1605
  265MOL   H11748165   7.489   3.461   0.560 -0.3558  1.8234  1.2540
  265MOL   H11848166   7.424   3.679   0.796  0.3948 -0.7055  0.6977
  265MOL   C11948167   7.417   3.292   0.656 -0.1114 -0.2410  0.1732
  265MOL   C12048168   7.267   3.318   0.659  0.7762  0.7040 -0.2251
  265MOL   C12148169   7.197   3.333   0.806 -0.4788 -0.5267  0.0776
  265MOL   O12248170   7.261   3.368   0.905  0.1090  0.0030  0.4866
  265MOL   O12348171   7.062   3.341   0.792 -0.0351 -0.3476 -0.2788
  265MOL   H12448172   7.442   3.241   0.748 -0.8829 -0.0431  0.4995
  265MOL   H12548173   7.444   3.224   0.575  1.6053 -1.7849  2.0174
  265MOL   H12648174   7.246   3.417   0.616 -2.1084  1.2281  2.2853
  265MOL   H12748175   7.022   3.363   0.875 -1.7754  0.9956 -1.4390
  265MOL   C12848176   7.204   3.214   0.563 -0.4358 -0.7912  0.6442
  265MOL   C12948177   7.053   3.228   0.515 -0.6572  1.3882 -0.0977
  265MOL   C13048178   7.028   3.096   0.436 -0.9942 -0.0857 -0.5656
  265MOL   O13148179   7.022   2.991   0.501 -0.0173  0.0273  0.3575
  265MOL   O13248180   7.013   3.111   0.299  0.5177  0.6565 -0.0965
  265MOL   H13348181   7.222   3.109   0.587 -0.5631 -0.9624 -0.0221
  265MOL   H13448182   7.256   3.224   0.468 -2.5363  4.4861 -0.1649
  265MOL   H13548183   6.995   3.231   0.607  1.8459  2.2663  1.4921
  265MOL   H13648184   6.985   3.034   0.252 -1.1110  1.4016 -0.3933
  265MOL   C13748185   7.030   3.353   0.436  0.2008  0.1046 -0.4884
  265MOL   C13848186   6.888   3.397   0.405  0.3938  0.7569 -0.1454
  265MOL   C13948187   6.886   3.502   0.296 -0.4150  0.0273 -0.6191
  265MOL   O14048188   6.979   3.575   0.283 -0.0979 -0.2708  0.5149
  265MOL   O14148189   6.767   3.512   0.233 -0.0062  0.2638  0.2147
  265MOL   H14248190   7.078   3.333   0.340  0.8756 -0.6078 -0.0158
  265MOL   H14348191   7.075   3.444   0.474  0.2251 -0.7248  1.5302
  265MOL   H14448192   6.849   3.306   0.359  1.0229  1.6478 -2.4593
  265MOL   H14548193   6.785   3.570   0.161 -0.7599  0.9377  0.5612
  265MOL   C14648194   6.810   3.447   0.526 -0.1009 -0.1873 -0.1694
  265MOL   C14748195   6.654   3.434   0.512  0.0517 -0.2283  0.3428
  265MOL   C14848196   6.578   3.526   0.604  0.4461 -0.2917  0.5341
  265MOL   O14948197   6.494   3.484   0.690  0.8796 -0.0393 -0.2116
  265MOL   O15048198   6.607   3.659   0.577 -0.0917 -0.5581 -0.1151
  265MOL   H15148199   6.838   3.552   0.536 -1.7508  0.2647 -0.2321
  265MOL   H15248200   6.853   3.410   0.620 -1.4601 -1.3239  0.0206
  265MOL   H15348201   6.622   3.464   0.412  1.0264  1.9181  0.6387
  265MOL   H15448202   6.569   3.720   0.638  0.7240  1.6494 -1.7311
  265MOL   C15548203   6.618   3.288   0.545 -0.4792  0.0955  0.1044
  265MOL   C15648204   6.480   3.232   0.499  0.2170  0.2606 -0.1609
  265MOL   C15748205   6.402   3.157   0.610 -1.3000 -0.0881 -0.5966
  265MOL   O15848206   6.386   3.034   0.607  0.0768  0.0421 -0.2167
  265MOL   O15948207   6.363   3.234   0.718 -0.0819  0.2706  0.4669
  265MOL   H16048208   6.642   3.277   0.651  1.9782  1.3864 -0.2723
  265MOL   H16148209   6.690   3.222   0.496 -0.4923  1.9137 -2.4137
  265MOL   H16248210   6.420   3.315   0.462  0.7469  0.8974  0.4073
  265MOL   H16348211   6.374   3.324   0.694  0.2440  0.0236 -0.3541
  265MOL   C16448212   6.492   3.144   0.368 -0.2689  0.4774 -0.3525
  265MOL   C16548213   6.523   3.209   0.231  0.6939  0.1127  0.4404
  265MOL   C16648214   6.398   3.240   0.151  0.2533  0.1757 -0.4876
  265MOL   O16748215   6.374   3.208   0.035  0.2475  0.5410 -0.0783
  265MOL   O16848216   6.307   3.300   0.236  0.4742 -0.3022  0.6229
  265MOL   H16948217   6.393   3.104   0.345  0.4209 -0.3912 -1.8996
  265MOL   H17048218   6.559   3.059   0.384  1.1823  2.0041  1.9375
  265MOL   H17148219   6.566   3.305   0.258 -0.5427  0.5860  0.7625
  265MOL   H17248220   6.229   3.319   0.185 -0.5165 -1.1938  1.7609
  265MOL   C17348221   6.638   3.136   0.147  1.0422 -0.5582  1.1839
  265MOL   C17448222   6.695   3.212   0.014  1.2941  0.6060 -0.4829
  265MOL   C17548223   6.795   3.128   7.788  0.1572  0.4462  0.2781
  265MOL   O17648224   6.883   3.055   7.835  0.4892 -0.1569  0.1673
  265MOL   O17748225   6.781   3.141   7.654  0.4165 -0.1410 -0.1688
  265MOL   H17848226   6.585   3.049   0.107  1.4138 -0.6467  0.8917
  265MOL   H17948227   6.727   3.107   0.202  0.7402 -0.4124  1.7531
  265MOL   H18048228   6.609   3.229   7.803  1.7713  1.1983 -0.9783
  265MOL   H18148229   6.851   3.088   7.618  0.9863  0.5433 -0.0711
  265MOL   H18248230   6.752   3.302   0.035  0.4958  0.9809  0.0682
  266MOL     C148231   6.746   4.540   1.695 -0.7657  0.3119  0.5696
  266MOL     C248232   6.836   4.455   1.604 -0.5688 -0.1824 -0.0835
  266MOL     C348233   6.898   4.544   1.492 -0.0120  0.1352 -0.3308
  266MOL     O448234   7.019   4.570   1.482  1.0385 -0.2267 -0.1279
  266MOL     O548235   6.808   4.608   1.409  0.8807 -0.3215 -0.2760
  266MOL     H648236   6.688   4.489   1.771  0.1982  1.1666  1.9005
  266MOL     H748237   6.806   4.610   1.753 -0.8169 -0.4230  1.5082
  266MOL     H848238   6.925   4.432   1.663 -0.4490 -0.8601 -0.5175
  266MOL     H948239   6.852   4.673   1.356 -0.2297 -0.2976 -1.1958
  266MOL    H1048240   6.674   4.598   1.637 -1.3561 -2.4290 -1.5088
  266MOL    C1148241   6.783   4.323   1.550  0.2524  0.4550 -0.1563
  266MOL    C1248242   6.680   4.331   1.441 -0.0299 -0.2250 -0.0766
  266MOL    C1348243   6.546   4.395   1.481 -0.4505  1.2146 -0.2748
  266MOL    O1448244   6.490   4.473   1.405  0.4113  0.2251  0.5815
  266MOL    O1548245   6.493   4.345   1.594 -0.0833 -0.5760 -0.1039
  266MOL    H1648246   6.735   4.266   1.629  1.4578 -1.3795 -0.7059
  266MOL    H1748247   6.862   4.261   1.507 -0.0453 -0.3351  0.4536
  266MOL    H1848248   6.726   4.398   1.369 -0.8788  0.5890  0.1277
  266MOL    H1948249   6.403   4.370   1.609  0.2012  1.7247 -1.8824
  266MOL    C2048250   6.659   4.190   1.385 -0.8438 -0.2721 -0.5052
  266MOL    C2148251   6.587   4.175   1.245 -0.3697  0.0442 -0.1700
  266MOL    C2248252   6.651   4.270   1.140  0.7928  0.3366  0.2097
  266MOL    O2348253   6.622   4.394   1.123  0.2181  0.0501 -0.7038
  266MOL    O2448254   6.728   4.206   1.051  0.0916 -0.3577  0.1209
  266MOL    H2548255   6.624   4.119   1.460  1.5319 -0.7741  0.2025
  266MOL    H2648256   6.762   4.158   1.365 -0.4551 -0.0608  1.0746
  266MOL    H2748257   6.607   4.073   1.211  1.0471  0.7008 -1.3705
  266MOL    H2848258   6.770   4.269   0.994  0.8980 -1.8331 -0.9316
  266MOL    C2948259   6.435   4.195   1.250  0.1100  0.1269  0.9783
  266MOL    C3048260   6.368   4.138   1.119  0.0162 -0.1031  0.0856
  266MOL    C3148261   6.301   4.256   1.044  0.5927  0.2859 -0.3828
  266MOL    O3248262   6.195   4.316   1.070  0.7439 -0.2428 -0.2166
  266MOL    O3348263   6.385   4.292   0.939 -0.2772 -0.0296 -0.6538
  266MOL    H3448264   6.417   4.303   1.258  1.1011  0.3068  0.9298
  266MOL    H3548265   6.390   4.148   1.337 -0.8762 -0.6165  0.0661
  266MOL    H3648266   6.442   4.096   1.051 -0.1756  0.7922 -0.6863
  266MOL    H3748267   6.334   4.353   0.887 -2.2448 -0.4069  0.8110
  266MOL    C3848268   6.277   4.019   1.149  0.2822 -0.0165 -0.0913
  266MOL    C3948269   6.235   3.929   1.028  0.7830 -0.1800 -0.0163
  266MOL    C4048270   6.144   4.001   0.931 -0.4647 -0.9542 -0.4053
  266MOL    O4148271   6.177   4.028   0.815  0.1669  0.1005 -0.1862
  266MOL    O4248272   6.030   4.031   0.990  0.5936 -0.0529  0.0041
  266MOL    H4348273   6.188   4.061   1.196  0.8079  0.2808  0.6346
  266MOL    H4448274   6.321   3.963   1.231  1.1523  2.2594  1.0532
  266MOL    H4548275   6.327   3.903   0.975 -0.4953  0.1727 -2.4833
  266MOL    H4648276   5.971   4.089   0.944  2.6592  1.6024 -0.6512
  266MOL    C4748277   6.163   3.797   1.065  0.1564  0.4738  0.6545
  266MOL    C4848278   6.270   3.684   1.104  0.0116  0.2857 -0.2280
  266MOL    C4948279   6.297   3.588   0.983 -0.7668  0.7338 -0.3151
  266MOL    O5048280   6.213   3.531   0.920 -0.3258 -0.0165 -0.6402
  266MOL    O5148281   6.431   3.571   0.968  0.1479  0.1587 -0.4339
  266MOL    H5248282   6.098   3.769   0.982  1.1751 -0.3873  0.1260
  266MOL    H5348283   6.101   3.818   1.153 -0.6491 -0.6824  0.3785
  266MOL    H5448284   6.362   3.735   1.132 -1.5196  1.9270  1.9215
  266MOL    H5548285   6.464   3.518   0.897  2.6730  1.5819 -0.3777
  266MOL    C5648286   6.220   3.615   1.239 -0.4447  0.3606 -0.4162
  266MOL    C5748287   6.296   3.486   1.294  0.2483  0.3489  0.1685
  266MOL    C5848288   6.252   3.352   1.233  0.0811 -0.1422  0.0575
  266MOL    O5948289   6.148   3.299   1.262 -0.0282 -0.2343 -0.1815
  266MOL    O6048290   6.346   3.306   1.148  0.6334 -0.2301 -0.2890
  266MOL    H6148291   6.115   3.589   1.229 -0.1828 -0.9249  0.1167
  266MOL    H6248292   6.220   3.693   1.316 -3.4877 -1.6246  1.7125
  266MOL    H6348293   6.404   3.486   1.282  0.0360 -0.9933 -2.1329
  266MOL    H6448294   6.316   3.223   1.113  1.3796 -0.5239 -0.2449
  266MOL    C6548295   6.266   3.491   1.452 -0.3024 -0.0561 -0.5774
  266MOL    C6648296   6.322   3.381   1.543  0.3019  0.1570 -0.8191
  266MOL    C6748297   6.254   3.410   1.685  0.2055 -0.5079 -0.4088
  266MOL    O6848298   6.249   3.517   1.743 -0.0873 -0.0356 -0.5250
  266MOL    O6948299   6.208   3.291   1.735 -0.2527 -0.5250  0.5118
  266MOL    H7048300   6.157   3.485   1.448 -0.3625  0.4642  0.3874
  266MOL    H7148301   6.279   3.589   1.497 -0.5236  1.0731 -2.8901
  266MOL    H7248302   6.272   3.288   1.517  0.2533  0.5350 -2.1077
  266MOL    H7348303   6.163   3.319   1.814  1.4914  0.8500  1.0552
  266MOL    C7448304   6.473   3.368   1.550 -1.1219 -0.0590  0.7034
  266MOL    C7548305   6.528   3.238   1.613  0.6150 -0.9862  0.1987
  266MOL    C7648306   6.537   3.249   1.767  0.2911  0.0271 -0.2961
  266MOL    O7748307   6.587   3.337   1.827 -0.0214 -0.7125 -0.3900
  266MOL    O7848308   6.473   3.146   1.832 -0.0243 -0.1280 -0.2025
  266MOL    H7948309   6.513   3.460   1.592 -2.6875  0.6024  0.7751
  266MOL    H8048310   6.506   3.366   1.446 -0.4123  1.4050  0.8929
  266MOL    H8148311   6.448   3.167   1.591  0.7049 -1.4388  1.3156
  266MOL    H8248312   6.476   3.173   1.922  1.1568  1.5785 -0.7426
  266MOL    C8348313   6.663   3.202   1.551 -0.8666 -0.2130  0.7370
  266MOL    C8448314   6.704   3.055   1.582  0.4645  0.8143  0.1177
  266MOL    C8548315   6.852   3.041   1.536  1.1527  0.7289  0.0519
  266MOL    O8648316   6.882   3.054   1.419 -0.3987 -0.2616  0.1120
  266MOL    O8748317   6.936   3.048   1.645 -0.1466  0.4214 -0.0089
  266MOL    H8848318   6.747   3.263   1.583 -1.3926  0.6791  0.4226
  266MOL    H8948319   6.658   3.211   1.442 -1.3458  0.9800  0.8589
  266MOL    H9048320   6.705   3.041   1.690 -1.3507  0.4183  0.0936
  266MOL    H9148321   7.022   3.051   1.605 -0.6990 -1.0428 -1.3783
  266MOL    C9248322   6.617   2.937   1.527  0.6382 -0.7600  0.2698
  266MOL    C9348323   6.608   2.905   1.374 -0.0586  0.7511  0.2108
  266MOL    C9448324   6.546   3.024   1.300 -0.6322  0.1581  0.4495
  266MOL    O9548325   6.429   3.058   1.321  0.2812 -0.2304  0.6514
  266MOL    O9648326   6.635   3.087   1.215  0.3628 -0.1520 -0.2131
  266MOL    H9748327   6.515   2.949   1.560  0.2724 -0.2991 -0.9755
  266MOL    H9848328   6.635   2.843   1.579  0.6328 -1.2044 -0.5131
  266MOL    H9948329   6.711   2.874   1.354  0.7664  2.5523  1.5132
  266MOL   H10048330   6.586   3.149   1.163 -1.3530 -1.0184  0.3161
  266MOL   C10148331   6.528   2.776   1.343 -0.0541 -0.0552 -0.6844
  266MOL   C10248332   6.546   2.706   1.208  0.1189  0.0594  0.4379
  266MOL   C10348333   6.437   2.763   1.110  0.0976  0.6113  0.0162
  266MOL   O10448334   6.320   2.784   1.141 -0.2476 -0.0610  0.3390
  266MOL   O10548335   6.491   2.789   0.986 -0.1625 -0.3699 -0.1327
  266MOL   H10648336   6.423   2.796   1.362 -0.0639 -2.1064  1.6909
  266MOL   H10748337   6.545   2.706   1.425 -0.0754  0.4583 -0.2384
  266MOL   H10848338   6.646   2.717   1.168  0.7214 -0.7050  1.7053
  266MOL   H10948339   6.432   2.837   0.931 -3.7506 -0.5248  3.3828
  266MOL   C11048340   6.543   2.551   1.218  0.1581 -0.2752  0.2778
  266MOL   C11148341   6.408   2.466   1.223 -0.3762 -0.1569  0.0300
  266MOL   C11248342   6.332   2.459   1.098 -0.1476 -0.1659  0.2288
  266MOL   O11348343   6.221   2.513   1.082 -0.0582 -0.6295  0.0278
  266MOL   O11448344   6.399   2.410   0.993 -0.2984 -0.2231 -0.2123
  266MOL   H11548345   6.615   2.524   1.295  1.4484  1.8911 -0.1358
  266MOL   H11648346   6.595   2.522   1.127 -0.0318 -0.7508  0.3192
  266MOL   H11748347   6.449   2.367   1.240 -1.9462 -0.7604  0.4321
  266MOL   H11848348   6.358   2.451   0.918  0.3586  1.9714  0.5890
  266MOL   C11948349   6.314   2.496   1.347 -0.0297 -0.2717 -0.0338
  266MOL   C12048350   6.375   2.467   1.484  0.0933 -0.3057 -0.5569
  266MOL   C12148351   6.378   2.314   1.499 -0.1346  0.5534 -0.3897
  266MOL   O12248352   6.296   2.251   1.565  0.2790 -0.0001 -0.1838
  266MOL   O12348353   6.491   2.265   1.432 -0.0163  0.8677 -0.0425
  266MOL   H12448354   6.226   2.433   1.328  1.9526 -2.4700 -2.3501
  266MOL   H12548355   6.285   2.601   1.348  2.2449  0.3752 -1.0463
  266MOL   H12648356   6.473   2.514   1.482  0.0320 -0.1020  0.5025
  266MOL   H12748357   6.496   2.172   1.449  0.5229  0.7936 -0.5790
  266MOL   C12848358   6.300   2.534   1.595 -0.1740 -0.3508  0.8206
  266MOL   C12948359   6.367   2.521   1.731 -0.3420  0.2885 -1.4301
  266MOL   C13048360   6.259   2.526   1.845 -0.6236  0.7799 -1.1503
  266MOL   O13148361   6.264   2.464   1.955 -0.1501 -0.0960  0.6873
  266MOL   O13248362   6.159   2.608   1.811  0.2306 -0.1791 -0.3654
  266MOL   H13348363   6.202   2.486   1.595 -0.6364  0.5485 -0.4104
  266MOL   H13448364   6.265   2.633   1.563  0.6181 -0.5573 -0.7533
  266MOL   H13548365   6.407   2.420   1.737  0.3063  0.6222  0.0841
  266MOL   H13648366   6.090   2.588   1.872 -0.5447  0.4142 -1.0511
  266MOL   C13748367   6.468   2.636   1.754  0.2102 -0.2656 -0.4236
  266MOL   C13848368   6.561   2.613   1.871  0.2355  0.1969 -0.0707
  266MOL   C13948369   6.559   2.735   1.963 -0.4552  0.3053 -0.4230
  266MOL   O14048370   6.508   2.735   2.074 -0.6525  0.3019 -0.1568
  266MOL   O14148371   6.597   2.845   1.894 -0.4819 -0.3107  0.2948
  266MOL   H14248372   6.419   2.732   1.764 -0.8190 -0.7532 -0.6975
  266MOL   H14348373   6.528   2.652   1.665  2.1830  0.5343  1.0240
  266MOL   H14448374   6.534   2.532   1.938  1.7569 -1.2409 -1.1391
  266MOL   H14548375   6.593   2.918   1.953  0.6319 -1.1787  1.4882
  266MOL   C14648376   6.702   2.587   1.838  0.0783  0.6818  0.2910
  266MOL   C14748377   6.742   2.466   1.749 -0.3388 -0.0229 -0.4713
  266MOL   C14848378   6.690   2.331   1.814  0.6173 -0.8650 -0.3498
  266MOL   O14948379   6.705   2.297   1.929  0.8402  0.0320 -0.2929
  266MOL   O15048380   6.611   2.264   1.720  0.2334 -0.1532 -0.0739
  266MOL   H15148381   6.750   2.570   1.934  0.2119  0.9616  0.2766
  266MOL   H15248382   6.756   2.672   1.795 -0.9146  0.6113 -1.1400
  266MOL   H15348383   6.688   2.475   1.655  0.7887  0.3183 -1.0923
  266MOL   H15448384   6.560   2.194   1.757  0.0605  0.3360  0.6467
  266MOL   C15548385   6.895   2.457   1.714 -0.1377  0.7691 -0.5264
  266MOL   C15648386   6.938   2.540   1.592 -0.4843 -0.1364 -1.1074
  266MOL   C15748387   6.887   2.486   1.456 -0.0152 -0.4719 -0.9924
  266MOL   O15848388   6.859   2.366   1.442 -0.0579  0.2713 -0.4242
  266MOL   O15948389   6.880   2.578   1.355 -0.0606  0.5284  0.5430
  266MOL   H16048390   6.929   2.356   1.692 -0.5658  0.6912 -0.8441
  266MOL   H16148391   6.953   2.477   1.804 -0.3522 -0.6853 -0.0421
  266MOL   H16248392   6.894   2.640   1.599 -1.2214 -0.1675 -4.1956
  266MOL   H16348393   6.857   2.548   1.269  2.6383 -2.2047  0.6715
  266MOL   C16448394   7.092   2.553   1.591  0.7041  0.1396  0.1424
  266MOL   C16548395   7.152   2.693   1.611  0.1244  0.7996 -0.3846
  266MOL   C16648396   7.152   2.763   1.476 -0.0403  0.4495 -0.0109
  266MOL   O16748397   7.236   2.753   1.392 -0.2632 -0.3729 -0.4029
  266MOL   O16848398   7.055   2.853   1.472  0.1144 -0.4794 -0.0575
  266MOL   H16948399   7.125   2.515   1.494  0.9004  3.2904 -1.0896
  266MOL   H17048400   7.140   2.492   1.668 -0.7077 -2.2801 -0.8460
  266MOL   H17148401   7.081   2.745   1.676 -4.5893 -0.8131 -3.9692
  266MOL   H17248402   7.063   2.909   1.396  0.6303 -1.2185 -0.5662
  266MOL   C17348403   7.285   2.696   1.685  0.9617  0.2087 -0.4019
  266MOL   C17448404   7.310   2.819   1.778 -0.4308  0.5428 -0.2004
  266MOL   C17548405   7.371   2.936   1.700  0.4728  0.2145 -0.0874
  266MOL   O17648406   7.381   2.936   1.577  0.2095  0.1102  0.1894
  266MOL   O17748407   7.394   3.046   1.776 -0.0310 -0.0525 -0.3845
  266MOL   H17848408   7.358   2.666   1.610  2.0365 -2.7262  1.7454
  266MOL   H17948409   7.295   2.605   1.743  2.0837  1.2518  1.0865
  266MOL   H18048410   7.222   2.853   1.833 -2.2659 -1.9321 -1.4778
  266MOL   H18148411   7.395   3.029   1.868  3.0434  2.0890  0.0364
  266MOL   H18248412   7.396   2.790   1.838  1.0359  1.7437 -1.6719
  267MOL     C148413   5.924   5.960   4.854  0.3268  0.7128  0.0904
  267MOL     C248414   5.985   6.046   4.746 -0.0477 -0.1966  0.2331
  267MOL     C348415   6.138   6.025   4.744  1.1127 -0.3243 -0.5770
  267MOL     O448416   6.215   6.104   4.797  0.5590  0.0607 -0.0650
  267MOL     O548417   6.175   5.911   4.683  0.5705 -0.0839 -0.1375
  267MOL     H648418   5.949   6.007   4.950  1.5027  1.7741 -0.7175
  267MOL     H748419   5.816   5.960   4.845  0.3371 -1.8753 -0.4895
  267MOL     H848420   5.944   6.012   4.651  0.0179 -0.8560  0.4399
  267MOL     H948421   6.268   5.923   4.694  0.5797  0.1502 -0.4374
  267MOL    H1048422   5.957   5.856   4.857  0.1418  0.6934  2.5222
  267MOL    C1148423   5.953   6.200   4.762 -0.0528  0.0060  0.2323
  267MOL    C1248424   5.806   6.240   4.779 -0.4183 -0.9582  0.2676
  267MOL    C1348425   5.716   6.186   4.661 -0.5254 -0.5650  0.5395
  267MOL    O1448426   5.611   6.129   4.674 -0.2495  0.1062  0.3462
  267MOL    O1548427   5.769   6.216   4.536 -0.1292  0.3740 -0.5143
  267MOL    H1648428   5.987   6.257   4.676  0.0302  1.1029  0.9817
  267MOL    H1748429   6.002   6.233   4.854  0.6398  0.9993 -0.4797
  267MOL    H1848430   5.765   6.206   4.874 -3.1147 -0.8574 -0.8133
  267MOL    H1948431   5.707   6.205   4.465  0.7415  0.5071 -1.3068
  267MOL    C2048432   5.803   6.398   4.785  0.6996 -0.3380  0.3473
  267MOL    C2148433   5.666   6.444   4.829 -0.1846 -0.3149 -0.0952
  267MOL    C2248434   5.619   6.573   4.762  0.2840  0.2849 -0.0293
  267MOL    O2348435   5.536   6.567   4.671 -0.1643 -0.7099 -0.7566
  267MOL    O2448436   5.695   6.679   4.799 -0.2875 -0.1749  0.2592
  267MOL    H2548437   5.844   6.436   4.692 -2.0357 -1.6909 -1.4905
  267MOL    H2648438   5.878   6.432   4.855 -0.9524 -1.2109  2.6037
  267MOL    H2748439   5.589   6.377   4.791  0.1777 -0.3286 -0.8032
  267MOL    H2848440   5.665   6.757   4.753 -0.5420 -1.0092 -1.0106
  267MOL    C2948441   5.632   6.451   4.973 -1.1780 -0.6144 -1.0278
  267MOL    C3048442   5.710   6.547   5.075 -0.7704 -0.5083 -0.0784
  267MOL    C3148443   5.852   6.500   5.114 -0.4183  0.0463  0.8859
  267MOL    O3248444   5.868   6.404   5.184  0.5959  0.1784 -0.1618
  267MOL    O3348445   5.956   6.560   5.061 -0.5756 -0.2808 -0.6469
  267MOL    H3448446   5.642   6.353   5.020 -2.0379  0.1436  0.7745
  267MOL    H3548447   5.532   6.491   4.992 -0.9486 -0.1413 -0.7997
  267MOL    H3648448   5.729   6.641   5.023  1.0873 -0.8561 -0.0774
  267MOL    H3748449   5.944   6.629   4.998  0.0449 -0.3629 -0.8624
  267MOL    C3848450   5.630   6.585   5.205 -0.4639  0.0699  0.5778
  267MOL    C3948451   5.652   6.720   5.284  0.4289  0.7595  0.1853
  267MOL    C4048452   5.801   6.748   5.303 -0.6975 -0.1731 -0.0114
  267MOL    O4148453   5.856   6.732   5.409 -0.1604  0.1488 -0.4458
  267MOL    O4248454   5.857   6.817   5.195  0.1101 -0.4202  0.6116
  267MOL    H4348455   5.626   6.498   5.269 -0.0353 -1.7965 -1.8438
  267MOL    H4448456   5.527   6.581   5.170 -0.8391 -2.3809  1.8638
  267MOL    H4548457   5.609   6.801   5.225 -1.5365  0.8435  1.6950
  267MOL    H4648458   5.952   6.826   5.196  0.4461 -3.3728  0.6411
  267MOL    C4748459   5.559   6.711   5.411 -0.5026 -0.0456  0.3671
  267MOL    C4848460   5.562   6.830   5.511 -0.2846  0.1287 -0.8409
  267MOL    C4948461   5.491   6.787   5.644 -0.2118 -0.6205  0.5238
  267MOL    O5048462   5.374   6.813   5.663  0.4729 -0.1027  0.0507
  267MOL    O5148463   5.566   6.698   5.714 -0.5563 -0.2419 -0.1927
  267MOL    H5248464   5.583   6.617   5.461  0.8201 -0.2122 -0.5736
  267MOL    H5348465   5.459   6.697   5.370 -0.4707  0.0305  0.2602
  267MOL    H5448466   5.664   6.854   5.540 -0.7429 -1.5869  2.5214
  267MOL    H5548467   5.539   6.651   5.791 -1.0892  1.8816  0.9777
  267MOL    C5648468   5.486   6.951   5.448  0.4952 -0.0152  1.1090
  267MOL    C5748469   5.498   7.092   5.516 -0.0669 -0.7195 -0.1653
  267MOL    C5848470   5.359   7.171   5.525 -0.0410 -0.1708 -0.2087
  267MOL    O5948471   5.348   7.295   5.536 -0.5769  0.1373  0.1564
  267MOL    O6048472   5.249   7.092   5.516 -0.4956 -0.3079 -0.2244
  267MOL    H6148473   5.383   6.918   5.434  1.0287 -1.3577  0.2072
  267MOL    H6248474   5.530   6.977   5.352 -0.5451 -1.7524  0.1299
  267MOL    H6348475   5.507   7.076   5.623 -0.4125  2.0700  0.3198
  267MOL    H6448476   5.173   7.144   5.539 -0.1523 -0.3440  1.0116
  267MOL    C6548477   5.615   7.179   5.466  0.2330  0.1681 -0.4770
  267MOL    C6648478   5.612   7.245   5.324 -0.3958 -1.1375 -0.0022
  267MOL    C6748479   5.670   7.156   5.212 -0.0848  0.0672  0.6376
  267MOL    O6848480   5.790   7.148   5.199 -0.0143  0.5023  0.2728
  267MOL    O6948481   5.578   7.092   5.135  0.9090  0.4078  0.0202
  267MOL    H7048482   5.705   7.119   5.478  1.3200  1.3422 -2.4222
  267MOL    H7148483   5.625   7.263   5.535 -1.2827  0.3305 -0.4517
  267MOL    H7248484   5.513   7.274   5.291  0.1045  1.9974  0.9681
  267MOL    H7348485   5.616   7.043   5.063 -1.6145  0.8519 -1.6863
  267MOL    C7448486   5.688   7.392   5.326 -0.1493  0.3849 -0.2555
  267MOL    C7548487   5.604   7.509   5.380 -0.1801  0.1431  0.6761
  267MOL    C7648488   5.506   7.565   5.280  0.5193 -0.7529  0.1469
  267MOL    O7748489   5.535   7.628   5.177  0.0532 -0.2121 -0.0086
  267MOL    O7848490   5.382   7.539   5.322  0.3163  0.0753 -0.3289
  267MOL    H7948491   5.726   7.420   5.228  0.2341 -3.1805 -1.2041
  267MOL    H8048492   5.777   7.383   5.387  1.5038  0.5406 -2.5751
  267MOL    H8148493   5.549   7.466   5.464 -2.4434  0.5708 -0.5468
  267MOL    H8248494   5.322   7.586   5.265  0.3447  1.9294  1.1018
  267MOL    C8348495   5.692   7.623   5.428  0.4473  0.2081 -0.1116
  267MOL    C8448496   5.760   7.596   5.569  0.3907 -0.1271  0.3097
  267MOL    C8548497   5.670   7.640   5.689  0.2080  0.1308  0.8639
  267MOL    O8648498   5.587   7.732   5.673  0.1893 -0.2858 -0.5310
  267MOL    O8748499   5.709   7.590   5.812 -0.1864 -0.2980 -0.1922
  267MOL    H8848500   5.628   7.710   5.445 -2.3540 -2.0774  1.6118
  267MOL    H8948501   5.762   7.652   5.350  0.9451  0.6155  0.4829
  267MOL    H9048502   5.760   7.487   5.568 -1.7315 -0.1596  0.7523
  267MOL    H9148503   5.658   7.618   5.886 -0.9243  1.5801 -1.3919
  267MOL    C9248504   5.898   7.659   5.570 -0.5879 -0.2040  0.7254
  267MOL    C9348505   6.016   7.587   5.509 -0.8499  0.4573 -0.0774
  267MOL    C9448506   6.092   7.489   5.609 -0.4620  0.1363  0.2151
  267MOL    O9548507   6.120   7.512   5.727 -0.1707 -0.0451 -0.2627
  267MOL    O9648508   6.118   7.369   5.543 -0.7052 -0.3346 -0.8388
  267MOL    H9748509   5.915   7.645   5.677  0.2371 -0.2263  0.5949
  267MOL    H9848510   5.890   7.767   5.557 -0.9942 -0.3162  0.0280
  267MOL    H9948511   5.974   7.531   5.426 -2.0164 -0.3494  1.0554
  267MOL   H10048512   6.164   7.321   5.610  0.4439  1.2520 -0.4552
  267MOL   C10148513   6.115   7.687   5.450 -0.0898  0.3018  0.1223
  267MOL   C10248514   6.085   7.738   5.307  0.0660  0.3393 -0.4547
  267MOL   C10348515   6.094   7.628   5.203 -0.1697  0.6777 -0.6255
  267MOL   O10448516   5.992   7.599   5.143  0.3180  0.1427  0.0096
  267MOL   O10548517   6.214   7.567   5.193 -0.2142  0.3439  0.1954
  267MOL   H10648518   6.222   7.665   5.459  0.1661  1.3158 -0.3632
  267MOL   H10748519   6.106   7.771   5.518  1.2787 -0.3900  1.1857
  267MOL   H10848520   5.978   7.761   5.306 -0.0129  0.1624  1.3018
  267MOL   H10948521   6.206   7.497   5.131 -0.4943 -0.6235  1.2965
  267MOL   C11048522   6.160   0.011   5.271 -0.2239  0.4290 -0.2702
  267MOL   C11148523   6.117   0.139   5.341  0.5878  0.1426 -0.2607
  267MOL   C11248524   5.968   0.165   5.361 -0.2927  0.3824  0.5439
  267MOL   O11348525   5.915   0.146   5.463  0.3687 -0.7831  0.5697
  267MOL   O11448526   5.909   0.208   5.245  0.0568 -0.5004  0.0373
  267MOL   H11548527   6.144   0.029   5.165 -0.6663 -0.1437 -0.3026
  267MOL   H11648528   6.265   7.846   5.296 -0.3238  0.6987  0.3625
  267MOL   H11748529   6.160   0.131   5.441 -3.2143  2.2608  1.6566
  267MOL   H11848530   5.819   0.226   5.268  0.4740  0.4779  0.9401
  267MOL   C11948531   6.186   0.264   5.274 -0.0730 -0.2160  0.2642
  267MOL   C12048532   6.191   0.397   5.346 -0.4012 -0.0663  0.3736
  267MOL   C12148533   6.214   0.388   5.500  0.8562 -0.1645 -0.1299
  267MOL   O12248534   6.158   0.463   5.582 -0.2392 -0.4601 -0.0478
  267MOL   O12348535   6.302   0.292   5.539  0.3459 -0.1011 -0.2183
  267MOL   H12448536   6.133   0.280   5.179 -0.5205 -0.5369  0.4600
  267MOL   H12548537   6.285   0.241   5.235 -1.3625 -0.3627 -3.1449
  267MOL   H12648538   6.285   0.442   5.313 -0.3755 -1.3167 -1.3112
  267MOL   H12748539   6.302   0.286   5.633 -0.8295 -0.1346 -0.2163
  267MOL   C12848540   6.085   0.500   5.291  0.6347  0.5570  0.4023
  267MOL   C12948541   6.091   0.650   5.343  0.1376  0.5979  0.0618
  267MOL   C13048542   5.970   0.688   5.417 -0.4691 -1.4939  0.2472
  267MOL   O13148543   5.911   0.791   5.383  0.4055  0.0319  0.0710
  267MOL   O13248544   5.933   0.612   5.526 -0.0268 -0.1518 -0.2743
  267MOL   H13348545   5.984   0.462   5.276  0.4612  0.1473  2.4515
  267MOL   H13448546   6.107   0.506   5.184 -0.7484  0.5319  0.1112
  267MOL   H13548547   6.169   0.663   5.418 -0.3736  1.8389  0.3879
  267MOL   H13648548   5.988   0.535   5.521  1.5321  0.7318  2.3297
  267MOL   C13748549   6.115   0.742   5.219 -0.0097  0.2408  0.0650
  267MOL   C13848550   6.263   0.729   5.165  0.0353 -0.5420 -0.3017
  267MOL   C13948551   6.361   0.810   5.247  0.3378 -0.3429 -0.5573
  267MOL   O14048552   6.319   0.904   5.320 -0.0948  0.3548  0.6429
  267MOL   O14148553   6.493   0.778   5.236  0.6125  0.2972 -0.1393
  267MOL   H14248554   6.104   0.846   5.248  3.6162  0.8407 -0.5546
  267MOL   H14348555   6.045   0.728   5.136  0.5938  1.9949 -0.7609
  267MOL   H14448556   6.308   0.630   5.176  0.7539 -0.3171 -1.1535
  267MOL   H14548557   6.537   0.829   5.302  0.1592  1.8543 -1.0183
  267MOL   C14648558   6.279   0.759   5.014 -0.2686 -0.5645  0.6886
  267MOL   C14748559   6.404   0.694   4.945 -1.3555  0.0805  0.3465
  267MOL   C14848560   6.418   0.766   4.809  0.1896  0.4383  0.2604
  267MOL   O14948561   6.337   0.755   4.715  0.9058  0.1036  0.1074
  267MOL   O15048562   6.540   0.820   4.790  0.1255  0.1517  0.0533
  267MOL   H15148563   6.278   0.865   4.991  0.4000 -1.2568 -2.9716
  267MOL   H15248564   6.198   0.705   4.965 -1.1752  1.2363  0.1524
  267MOL   H15348565   6.493   0.723   5.000 -1.9235  1.3785  0.5952
  267MOL   H15448566   6.593   0.826   4.867 -0.4369 -1.7767  0.6210
  267MOL   C15548567   6.389   0.537   4.941 -0.1497  0.0460 -0.2009
  267MOL   C15648568   6.532   0.459   4.926  0.3904 -0.0789 -0.5048
  267MOL   C15748569   6.554   0.397   4.784 -0.3369 -0.4983 -0.1986
  267MOL   O15848570   6.620   0.301   4.758 -0.2764  0.3780  0.2863
  267MOL   O15948571   6.517   0.487   4.686 -0.3271 -0.1408  0.2453
  267MOL   H16048572   6.328   0.516   4.854 -0.5860  1.2350 -0.1910
  267MOL   H16148573   6.330   0.485   5.016  1.2876 -2.0244 -0.4554
  267MOL   H16248574   6.606   0.539   4.936  0.0975  0.0223  0.9865
  267MOL   H16348575   6.534   0.449   4.601  2.5299  1.5091  0.0224
  267MOL   C16448576   6.570   0.377   5.046 -0.3622  0.2164  0.1503
  267MOL   C16548577   6.596   0.466   5.172 -0.2901  0.1411 -1.4755
  267MOL   C16648578   6.730   0.545   5.171 -0.0359 -0.2110  0.2435
  267MOL   O16748579   6.749   0.663   5.218 -0.0012  0.0070  0.2706
  267MOL   O16848580   6.831   0.481   5.110 -0.3236  0.6637 -0.1168
  267MOL   H16948581   6.652   0.307   5.030  0.9750  1.9297 -0.5828
  267MOL   H17048582   6.487   0.311   5.071 -1.6282  1.6456 -0.2478
  267MOL   H17148583   6.517   0.540   5.183  0.2870  0.6670 -0.7796
  267MOL   H17248584   6.899   0.546   5.117  0.3228 -0.2688  3.0113
  267MOL   C17348585   6.587   0.369   5.298 -0.0220 -0.4555 -0.5038
  267MOL   C17448586   6.646   0.419   5.432  0.4664 -0.5288  0.1468
  267MOL   C17548587   6.552   0.521   5.503 -0.3165 -0.4981 -0.0327
  267MOL   O17648588   6.453   0.570   5.451  0.1118 -0.4183 -0.1735
  267MOL   O17748589   6.600   0.543   5.627 -0.0648 -0.1460 -0.1562
  267MOL   H17848590   6.658   0.288   5.281 -0.0638 -0.3539 -1.2053
  267MOL   H17948591   6.489   0.322   5.308  0.3850 -1.1311  0.3935
  267MOL   H18048592   6.654   0.332   5.497  2.1017 -1.7975 -1.6792
  267MOL   H18148593   6.544   0.613   5.657  0.7935  0.8855 -0.9343
  267MOL   H18248594   6.744   0.467   5.430  0.2590 -0.0532  1.0357
  268MOL     C148595   7.668   6.329   1.980  0.1817  0.4184  0.1685
  268MOL     C248596   7.630   6.456   1.901 -0.4583 -0.3833  0.0434
  268MOL     C348597   7.665   6.578   1.993 -0.2498  0.3015  0.5517
  268MOL     O448598   7.674   6.576   2.112  0.6006 -0.6551 -0.3863
  268MOL     O548599   7.673   6.688   1.910 -0.5638  0.7972  0.0419
  268MOL     H648600   7.615   6.322   2.075 -0.0030  1.7971  0.1905
  268MOL     H748601   7.648   6.249   1.908  1.7711  1.6104 -1.6509
  268MOL     H848602   7.688   6.465   1.809 -1.9075  1.8811 -0.6715
  268MOL     H948603   7.734   6.751   1.942  0.9152 -0.4512 -0.2451
  268MOL    H1048604   7.774   6.326   2.001  0.1579  0.7620  0.3472
  268MOL    C1148605   7.483   6.462   1.854  0.6589 -0.1335  0.3369
  268MOL    C1248606   7.458   6.560   1.733 -0.1422 -0.3861  0.3733
  268MOL    C1348607   7.323   6.631   1.729  0.2335 -0.3226  0.2366
  268MOL    O1448608   7.310   6.742   1.677  0.6884 -0.2195  0.0084
  268MOL    O1548609   7.219   6.553   1.771  0.3085 -0.1662  0.0219
  268MOL    H1648610   7.424   6.496   1.940 -0.8398  1.4336 -1.2575
  268MOL    H1748611   7.455   6.363   1.819  0.7543  0.5270 -1.6871
  268MOL    H1848612   7.526   6.644   1.741  0.4821 -0.9141  0.6330
  268MOL    H1948613   7.143   6.609   1.766  0.5268  0.3237  1.9318
  268MOL    C2048614   7.482   6.479   1.606  0.0395 -1.3267 -0.2309
  268MOL    C2148615   7.460   6.541   1.462  0.5497  0.2743 -0.6884
  268MOL    C2248616   7.318   6.550   1.404  0.3973 -0.1270 -0.1318
  268MOL    O2348617   7.216   6.495   1.445  0.3601 -0.2575 -0.4096
  268MOL    O2448618   7.312   6.645   1.304 -0.2244  0.4653  0.3380
  268MOL    H2548619   7.418   6.390   1.609  0.0247 -1.2806  0.8526
  268MOL    H2648620   7.587   6.451   1.601 -0.4503 -3.6107  1.2606
  268MOL    H2748621   7.470   6.648   1.481  2.3425 -0.0414  0.3610
  268MOL    H2848622   7.224   6.645   1.269  1.1704  0.4673 -3.4488
  268MOL    C2948623   7.558   6.476   1.364 -0.7530 -0.9182  0.1822
  268MOL    C3048624   7.703   6.544   1.368 -0.0401 -0.2888 -0.1213
  268MOL    C3148625   7.732   6.600   1.231  0.0742  0.1854  0.7946
  268MOL    O3248626   7.819   6.563   1.153  0.3865  0.7952 -0.1719
  268MOL    O3348627   7.658   6.712   1.207  0.4930  0.4192  0.3787
  268MOL    H3448628   7.528   6.484   1.260  1.3288 -2.6890 -0.5915
  268MOL    H3548629   7.569   6.368   1.375 -1.4523 -0.9884  0.2173
  268MOL    H3648630   7.686   6.626   1.438 -1.0994 -0.0227 -0.6793
  268MOL    H3748631   7.697   6.740   1.125 -0.9148  0.2112 -0.3844
  268MOL    C3848632   7.814   6.452   1.421 -0.8012  0.1734  0.3692
  268MOL    C3948633   0.101   6.516   1.450 -0.2861  1.0463  0.8702
  268MOL    C4048634   0.206   6.402   1.486  0.4843  0.9055 -0.0939
  268MOL    O4148635   0.192   6.282   1.476 -0.0395 -1.0621 -0.6862
  268MOL    O4248636   0.319   6.447   1.539 -0.1941 -0.4258  0.4059
  268MOL    H4348637   7.826   6.364   1.357 -1.0938  1.0913 -0.9690
  268MOL    H4448638   7.775   6.410   1.514 -0.7983 -2.1898 -0.6629
  268MOL    H4548639   0.140   6.565   1.360 -1.0385 -3.0969 -1.8120
  268MOL    H4648640   0.383   6.379   1.549  0.1506  0.0589  1.4915
  268MOL    C4748641   0.092   6.627   1.559  0.8332  0.4378  0.4130
  268MOL    C4848642   0.081   6.776   1.510 -0.1765 -0.3471  0.4284
  268MOL    C4948643   0.184   6.802   1.402  0.2678  0.1082  0.8380
  268MOL    O5048644   0.303   6.798   1.426  0.7660  0.2715 -0.1165
  268MOL    O5148645   0.134   6.811   1.275 -0.4897 -0.4425  0.0096
  268MOL    H5248646   0.180   6.620   1.622 -0.2527 -2.5301  1.7346
  268MOL    H5348647   0.014   6.593   1.628  1.2277 -1.8567 -0.2318
  268MOL    H5448648   7.845   6.793   1.450  0.1818 -2.6481 -0.8092
  268MOL    H5548649   0.206   6.827   1.216 -1.5178  0.4127 -1.0446
  268MOL    C5648650   0.084   6.873   1.634  0.3405  0.6876  0.3491
  268MOL    C5748651   0.082   7.031   1.607  0.1249 -0.4327 -0.6763
  268MOL    C5848652   0.125   7.122   1.729  0.1205  0.6269  0.6593
  268MOL    O5948653   0.171   7.069   1.829  0.4743  0.3720 -0.1276
  268MOL    O6048654   0.125   7.254   1.702  0.3396  0.1254  0.4359
  268MOL    H6148655   0.176   6.844   1.685 -0.2957 -0.1876  1.0021
  268MOL    H6248656   0.007   6.854   1.708 -0.8096 -2.6799 -1.6234
  268MOL    H6348657   0.162   7.054   1.537 -0.2492 -0.8122 -1.2351
  268MOL    H6448658   0.104   7.281   1.614  0.4818 -0.8269  0.1029
  268MOL    C6548659   7.811   7.087   1.537  0.2775 -0.0004 -0.2760
  268MOL    C6648660   7.672   7.090   1.609  0.4865 -0.3543  0.4050
  268MOL    C6748661   7.582   6.968   1.601 -0.9069 -0.2198  0.3702
  268MOL    O6848662   7.583   6.886   1.508 -0.2148 -0.7558 -0.2614
  268MOL    O6948663   7.497   6.964   1.705 -0.0538 -0.1326  0.3821
  268MOL    H7048664   7.809   7.035   1.441  1.6465 -2.0130  0.7392
  268MOL    H7148665   7.834   7.191   1.513  0.4965  0.3512  1.3838
  268MOL    H7248666   7.685   7.100   1.717 -2.8049  1.1996  0.7180
  268MOL    H7348667   7.441   6.889   1.692  0.5956 -0.4522 -0.6176
  268MOL    C7448668   7.587   7.219   1.576  0.5795  0.7381  0.7738
  268MOL    C7548669   7.554   7.239   1.428  0.0203  0.1196 -0.2705
  268MOL    C7648670   7.588   7.381   1.379  0.3315 -0.0009  0.5884
  268MOL    O7748671   7.669   7.405   1.284  1.0064  0.4896  0.2602
  268MOL    O7848672   7.514   7.471   1.455 -0.3688  0.4922  0.6115
  268MOL    H7948673   7.632   7.310   1.614 -1.4396  1.2070  2.1444
  268MOL    H8048674   7.496   7.218   1.636  0.2502 -0.0580  0.2759
  268MOL    H8148675   7.609   7.162   1.374 -1.0314 -1.3042  0.6562
  268MOL    H8248676   7.542   7.560   1.440  0.3880 -0.0146 -1.1462
  268MOL    C8348677   7.409   7.206   1.382  0.2619  0.0029 -0.1436
  268MOL    C8448678   7.383   7.131   1.248  0.3910 -0.0098  0.4496
  268MOL    C8548679   7.438   6.987   1.242 -0.0608  0.0686 -0.0583
  268MOL    O8648680   7.522   6.952   1.155 -0.2126 -0.2680 -0.2002
  268MOL    O8748681   7.376   6.902   1.327 -0.4421 -0.1183  0.6112
  268MOL    H8848682   7.351   7.298   1.389  0.3871  0.0095  0.9412
  268MOL    H8948683   7.369   7.152   1.468 -1.1170  0.3045 -0.5745
  268MOL    H9048684   7.276   7.111   1.238  0.4552 -0.1954  0.0835
  268MOL    H9148685   7.412   6.814   1.322  0.3611  0.2522 -0.2674
  268MOL    C9248686   7.428   7.218   1.134 -0.5349  0.3358  0.2853
  268MOL    C9348687   7.392   7.178   0.985  0.1501  0.9084  0.4513
  268MOL    C9448688   7.490   7.238   0.886  0.2584  0.3488  0.5323
  268MOL    O9548689   7.562   7.338   0.918 -0.5400 -0.2984 -0.8285
  268MOL    O9648690   7.504   7.175   0.766 -0.3919 -0.6133 -0.5621
  268MOL    H9748691   7.537   7.207   1.135 -0.2538  2.8279  0.0896
  268MOL    H9848692   7.393   7.320   1.144 -0.2772  0.4489  0.0379
  268MOL    H9948693   7.414   7.072   0.972 -1.7849  0.2572  2.3429
  268MOL   H10048694   7.566   7.228   0.717  1.6421 -1.2257  1.2725
  268MOL   C10148695   7.248   7.194   0.945 -0.5630 -0.1296  0.8049
  268MOL   C10248696   7.191   7.341   0.928 -0.8452  0.6610 -0.1410
  268MOL   C10348697   7.145   7.390   1.065 -0.1971  0.0085  0.1906
  268MOL   O10448698   7.101   7.307   1.154 -0.3920  0.0550 -0.5360
  268MOL   O10548699   7.136   7.527   1.079  0.5148  0.0240 -0.1886
  268MOL   H10648700   7.190   7.130   1.010 -0.0019 -0.5102  0.9379
  268MOL   H10748701   7.234   7.148   0.847 -1.3948 -2.1082  1.8409
  268MOL   H10848702   7.276   7.396   0.889  0.2904 -1.1539 -0.2825
  268MOL   H10948703   7.080   7.537   1.155 -2.4797  0.0988 -2.3449
  268MOL   C11048704   7.060   7.348   0.839 -0.0318  0.5249  0.6266
  268MOL   C11148705   7.001   7.486   0.798 -0.1681 -0.1095  0.0462
  268MOL   C11248706   6.863   7.473   0.735  0.1640 -0.1315 -0.1431
  268MOL   O11348707   6.797   7.567   0.697  0.0825 -0.1326  0.7672
  268MOL   O11448708   6.817   7.347   0.724 -0.2197 -0.2306 -0.1388
  268MOL   H11548709   6.977   7.302   0.892 -1.0243  1.8542  0.2542
  268MOL   H11648710   7.074   7.296   0.744  1.0932 -1.4136  1.8278
  268MOL   H11748711   6.967   7.536   0.889 -1.2386 -2.2863  0.8688
  268MOL   H11848712   6.732   7.357   0.686 -0.6336  0.5678  0.9683
  268MOL   C11948713   7.092   7.587   0.720  0.1857 -0.1135  0.4841
  268MOL   C12048714   7.128   7.548   0.579 -0.4417 -0.3903  0.2522
  268MOL   C12148715   7.266   7.474   0.570  0.2282  0.3845  0.0114
  268MOL   O12248716   7.358   7.501   0.651  0.6713  0.0016 -0.0033
  268MOL   O12348717   7.255   7.376   0.475  0.4104  0.3541  0.0441
  268MOL   H12448718   7.185   7.615   0.770  0.0528 -0.7201  1.0738
  268MOL   H12548719   7.030   7.677   0.717  0.4903  0.1750  2.2428
  268MOL   H12648720   7.063   7.463   0.558 -0.1267 -1.5182  3.5199
  268MOL   H12748721   7.328   7.316   0.468  1.3731  1.2926  1.7558
  268MOL   C12848722   7.108   7.655   0.466  0.0104  1.1460  0.0995
  268MOL   C12948723   6.976   7.632   0.386 -0.0466 -0.8906 -0.2318
  268MOL   C13048724   7.006   7.530   0.279 -0.6299 -0.7057  0.4906
  268MOL   O13148725   6.983   7.410   0.295 -0.4464  0.1059 -0.2368
  268MOL   O13248726   7.054   7.584   0.159  0.0485  0.2082 -0.0393
  268MOL   H13348727   7.189   7.668   0.394  0.4448 -2.2525 -0.0977
  268MOL   H13448728   7.108   7.748   0.523 -1.3290  1.9282 -1.1696
  268MOL   H13548729   6.900   7.583   0.449 -1.6164  1.5451 -0.1679
  268MOL   H13648730   7.054   7.518   0.092 -0.1878 -0.3186  0.4646
  268MOL   C13748731   6.918   7.764   0.340 -0.4109  0.0271  0.6545
  268MOL   C13848732   6.768   7.789   0.374  0.1373  0.1482  0.4142
  268MOL   C13948733   6.676   7.684   0.311 -0.7007  0.1012  0.2284
  268MOL   O14048734   6.611   7.600   0.382  0.1957  0.2019 -0.6731
  268MOL   O14148735   6.672   7.691   0.177 -0.3259  0.3154  0.0876
  268MOL   H14248736   6.927   7.778   0.232  0.7896 -1.1103  0.5901
  268MOL   H14348737   6.977   7.849   0.374  3.3299 -1.2908 -2.1754
  268MOL   H14448738   6.770   7.769   0.481 -0.7828 -2.1030  0.0255
  268MOL   H14548739   6.591   7.647   0.155 -0.0317 -0.4350  0.4583
  268MOL   C14648740   6.707   0.081   0.354 -0.1260 -0.1212 -0.4637
  268MOL   C14748741   6.801   0.208   0.331  0.5502 -0.1420 -0.3653
  268MOL   C14848742   6.718   0.323   0.390 -0.2974 -0.3577 -0.9525
  268MOL   O14948743   6.758   0.388   0.486  0.1456  0.1509  0.6144
  268MOL   O15048744   6.597   0.349   0.319 -0.0603  0.0563  0.1045
  268MOL   H15148745   6.661   0.099   0.451  0.8827 -0.5699  0.1056
  268MOL   H15248746   6.620   0.074   0.288  1.4475 -1.4101 -2.4654
  268MOL   H15348747   6.893   0.188   0.388 -0.4169 -2.8123  0.3640
  268MOL   H15448748   6.564   0.423   0.368 -0.1630  0.2282 -0.2225
  268MOL   C15548749   6.825   0.218   0.178 -0.0125 -0.1596  0.3598
  268MOL   C15648750   6.972   0.259   0.156  0.1620 -0.0215 -0.8499
  268MOL   C15748751   7.006   0.400   0.211 -0.2910 -0.6872 -0.2267
  268MOL   O15848752   6.954   0.499   0.173  0.1893 -0.0566 -0.6585
  268MOL   O15948753   7.111   0.400   0.291 -0.0808  0.3527 -0.1123
  268MOL   H16048754   6.765   0.303   0.145  1.2486  0.7663  0.4029
  268MOL   H16148755   6.796   0.128   0.124 -0.0078 -0.2741  0.5482
  268MOL   H16248756   7.037   0.195   0.216 -2.5734 -1.4972  0.6377
  268MOL   H16348757   7.140   0.485   0.321  0.8540  0.0606 -0.1571
  268MOL   C16448758   7.009   0.243   0.006 -0.0493  0.1462  0.2941
  268MOL   C16548759   7.144   0.174   7.829 -0.2883  0.0318 -0.2077
  268MOL   C16648760   7.214   0.226   7.703 -0.0579  0.3269  0.7570
  268MOL   O16748761   7.167   0.306   7.618 -0.3812  0.2261 -0.1027
  268MOL   O16848762   7.341   0.189   7.698  0.3072 -0.0949  0.2130
  268MOL   H16948763   7.004   0.335   7.800 -0.4533 -1.5429 -2.4030
  268MOL   H17048764   6.935   0.178   7.811 -0.3673  0.0294  0.9369
  268MOL   H17148765   7.208   0.201   0.060  3.1499 -0.5795 -2.5387
  268MOL   H17248766   7.383   0.237   7.628 -1.5416  1.8694  0.4002
  268MOL   C17348767   7.127   0.019   7.820  0.6178  0.0158  0.4622
  268MOL   C17448768   7.260   7.785   7.850 -0.2046 -0.3214  0.6945
  268MOL   C17548769   7.317   7.706   7.730  0.4920 -0.2601 -0.2346
  268MOL   O17648770   7.291   7.723   7.612  0.7684  0.0815  0.3277
  268MOL   O17748771   7.410   7.617   7.762  0.1522 -0.1129  0.1331
  268MOL   H17848772   7.091   7.848   7.720  2.0460  2.3298 -0.6536
  268MOL   H17948773   7.061   7.831   0.044 -0.3750 -1.3155 -1.0871
  268MOL   H18048774   7.339   7.845   0.039  1.1466 -0.9364 -0.9153
  268MOL   H18148775   7.468   7.594   7.691 -1.4514 -0.3136 -1.1526
  268MOL   H18248776   7.248   7.703   0.068  0.0321 -0.4719  0.5599
  269MOL     C148777   5.871   3.178   5.923 -0.1497  0.5502 -0.1303
  269MOL     C248778   5.767   3.186   5.809 -0.1940 -0.0626  0.4093
  269MOL     C348779   5.725   3.334   5.790  0.0518  0.0592  0.2997
  269MOL     O448780   5.726   3.415   5.879  0.2090  0.3529 -0.3261
  269MOL     O548781   5.682   3.361   5.663 -0.1206  0.0997  0.1601
  269MOL     H648782   5.938   3.263   5.915 -0.8245  1.0459 -0.5999
  269MOL     H748783   5.829   3.197   6.022  0.7454 -0.1017  0.3794
  269MOL     H848784   5.808   3.165   5.710 -1.9966  0.7817 -0.5670
  269MOL     H948785   5.646   3.449   5.669 -2.9875 -1.0762  1.3245
  269MOL    H1048786   5.921   3.082   5.919 -1.9771 -0.4341 -0.0115
  269MOL    C1148787   5.640   3.099   5.836 -0.5448  0.3386 -0.4958
  269MOL    C1248788   5.650   2.955   5.795  0.8021  0.0731  0.2561
  269MOL    C1348789   5.607   2.946   5.644 -0.7012  0.9354 -0.6066
  269MOL    O1448790   5.491   2.936   5.596  0.5535  0.0868 -0.2263
  269MOL    O1548791   5.721   2.960   5.567 -0.0797 -0.3349 -0.1093
  269MOL    H1648792   5.557   3.150   5.786  0.5548  3.2755  0.5257
  269MOL    H1748793   5.617   3.101   5.942 -1.8484 -1.5084 -0.7321
  269MOL    H1848794   5.749   2.910   5.806  0.5051 -0.7334 -0.3474
  269MOL    H1948795   5.705   2.918   5.484 -1.0931  1.9333 -1.0944
  269MOL    C2048796   5.549   2.872   5.876 -0.1575 -0.3294 -1.0206
  269MOL    C2148797   5.596   2.836   6.027  0.8142  0.2759  0.0862
  269MOL    C2248798   5.711   2.733   6.017 -0.6480  0.0502  0.3725
  269MOL    O2348799   5.754   2.690   5.908 -0.9295 -0.1735 -0.2114
  269MOL    O2448800   5.758   2.695   6.143  0.4793 -0.2873 -0.5542
  269MOL    H2548801   5.521   2.779   5.827 -0.7600 -0.3000 -0.7221
  269MOL    H2648802   5.458   2.932   5.874  0.1836  0.1840 -1.2675
  269MOL    H2748803   5.632   2.932   6.064 -1.8500  1.5107 -0.4254
  269MOL    H2848804   5.825   2.629   6.130  2.1802  0.9334  1.6374
  269MOL    C2948805   5.476   2.788   6.114  0.5284  0.1533 -0.1028
  269MOL    C3048806   5.356   2.885   6.136 -0.0221 -0.2192 -0.5468
  269MOL    C3148807   5.403   3.025   6.158 -0.3387  0.6446  0.4953
  269MOL    O3248808   5.370   3.115   6.079 -0.5093  0.0512  0.1641
  269MOL    O3348809   5.485   3.041   6.266  0.4908 -0.4203  0.0299
  269MOL    H3448810   5.510   2.744   6.208  0.4273 -0.2775 -0.2716
  269MOL    H3548811   5.442   2.698   6.064  1.0304 -1.0685  1.6834
  269MOL    H3648812   5.307   2.889   6.039  2.4304 -1.2830 -1.9007
  269MOL    H3748813   5.509   3.132   6.264  0.7897 -0.5101 -3.5402
  269MOL    C3848814   5.251   2.826   6.225 -0.0329  0.6334 -0.1808
  269MOL    C3948815   5.187   2.691   6.186 -0.0343 -0.2364  0.0129
  269MOL    C4048816   5.143   2.671   6.034  0.5587 -0.3414  0.2008
  269MOL    O4148817   5.037   2.710   5.988 -0.7167 -0.4873  0.0534
  269MOL    O4248818   5.244   2.622   5.962  0.0414 -0.4701 -0.3608
  269MOL    H4348819   5.166   2.893   6.238 -0.9846 -0.4376 -0.7910
  269MOL    H4448820   5.283   2.809   6.328  1.0286 -2.0090 -0.9114
  269MOL    H4548821   5.260   2.613   6.206  0.6255 -0.4106 -2.8805
  269MOL    H4648822   5.225   2.636   5.871 -0.6803  1.7097  0.0809
  269MOL    C4748823   5.069   2.665   6.281  0.1067  0.4114  0.1221
  269MOL    C4848824   4.992   2.528   6.276  0.3634  1.0483 -0.3680
  269MOL    C4948825   4.870   2.521   6.369 -0.2206 -0.1886  0.0864
  269MOL    O5048826   4.872   2.548   6.491  0.0275 -0.0347 -0.0524
  269MOL    O5148827   4.764   2.472   6.308 -0.4734 -0.0725  0.0998
  269MOL    H5248828   4.993   2.743   6.275 -0.6222  0.1065  3.7873
  269MOL    H5348829   5.106   2.672   6.384  1.9405 -1.0028 -0.4272
  269MOL    H5448830   4.948   2.519   6.176 -1.2289  0.2750  0.3826
  269MOL    H5548831   4.687   2.474   6.363 -0.8398  1.6852 -0.4370
  269MOL    C5648832   5.074   2.397   6.288 -0.0088  0.0713  0.4488
  269MOL    C5748833   5.192   2.393   6.388  0.0851  0.1093  0.1271
  269MOL    C5848834   5.285   2.266   6.352  0.1679 -0.1858 -0.1685
  269MOL    O5948835   5.390   2.273   6.296  0.0126 -0.1617  0.0422
  269MOL    O6048836   5.225   2.155   6.392  0.2912 -0.5771 -0.5188
  269MOL    H6148837   5.112   2.362   6.192 -0.2696  2.2899 -0.5095
  269MOL    H6248838   5.010   2.310   6.301 -1.9491  1.6966  2.1277
  269MOL    H6348839   5.270   2.465   6.366  0.5595 -0.6684 -0.7561
  269MOL    H6448840   5.147   2.158   6.446  0.3141 -0.7788 -0.4731
  269MOL    C6548841   5.149   2.396   6.539 -0.7251 -0.0385 -0.6046
  269MOL    C6648842   5.252   2.455   6.639 -0.1343  0.4880 -0.1430
  269MOL    C6748843   5.300   2.591   6.604 -0.0501 -0.0732 -0.0772
  269MOL    O6848844   5.400   2.607   6.540 -0.0226 -0.1762  0.5628
  269MOL    O6948845   5.203   2.682   6.626  0.7570  0.1021 -0.3047
  269MOL    H7048846   5.123   2.297   6.577  0.0111 -0.1861 -0.4794
  269MOL    H7148847   5.063   2.459   6.562  0.1065  0.4409  1.2897
  269MOL    H7248848   5.202   2.459   6.736 -0.4238 -0.8696 -0.2393
  269MOL    H7348849   5.223   2.770   6.599 -0.0910  0.1646 -0.7691
  269MOL    C7448850   5.354   2.349   6.665 -0.3619 -0.2028 -0.3898
  269MOL    C7548851   5.393   2.320   6.816 -0.0100 -0.8212 -0.2346
  269MOL    C7648852   5.503   2.410   6.869 -0.0267 -0.0325  0.0205
  269MOL    O7748853   5.609   2.436   6.811  0.5918  0.2317  0.5751
  269MOL    O7848854   5.459   2.481   6.975 -0.3101 -0.7979 -0.4156
  269MOL    H7948855   5.450   2.371   6.617  0.0090 -2.4371 -0.7505
  269MOL    H8048856   5.335   2.260   6.604  1.3959 -0.8203 -0.0908
  269MOL    H8148857   5.301   2.315   6.875  0.0760 -0.6460 -0.0920
  269MOL    H8248858   5.370   2.469   7.005 -0.6320  2.2263 -0.0232
  269MOL    C8348859   5.459   2.175   6.830 -0.5935  0.3537 -0.4266
  269MOL    C8448860   5.364   2.052   6.803 -0.4814 -0.1478 -0.0402
  269MOL    C8548861   5.221   2.075   6.842 -0.1832 -0.2049 -0.0738
  269MOL    O8648862   5.178   2.088   6.954  0.4725  0.4432 -0.6273
  269MOL    O8748863   5.147   2.108   6.738 -0.2167 -0.8273 -0.0921
  269MOL    H8848864   5.501   2.161   6.930  0.2137 -1.6469 -1.0038
  269MOL    H8948865   5.547   2.158   6.767 -0.6935  0.0459 -0.4842
  269MOL    H9048866   5.345   2.023   6.700 -2.8393 -1.0388  0.6103
  269MOL    H9148867   5.063   2.141   6.766  0.3738 -0.2652  1.0688
  269MOL    C9248868   5.429   1.920   6.870  0.0249 -0.6406 -0.0526
  269MOL    C9348869   5.557   1.869   6.805  0.4098 -0.7300 -0.5055
  269MOL    C9448870   5.521   1.790   6.677 -0.1093 -0.3861 -0.5177
  269MOL    O9548871   5.553   1.670   6.661  0.3241 -0.7109  0.0367
  269MOL    O9648872   5.466   1.866   6.578 -0.6318  0.2720  0.7516
  269MOL    H9748873   5.354   1.841   6.876 -1.7748  1.1239  2.0898
  269MOL    H9848874   5.448   1.960   6.970  2.2107 -1.3301 -0.1856
  269MOL    H9948875   5.617   1.953   6.770  1.1073  0.0749  2.4282
  269MOL   H10048876   5.452   1.834   6.491 -2.3802 -0.6002  1.3384
  269MOL   C10148877   5.654   1.784   6.894  0.2497  0.1550 -0.6087
  269MOL   C10248878   5.618   1.664   6.984 -0.8136  0.1437  0.4583
  269MOL   C10348879   5.552   1.713   7.112  0.6091  0.1446  0.7370
  269MOL   O10448880   5.594   1.809   7.183 -0.3096  0.0736  0.2287
  269MOL   O10548881   5.430   1.643   7.129 -0.0922  0.0962 -0.0273
  269MOL   H10648882   5.700   1.857   6.961 -1.3719  0.8953 -0.2791
  269MOL   H10748883   5.733   1.746   6.829 -0.2174 -2.6058  0.3454
  269MOL   H10848884   5.548   1.607   6.923 -0.3834 -0.3351  0.4108
  269MOL   H10948885   5.384   1.695   7.193 -0.2652 -0.2871  0.1607
  269MOL   C11048886   5.739   1.574   7.016  0.3679 -0.6795  0.1691
  269MOL   C11148887   5.705   1.423   7.014 -0.3233 -0.0610 -0.2583
  269MOL   C11248888   5.693   1.370   6.869  0.0076 -0.7652  0.5380
  269MOL   O11348889   5.732   1.436   6.770  0.1585  0.1448  0.3127
  269MOL   O11448890   5.640   1.248   6.855 -0.0817  0.2808  0.1071
  269MOL   H11548891   5.790   1.589   7.112  2.1738 -0.5075 -0.7864
  269MOL   H11648892   5.818   1.600   6.945 -1.2300 -2.6196 -2.3854
  269MOL   H11748893   5.801   1.386   7.049  0.6275  2.0772 -0.4811
  269MOL   H11848894   5.607   1.227   6.769  2.0494  1.7257 -1.1014
  269MOL   C11948895   5.595   1.379   7.110  0.0145 -0.0252  1.0311
  269MOL   C12048896   5.594   1.230   7.156  0.2591 -0.1732  0.6853
  269MOL   C12148897   5.454   1.177   7.134  0.1686  0.1623  0.6771
  269MOL   O12248898   5.363   1.211   7.213 -0.4287  0.2181 -0.3471
  269MOL   O12348899   5.439   1.114   7.018 -1.0941 -0.0275  0.9155
  269MOL   H12448900   5.504   1.407   7.057  0.8736  0.8175 -0.0098
  269MOL   H12548901   5.589   1.443   7.199  0.3812  0.4995  0.6790
  269MOL   H12648902   5.664   1.176   7.092  0.9851  0.6779  0.7593
  269MOL   H12748903   5.354   1.073   7.013 -1.0500 -0.0564  0.3742
  269MOL   C12848904   5.638   1.220   7.304  0.2759 -0.3269 -0.8512
  269MOL   C12948905   5.770   1.306   7.340 -0.1877  0.0211  0.1722
  269MOL   C13048906   5.905   1.231   7.301  0.5631  1.3009  0.2947
  269MOL   O13148907   5.995   1.283   7.239  0.6349  0.4930 -0.3477
  269MOL   O13248908   5.894   1.098   7.337  0.0485 -0.1038  0.3356
  269MOL   H13348909   5.635   1.119   7.344 -2.0193 -0.1726 -0.6171
  269MOL   H13448910   5.561   1.269   7.363  1.5164  0.2713  0.3021
  269MOL   H13548911   5.777   1.399   7.283 -0.6793  0.1577  0.3388
  269MOL   H13648912   5.976   1.054   7.323 -0.4180 -1.1384  0.7897
  269MOL   C13748913   5.779   1.353   7.489 -0.1308 -0.2617  0.5248
  269MOL   C13848914   5.709   1.486   7.529  0.1725 -0.4092 -0.0176
  269MOL   C13948915   5.778   1.612   7.471 -0.0645  0.4795 -0.0553
  269MOL   O14048916   5.890   1.607   7.423  0.2958  0.0870 -0.0012
  269MOL   O14148917   5.699   1.729   7.479 -0.1163  0.0851 -0.1188
  269MOL   H14248918   5.884   1.358   7.516  0.7284  2.2670 -2.9494
  269MOL   H14348919   5.731   1.268   7.538  1.3648  0.0544  2.5904
  269MOL   H14448920   5.608   1.480   7.487 -0.4391 -0.8308  1.4989
  269MOL   H14548921   5.747   1.803   7.445 -0.1074  0.0897 -0.0959
  269MOL   C14648922   5.683   1.494   7.677  0.1351 -0.6282 -0.0826
  269MOL   C14748923   5.794   1.529   7.784  0.1031 -0.5047 -0.1317
  269MOL   C14848924   5.896   1.413   7.802  0.8367  0.2036  0.2562
  269MOL   O14948925   5.878   1.291   7.781  0.2154 -0.5802  0.5469
  269MOL   O15048926   6.006   1.468   0.001 -0.0187 -0.3472  0.3933
  269MOL   H15148927   5.644   1.396   7.705 -1.1205 -0.5311 -1.4166
  269MOL   H15248928   5.595   1.559   7.678  0.5407 -0.0124 -1.6612
  269MOL   H15348929   5.844   1.620   7.752 -1.5117  0.6829  0.6510
  269MOL   H15448930   6.082   1.413   0.010 -0.7382 -1.4213 -0.0263
  269MOL   C15548931   5.743   1.576   0.068 -0.1667 -0.0883 -0.4823
  269MOL   C15648932   5.694   1.469   0.169  0.2379 -0.1137 -0.0281
  269MOL   C15748933   5.573   1.386   0.121  0.2391 -0.3518  0.3388
  269MOL   O15848934   5.476   1.430   0.059  0.1163  0.5298 -0.6792
  269MOL   O15948935   5.587   1.260   0.167 -0.2821 -0.4882 -0.0537
  269MOL   H16048936   5.665   1.647   0.041 -1.5223 -1.5825 -0.5234
  269MOL   H16148937   5.822   1.636   0.114 -0.8974  1.2711 -0.9835
  269MOL   H16248938   5.778   1.406   0.197  0.4695  0.2891  0.1872
  269MOL   H16348939   5.509   1.211   0.146 -0.7084 -0.0243  0.4379
  269MOL   C16448940   5.650   1.542   0.300  0.5377 -0.2434 -0.5228
  269MOL   C16548941   5.764   1.609   0.385  0.4445 -0.3666  0.3138
  269MOL   C16648942   5.885   1.519   0.419 -0.5477 -0.0803 -0.1636
  269MOL   O16748943   5.988   1.521   0.354 -0.0614  0.3754 -0.4795
  269MOL   O16848944   5.857   1.421   0.513  0.6642 -0.4734 -0.0845
  269MOL   H16948945   5.593   1.474   0.363 -1.7622  1.4735 -0.6783
  269MOL   H17048946   5.579   1.623   0.283  0.3303 -0.6019 -1.3931
  269MOL   H17148947   5.813   1.690   0.331  0.4748 -0.3750  0.3285
  269MOL   H17248948   5.935   1.370   0.531  1.7819  2.0366  2.6487
  269MOL   C17348949   5.702   1.670   0.514 -0.0023 -0.4699 -0.3946
  269MOL   C17448950   5.626   1.805   0.503 -0.6997 -0.0502  0.8093
  269MOL   C17548951   5.697   1.921   0.440 -0.2211 -0.5905 -0.1703
  269MOL   O17648952   5.809   1.923   0.401 -0.8101 -0.4463 -0.2836
  269MOL   O17748953   5.613   2.031   0.434 -0.5616  0.2222 -0.1477
  269MOL   H17848954   5.783   1.686   0.585 -1.3801  1.8678  0.7157
  269MOL   H17948955   5.629   1.613   0.571 -0.5389  0.9302  0.3497
  269MOL   H18048956   5.541   1.793   0.436  0.2683 -2.2943 -0.0939
  269MOL   H18148957   5.650   2.110   0.396 -0.6021  1.2287  1.8705
  269MOL   H18248958   5.602   1.853   0.598 -0.5326 -0.0520  0.8527
  270MOL     C148959   6.362   1.716   6.331  0.0101 -0.0528  0.3807
  270MOL     C248960   6.222   1.675   6.373 -0.3727  0.3186  0.1162
  270MOL     C348961   6.229   1.612   6.506  0.0905  1.0885 -0.0563
  270MOL     O448962   6.152   1.653   6.598  0.0725 -0.7093  0.7599
  270MOL     O548963   6.324   1.512   6.517 -0.0102  0.2219  0.0420
  270MOL     H648964   6.438   1.638   6.322 -0.2837 -0.3019  0.0520
  270MOL     H748965   6.368   1.763   6.233 -2.0934  2.6630  1.4708
  270MOL     H848966   6.162   1.765   6.387 -0.4094  0.2412  0.4610
  270MOL     H948967   6.320   1.466   6.599  0.4631  0.8922  0.4458
  270MOL    H1048968   6.405   1.786   6.403 -0.0644 -0.2394  0.6057
  270MOL    C1148969   6.152   1.576   6.271 -0.2528  0.0789 -0.4083
  270MOL    C1248970   6.007   1.538   6.304 -0.4118  0.0187  0.4351
  270MOL    C1348971   5.954   1.426   6.215 -0.1467  0.2292 -0.0164
  270MOL    O1448972   5.874   1.340   6.256  0.3271  0.0735 -0.2276
  270MOL    O1548973   5.995   1.431   6.088 -0.3371 -0.1663  0.0480
  270MOL    H1648974   6.214   1.488   6.256 -0.1148  0.5123 -2.5639
  270MOL    H1748975   6.144   1.637   6.181  5.0553  0.8523 -0.4858
  270MOL    H1848976   6.011   1.485   6.399  2.8556  1.5219  1.1883
  270MOL    H1948977   5.950   1.364   6.039  0.0733 -1.4666  1.4002
  270MOL    C2048978   5.907   1.657   6.293  0.3783  0.5886  0.5943
  270MOL    C2148979   5.751   1.647   6.330  0.3765 -0.0718  0.0466
  270MOL    C2248980   5.725   1.556   6.446 -0.3631  0.1549 -0.4460
  270MOL    O2348981   5.632   1.473   6.436 -0.1117 -0.1181 -0.6333
  270MOL    O2448982   5.817   1.565   6.547 -0.0562  0.2845 -0.0343
  270MOL    H2548983   5.924   1.706   6.197 -1.9763  0.9110  0.3205
  270MOL    H2648984   5.942   1.726   6.369  0.2118 -1.3183  2.4459
  270MOL    H2748985   5.720   1.744   6.368  0.6424  0.9623 -2.3589
  270MOL    H2848986   5.782   1.522   6.624  0.6562 -1.6275 -0.7737
  270MOL    C2948987   5.655   1.643   6.214  0.7846  0.0553 -0.2627
  270MOL    C3048988   5.618   1.778   6.143  0.1480  0.0898  0.8040
  270MOL    C3148989   5.536   1.876   6.230 -0.5255 -1.4202 -0.0154
  270MOL    O3248990   5.475   1.830   6.328 -0.0005  0.0533  0.0958
  270MOL    O3348991   5.517   1.999   6.176  0.2406  1.1040 -0.0824
  270MOL    H3448992   5.567   1.605   6.266  1.2004 -2.6161 -1.4678
  270MOL    H3548993   5.687   1.576   6.134  0.1523 -1.3163  0.6137
  270MOL    H3648994   5.717   1.823   6.133  0.8197 -1.3597  0.7973
  270MOL    H3748995   5.455   2.052   6.224 -0.5963 -0.7401  0.8765
  270MOL    C3848996   5.551   1.752   6.009 -0.1277  0.2228  0.2486
  270MOL    C3948997   5.633   1.785   5.888 -0.1813  0.4532 -0.1624
  270MOL    C4048998   5.542   1.769   5.761  0.3560  1.1365 -0.0737
  270MOL    O4148999   5.538   1.838   5.660  0.3607  0.2938  0.1714
  270MOL    O4249000   5.458   1.664   5.777 -0.4203 -0.1343 -0.6502
  270MOL    H4349001   5.452   1.797   6.020 -0.2268  0.1683 -0.3894
  270MOL    H4449002   5.521   1.647   6.007 -0.1756  0.2179  1.3231
  270MOL    H4549003   5.673   1.887   5.885  0.1487  0.3242 -0.2064
  270MOL    H4649004   5.404   1.655   5.699 -0.3246  0.1594 -0.7536
  270MOL    C4749005   5.760   1.688   5.870 -0.3132  0.5399 -0.3461
  270MOL    C4849006   5.871   1.719   5.762 -0.2303  0.8795 -0.0708
  270MOL    C4949007   5.966   1.607   5.766  0.2968  0.2996  0.6340
  270MOL    O5049008   5.963   1.521   5.671 -0.3323 -0.2685 -0.0725
  270MOL    O5149009   6.055   1.607   5.867 -0.1833  0.1347 -0.0339
  270MOL    H5249010   5.736   1.584   5.846  2.1043 -0.1279  0.0222
  270MOL    H5349011   5.808   1.680   5.968  0.6247 -1.8950 -0.9687
  270MOL    H5449012   5.829   1.704   5.663  1.4586  2.3007 -1.0498
  270MOL    H5549013   6.101   1.524   5.864 -1.3102 -0.4810 -0.4373
  270MOL    C5649014   5.939   1.857   5.778  0.7760 -0.3185 -0.6294
  270MOL    C5749015   6.066   1.874   5.686 -0.5228 -0.2587 -0.4017
  270MOL    C5849016   6.133   2.007   5.719 -0.1416 -0.6773  0.6763
  270MOL    O5949017   6.251   2.020   5.750 -0.2411 -0.3320 -0.2961
  270MOL    O6049018   6.061   2.113   5.695 -0.2326 -0.5425  0.8704
  270MOL    H6149019   5.977   1.873   5.879 -3.1742 -1.8145  1.2023
  270MOL    H6249020   5.869   1.940   5.775 -0.3469 -1.2516 -0.4919
  270MOL    H6349021   6.136   1.797   5.718  0.5980  1.0647  0.3504
  270MOL    H6449022   6.110   2.187   5.726  0.0384  0.4799 -1.8919
  270MOL    C6549023   6.028   1.874   5.534 -0.2589  0.2796  0.5665
  270MOL    C6649024   6.151   1.851   5.435 -0.5065 -0.1147 -0.1616
  270MOL    C6749025   6.219   1.988   5.397  0.0844 -0.2957  0.3674
  270MOL    O6849026   6.162   2.080   5.343  0.0966  0.5372 -0.3949
  270MOL    O6949027   6.351   1.978   5.416 -0.0165  0.2748  0.3082
  270MOL    H7049028   5.974   1.967   5.512 -2.3519 -1.1165 -0.3586
  270MOL    H7149029   5.964   1.788   5.514  0.7526 -0.5520  0.9136
  270MOL    H7249030   6.230   1.791   5.481 -0.0028  0.7510  0.1326
  270MOL    H7349031   6.381   2.067   5.401  0.2091  0.1641  0.0874
  270MOL    C7449032   6.105   1.794   5.306  0.3802 -0.0061  0.0903
  270MOL    C7549033   6.205   1.744   5.192  0.9307  0.1882 -0.0550
  270MOL    C7649034   6.308   1.636   5.238  0.2369  0.1413 -0.5865
  270MOL    O7749035   6.418   1.660   5.274  0.4492 -0.1535  0.0495
  270MOL    O7849036   6.252   1.516   5.254 -0.3597  0.1533 -0.4015
  270MOL    H7949037   6.037   1.866   5.261  0.9967 -1.1793 -2.8577
  270MOL    H8049038   6.040   1.709   5.326  0.2198  0.8602  3.5141
  270MOL    H8149039   6.137   1.679   5.137  1.0596 -1.7761  2.0144
  270MOL    H8249040   6.306   1.445   5.286 -0.2419  0.6369  0.4807
  270MOL    C8349041   6.263   1.848   5.103  0.4758 -0.3570  0.4145
  270MOL    C8449042   6.285   1.817   4.955 -0.4703  0.0933  0.0063
  270MOL    C8549043   6.389   1.698   4.937  0.1199 -0.1177  0.0945
  270MOL    O8649044   6.503   1.708   4.977 -0.0884 -0.1474 -0.0823
  270MOL    O8749045   6.329   1.584   4.893  0.1377 -0.0898  0.0893
  270MOL    H8849046   6.360   1.879   5.144  0.2543 -0.4372  1.0034
  270MOL    H8949047   6.198   1.935   5.109  0.1053 -0.6697  0.9568
  270MOL    H9049048   6.192   1.787   4.907 -2.9731  3.5929  2.4609
  270MOL    H9149049   6.391   1.514   4.879  2.4284  2.2622 -2.1737
  270MOL    C9249050   6.326   1.937   4.860  0.1171 -0.4137 -0.3255
  270MOL    C9349051   6.211   2.030   4.812 -0.5195  0.2382  0.0437
  270MOL    C9449052   6.122   1.962   4.713 -0.1078 -0.2494 -0.0703
  270MOL    O9549053   6.143   1.852   4.663 -0.8400 -0.5335  0.4754
  270MOL    O9649054   6.003   2.027   4.696  0.2302 -0.6516  0.4501
  270MOL    H9749055   6.375   1.915   4.765  2.8555  0.0207  0.9464
  270MOL    H9849056   6.398   1.995   4.917 -2.2982  1.4625  0.9094
  270MOL    H9949057   6.156   2.057   4.902 -0.4991 -2.9391  1.0401
  270MOL   H10049058   5.934   1.977   4.654  0.5662 -3.3238  2.8932
  270MOL   C10149059   6.266   2.173   4.758  0.3767  0.0256  0.2305
  270MOL   C10249060   6.372   2.252   4.836  1.0444  0.4263  0.4130
  270MOL   C10349061   6.331   2.269   4.980  0.4351 -0.2624  0.6864
  270MOL   O10449062   6.362   2.191   5.065  0.1727 -0.0225 -0.4920
  270MOL   O10549063   6.243   2.375   4.996  0.1120 -0.0668  0.1480
  270MOL   H10649064   6.183   2.241   4.738  0.9798  0.7483  0.1300
  270MOL   H10749065   6.300   2.147   4.657  0.0598 -2.9026  0.8308
  270MOL   H10849066   6.462   2.191   4.844  0.7067  0.0990  1.9288
  270MOL   H10949067   6.217   2.367   5.086  0.4714  1.2718  0.3925
  270MOL   C11049068   6.426   2.380   4.774  0.0892 -0.7262 -0.1674
  270MOL   C11149069   6.334   2.496   4.705  0.0342  0.3919 -0.2468
  270MOL   C11249070   6.247   2.450   4.590 -0.8358  0.2244 -0.1976
  270MOL   O11349071   6.281   2.371   4.504 -0.6093 -0.1946 -0.1992
  270MOL   O11449072   6.131   2.517   4.584  0.0114 -0.0051 -0.1857
  270MOL   H11549073   6.485   2.350   4.688 -0.8147  0.3840 -1.2031
  270MOL   H11649074   6.495   2.421   4.847  0.8518 -1.2949 -0.5655
  270MOL   H11749075   6.259   2.514   4.783 -0.3233 -1.1509 -0.2063
  270MOL   H11849076   6.066   2.486   4.523 -0.5529 -0.4367  0.6348
  270MOL   C11949077   6.399   2.624   4.651  0.1085 -0.0824  0.6854
  270MOL   C12049078   6.463   2.709   4.766  0.1718  0.0481 -0.0744
  270MOL   C12149079   6.345   2.772   4.846 -0.3696  0.2166  0.1428
  270MOL   O12249080   6.332   2.753   4.968  0.3437  0.1212 -0.4511
  270MOL   O12349081   6.283   2.874   4.775 -0.7431 -0.0214 -0.4245
  270MOL   H12449082   6.322   2.689   4.609 -0.9563 -1.1778  0.9529
  270MOL   H12549083   6.473   2.606   4.573 -0.7831  2.0175 -0.7166
  270MOL   H12649084   6.517   2.631   4.820 -0.0019  0.5870  0.8713
  270MOL   H12749085   6.220   2.913   4.834 -0.1706 -0.3526  0.4216
  270MOL   C12849086   6.568   2.817   4.727 -0.4673 -0.1955  0.2803
  270MOL   C12949087   6.716   2.783   4.688 -0.4887  0.1860  0.4612
  270MOL   C13049088   6.720   2.713   4.550 -0.1389  0.9971  0.3883
  270MOL   O13149089   6.722   2.590   4.544  0.0511  0.3330 -0.5165
  270MOL   O13249090   6.708   2.794   4.444 -0.3669 -0.2113  0.5454
  270MOL   H13349091   6.579   2.882   4.813  0.0151 -0.4995  0.4574
  270MOL   H13449092   6.518   2.868   4.645 -1.5026  0.9251  1.6042
  270MOL   H13549093   6.759   2.883   4.674 -0.9020  0.3144  0.1055
  270MOL   H13649094   6.715   2.762   4.355  1.0327  1.0349  0.1806
  270MOL   C13749095   6.798   2.710   4.796 -1.1254 -0.1534  0.6144
  270MOL   C13849096   6.948   2.677   4.763  0.1714  0.0852  0.9341
  270MOL   C13949097   7.006   2.612   4.891  0.7636 -0.4571  0.9851
  270MOL   O14049098   7.024   2.670   5.001  0.4456 -0.0836  0.3438
  270MOL   O14149099   7.034   2.483   4.859  0.6933  0.3643 -0.0213
  270MOL   H14249100   6.749   2.614   4.811 -0.2971 -1.2111 -2.9699
  270MOL   H14349101   6.791   2.766   4.889  0.8974 -0.8002  1.1767
  270MOL   H14449102   6.946   2.600   4.685 -1.4477 -0.0402  1.0689
  270MOL   H14549103   7.072   2.442   4.935  2.4484  0.1405 -0.9960
  270MOL   C14649104   7.025   2.801   4.721  0.3883  0.2787 -0.1950
  270MOL   C14749105   7.150   2.767   4.633  0.0191  0.4138 -0.9923
  270MOL   C14849106   7.103   2.762   4.484 -0.2289  0.5637  0.2897
  270MOL   O14949107   7.132   2.842   4.397  0.1895  0.6691 -0.2812
  270MOL   O15049108   7.029   2.656   4.458  0.1699  0.4173 -0.0196
  270MOL   H15149109   7.044   2.871   4.803  1.1946 -0.0301 -0.1180
  270MOL   H15249110   6.965   2.860   4.651  0.9050  0.7815 -0.2177
  270MOL   H15349111   7.200   2.864   4.638  0.1197  0.3160  0.0864
  270MOL   H15449112   6.992   2.658   4.371 -2.0560  0.2340  0.9052
  270MOL   C15549113   7.252   2.656   4.677 -0.5548 -0.1582  0.8416
  270MOL   C15649114   7.399   2.679   4.643  0.5389 -0.0054 -0.6159
  270MOL   C15749115   7.434   2.667   4.495 -0.8554  0.4750  0.1933
  270MOL   O15849116   7.388   2.593   4.414  0.4077 -0.0186  0.8806
  270MOL   O15949117   7.536   2.748   4.474  0.3399  0.7371 -0.2866
  270MOL   H16049118   7.215   2.560   4.641 -0.5657 -0.8981  2.7861
  270MOL   H16149119   7.248   2.645   4.785  0.8645 -2.3410  0.6933
  270MOL   H16249120   7.418   2.783   4.671 -1.0442  0.2688 -0.4831
  270MOL   H16349121   7.566   2.741   4.385  0.5844  1.1582 -0.2381
  270MOL   C16449122   7.490   2.584   4.734 -0.1402  0.6843  0.1968
  270MOL   C16549123   7.483   2.437   4.695  0.2093  0.5730  0.0669
  270MOL   C16649124   7.463   2.346   4.817  0.1490  0.0630  0.1560
  270MOL   O16749125   7.557   2.285   4.865 -0.2123 -0.0344  0.1811
  270MOL   O16849126   7.347   2.364   4.890  0.1180  0.3357  0.6521
  270MOL   H16949127   7.466   2.597   4.839  0.2405 -1.6748  0.5937
  270MOL   H17049128   7.595   2.612   4.727  0.6372 -2.2472 -0.5561
  270MOL   H17149129   7.399   2.420   4.628  1.6761  0.9410 -1.9321
  270MOL   H17249130   7.358   2.319   4.972 -1.2891 -2.8724 -0.8547
  270MOL   C17349131   7.606   2.387   4.609 -0.0094 -0.0692  0.2982
  270MOL   C17449132   7.573   2.261   4.523 -0.8976 -0.3133  0.7124
  270MOL   C17549133   7.698   2.186   4.459  0.4681  0.3778 -0.2579
  270MOL   O17649134   7.812   2.223   4.470  0.1926 -0.4192  0.4538
  270MOL   O17749135   7.650   2.071   4.406 -0.3162 -0.0853  0.0080
  270MOL   H17849136   7.695   2.369   4.669 -0.3758 -1.3846  0.4697
  270MOL   H17949137   7.637   2.456   4.531  2.8992 -1.4075  0.2206
  270MOL   H18049138   7.508   2.189   4.573  1.1284 -2.0220  0.9783
  270MOL   H18149139   7.718   2.021   4.361  1.5458  3.0001 -0.7495
  270MOL   H18249140   7.505   2.300   4.448 -2.1180 -0.2716  1.8332
  271MOL     C149141   7.477   2.542   5.198 -0.0572  0.3982  0.1537
  271MOL     C249142   7.383   2.447   5.288 -0.7761 -0.0218  0.0410
  271MOL     C349143   7.303   2.524   5.392 -0.5964  0.0443 -0.6731
  271MOL     O449144   7.205   2.475   5.451 -0.3479  0.2260  0.0824
  271MOL     O549145   7.359   2.642   5.425  0.4215  0.6043 -0.0875
  271MOL     H649146   7.572   2.561   5.248  0.0081 -1.2362  0.6808
  271MOL     H749147   7.500   2.492   5.104  1.4689  1.6336 -0.1552
  271MOL     H849148   7.310   2.412   5.214 -1.7052  0.6312  0.6376
  271MOL     H949149   7.297   2.692   5.477 -1.6266 -1.8511 -0.0323
  271MOL    H1049150   7.433   2.636   5.162  1.2958 -0.3928 -3.9067
  271MOL    C1149151   7.467   2.324   5.355  0.2502 -0.7049  0.0784
  271MOL    C1249152   7.509   2.215   5.250 -0.3924  0.3489 -0.2327
  271MOL    C1349153   7.394   2.122   5.208 -0.1468 -0.4633 -0.8186
  271MOL    O1449154   7.352   2.030   5.282 -0.2034 -0.2284  0.0592
  271MOL    O1549155   7.332   2.163   5.098 -0.5279 -0.6246 -0.7723
  271MOL    H1649156   7.405   2.278   5.432  0.4333 -1.7565 -0.4028
  271MOL    H1749157   7.548   2.379   5.402  0.6150  0.3855 -1.8134
  271MOL    H1849158   7.548   2.267   5.162  0.4572  1.8479  1.0019
  271MOL    H1949159   7.265   2.097   5.086  0.0961 -1.4607  0.2347
  271MOL    C2049160   7.631   2.136   5.303  0.1124  0.3252 -0.8424
  271MOL    C2149161   7.643   2.081   5.449 -0.3353 -0.8240 -0.2833
  271MOL    C2249162   7.644   2.176   5.573 -0.5441  0.0457 -0.5599
  271MOL    O2349163   7.724   2.268   5.591  0.1658  0.7401  0.3030
  271MOL    O2449164   7.543   2.147   5.658  0.1092 -0.4709  0.5703
  271MOL    H2549165   7.715   2.204   5.293 -0.4379  1.3154  1.1255
  271MOL    H2649166   7.662   2.066   5.225 -1.5856 -0.9115 -0.4376
  271MOL    H2749167   7.553   2.020   5.461  0.6562 -2.9783 -3.0821
  271MOL    H2849168   7.539   2.210   5.729 -1.6655 -0.2377  0.3020
  271MOL    C2949169   7.751   1.965   5.466  0.0225 -0.1983  0.5415
  271MOL    C3049170   7.723   1.837   5.381  0.3380  0.0333 -0.2098
  271MOL    C3149171   7.585   1.778   5.407  0.2758  0.2701  0.4708
  271MOL    O3249172   7.509   1.730   5.324  0.3060 -0.0360 -0.5553
  271MOL    O3349173   7.549   1.783   5.535 -0.0458 -0.3348 -0.4508
  271MOL    H3449174   7.756   1.938   5.572  0.1871 -0.2574  0.5179
  271MOL    H3549175   7.850   2.001   5.438 -0.1242 -1.3563 -1.5053
  271MOL    H3649176   7.722   1.855   5.273  0.5012  0.1506 -0.1919
  271MOL    H3749177   7.473   1.727   5.549  1.3401 -1.3010  3.9726
  271MOL    C3849178   7.821   1.715   5.402  0.1523  0.1443  0.2651
  271MOL    C3949179   0.116   1.739   5.356  0.3001 -0.2254  0.1955
  271MOL    C4049180   0.189   1.824   5.458 -0.1200  0.1978 -0.8754
  271MOL    O4149181   0.236   1.933   5.437  0.1379 -0.7966  0.1186
  271MOL    O4249182   0.201   1.760   5.576 -0.2250 -0.6853  0.4186
  271MOL    H4349183   7.776   1.628   5.354  0.1183 -0.1226  0.7794
  271MOL    H4449184   7.821   1.690   5.508  1.4831 -0.7033  0.0790
  271MOL    H4549185   0.164   1.642   5.350  1.7902  0.5853 -1.2944
  271MOL    H4649186   0.233   1.814   5.646  0.9925 -2.0530  0.9605
  271MOL    C4749187   0.121   1.798   5.208 -0.1786  0.0176 -0.3171
  271MOL    C4849188   0.240   1.738   5.126 -0.1946  0.4179 -0.0673
  271MOL    C4949189   0.379   1.782   5.177  0.1090 -0.0753  0.1637
  271MOL    O5049190   0.435   1.882   5.142 -0.2741  0.8439 -0.1329
  271MOL    O5149191   0.424   1.687   5.266  0.0125 -0.2423  0.2725
  271MOL    H5249192   0.126   1.907   5.204  1.5022  0.0462  1.9503
  271MOL    H5349193   0.031   1.778   5.150 -1.6633  0.7433  1.6597
  271MOL    H5449194   0.234   1.629   5.123  0.9606  0.3840 -1.7681
  271MOL    H5549195   0.510   1.720   5.288  0.3173 -0.9758  0.2029
  271MOL    C5649196   0.235   1.766   4.977 -0.3729 -0.2150  0.4050
  271MOL    C5749197   0.120   1.695   4.893 -0.0718 -0.2664 -0.2426
  271MOL    C5849198   0.142   1.543   4.881 -0.4565 -0.0859  0.1082
  271MOL    O5949199   0.250   1.484   4.897 -0.2297  0.3340  0.1215
  271MOL    O6049200   0.024   1.481   4.856  0.3904 -0.2325  0.6019
  271MOL    H6149201   0.331   1.736   4.935  1.0092  1.5866  2.1721
  271MOL    H6249202   0.245   1.874   4.969  1.9183 -0.5861 -2.3768
  271MOL    H6349203   0.031   1.719   4.951  0.2005 -0.7434  0.3713
  271MOL    H6449204   0.047   1.395   4.824  0.4223 -0.5840  1.5437
  271MOL    C6549205   0.102   1.751   4.751 -0.5736 -0.9162  0.5907
  271MOL    C6649206   0.011   1.885   4.736 -0.8265  0.5125  0.4849
  271MOL    C6749207   0.064   1.993   4.826 -0.3445 -0.0305  0.1148
  271MOL    O6849208   0.159   2.066   4.797  0.2092  0.2399  0.6644
  271MOL    O6949209   7.842   2.019   4.937  0.1332  0.4400  0.0924
  271MOL    H7049210   0.059   1.675   4.686 -0.3905  2.2151 -3.3717
  271MOL    H7149211   0.200   1.766   4.705 -1.0142  0.1959 -0.0046
  271MOL    H7249212   0.054   1.919   4.642  0.4612  0.5440  1.0714
  271MOL    H7349213   7.850   2.106   4.973  1.0091  0.0883  0.7548
  271MOL    C7449214   7.714   1.893   4.711  0.1744  0.3842 -0.3569
  271MOL    C7549215   7.599   1.843   4.808 -0.9878  0.4693  0.1020
  271MOL    C7649216   7.627   1.695   4.838  0.5771 -0.7514  0.4226
  271MOL    O7749217   7.634   1.609   4.749 -0.4528 -0.0102 -0.3393
  271MOL    O7849218   7.644   1.674   4.974 -0.8481 -0.3197 -0.5203
  271MOL    H7949219   7.695   1.844   4.616  0.3060 -1.0103  0.3229
  271MOL    H8049220   7.690   1.999   4.702 -1.9412 -0.0120  0.2907
  271MOL    H8149221   7.610   1.898   4.902 -0.0929 -0.6048  0.6374
  271MOL    H8249222   7.661   1.583   4.990 -1.1352  0.0733  2.3658
  271MOL    C8349223   7.451   1.857   4.752 -0.0734  0.8934 -0.0153
  271MOL    C8449224   7.329   1.893   4.849 -0.0001  0.6562 -0.1341
  271MOL    C8549225   7.294   1.789   4.958  0.5680 -0.0289 -0.5711
  271MOL    O8649226   7.323   1.667   4.953 -0.2383  0.1309  0.1289
  271MOL    O8749227   7.215   1.842   5.056  0.3399  0.2408  0.4377
  271MOL    H8849228   7.417   1.774   4.691  0.1947  0.8290 -0.0798
  271MOL    H8949229   7.446   1.931   4.671  0.6058  1.7763  0.7387
  271MOL    H9049230   7.358   1.985   4.900 -2.5170  1.0257  0.6703
  271MOL    H9149231   7.172   1.777   5.108 -0.2765  1.1792  1.1245
  271MOL    C9249232   7.207   1.921   4.755 -0.1246  0.0345 -0.1650
  271MOL    C9349233   7.186   2.048   4.673 -0.1252 -0.0206 -0.2842
  271MOL    C9449234   7.129   2.160   4.756  0.7789 -0.4837 -0.1344
  271MOL    O9549235   7.107   2.153   4.877 -0.1225 -0.0442 -0.4397
  271MOL    O9649236   7.093   2.265   4.677  0.3721  0.1215 -0.2106
  271MOL    H9749237   7.114   1.893   4.805  1.4112  0.5176  3.1251
  271MOL    H9849238   7.201   1.834   4.690  1.7936  0.0208 -0.3618
  271MOL    H9949239   7.285   2.077   4.637 -0.7421 -0.3452 -2.3151
  271MOL   H10049240   7.055   2.336   4.725 -1.2034 -0.1534 -1.0173
  271MOL   C10149241   7.105   2.025   4.537  0.9656 -0.1544 -0.0220
  271MOL   C10249242   7.161   1.920   4.436 -0.1073  0.1157 -0.2793
  271MOL   C10349243   7.311   1.915   4.417 -0.6142  0.3124  0.4871
  271MOL   O10449244   7.372   1.812   4.448 -0.3684 -0.0609 -0.1483
  271MOL   O10549245   7.371   2.026   4.372  1.2335 -0.2614  0.5672
  271MOL   H10649246   7.091   2.122   4.489 -5.0304  0.3357  2.3234
  271MOL   H10749247   7.003   1.996   4.563  0.1353  3.2428  0.8121
  271MOL   H10849248   7.136   1.825   4.484  0.6497 -0.2054 -0.5128
  271MOL   H10949249   7.463   2.006   4.369  1.0048 -1.1761 -0.9587
  271MOL   C11049250   7.095   1.936   4.306 -0.6469  0.1986 -0.0071
  271MOL   C11149251   7.048   1.811   4.225  0.1136  0.1681  0.4340
  271MOL   C11249252   7.168   1.731   4.167 -0.0812 -0.2134 -0.0563
  271MOL   O11349253   7.264   1.780   4.107 -0.6739 -0.4910  0.0435
  271MOL   O11449254   7.147   1.601   4.200 -0.2863  0.2066  0.2871
  271MOL   H11549255   7.147   1.993   4.229 -0.6050 -0.1030 -0.2028
  271MOL   H11649256   7.005   1.993   4.328 -0.7435 -0.3597  1.0411
  271MOL   H11749257   6.980   1.749   4.283 -2.4498 -1.0177 -3.6339
  271MOL   H11849258   7.210   1.536   4.174 -0.2126 -1.1304  3.5938
  271MOL   C11949259   6.947   1.848   4.114  0.0284 -0.5699  0.5375
  271MOL   C12049260   6.880   1.734   4.036 -0.0280 -0.2225  0.1774
  271MOL   C12149261   6.865   1.784   3.894 -0.2012  0.3692 -0.2713
  271MOL   O12249262   6.834   1.900   3.873  0.2144  0.4774  0.2863
  271MOL   O12349263   6.898   1.691   3.801  0.3429  0.1122  0.3060
  271MOL   H12449264   7.006   1.912   4.049 -0.3870 -0.9055 -0.1667
  271MOL   H12549265   6.873   1.916   4.156  0.1889 -0.8576  1.2995
  271MOL   H12649266   6.944   1.645   4.029 -0.2148 -0.2783 -1.0017
  271MOL   H12749267   6.862   1.721   3.719  0.6050 -2.7360 -0.9362
  271MOL   C12849268   6.740   1.696   4.092 -0.9086  0.5364 -0.1885
  271MOL   C12949269   6.684   1.567   4.045 -0.2249 -0.2560 -0.0053
  271MOL   C13049270   6.531   1.560   4.060  0.7232 -0.5587 -0.4349
  271MOL   O13149271   6.473   1.468   4.129 -0.5440  0.3936 -0.0111
  271MOL   O13249272   6.465   1.652   3.996  0.3151  0.7590  0.8219
  271MOL   H13349273   6.673   1.777   4.062  0.6884  1.9005 -0.1745
  271MOL   H13449274   6.740   1.700   4.201  0.7065  0.6706 -0.1841
  271MOL   H13549275   6.704   1.560   3.938 -0.9125  1.4315 -0.2668
  271MOL   H13649276   6.374   1.652   4.022  0.7537  0.4428  2.4094
  271MOL   C13749277   6.762   1.452   4.113 -0.1283  0.2559  0.1776
  271MOL   C13849278   6.766   1.325   4.024 -0.2746 -0.3296 -0.5226
  271MOL   C13949279   6.734   1.203   4.114  0.8000 -0.4812  0.2998
  271MOL   O14049280   6.816   1.112   4.124 -0.0303 -0.0705 -0.3898
  271MOL   O14149281   6.616   1.209   4.182 -0.2916 -0.5293  0.0463
  271MOL   H14249282   6.718   1.443   4.212 -2.3184  2.4092 -0.5420
  271MOL   H14349283   6.865   1.477   4.136 -0.2098  0.9047 -0.1291
  271MOL   H14449284   6.680   1.330   3.957 -0.9700  0.7976  0.4156
  271MOL   H14549285   6.571   1.288   4.157 -0.9393  0.2777  3.4274
  271MOL   C14649286   6.901   1.332   3.935  0.0136 -0.9097 -0.5661
  271MOL   C14749287   6.931   1.213   3.834  0.0906 -0.6827 -0.3849
  271MOL   C14849288   7.064   1.141   3.858 -0.6636 -0.3604 -1.2507
  271MOL   O14949289   7.151   1.189   3.932  0.1133 -0.2247  0.5312
  271MOL   O15049290   7.089   1.037   3.776  0.0014  0.5349 -0.4023
  271MOL   H15149291   6.982   1.347   4.006 -1.3852 -1.4319  1.1541
  271MOL   H15249292   6.890   1.427   3.883 -2.1923 -0.6327  0.3577
  271MOL   H15349293   6.856   1.136   3.855 -0.7237  0.8155  2.4106
  271MOL   H15449294   7.176   1.004   3.793  0.8121  1.6787 -2.1905
  271MOL   C15549295   6.919   1.252   3.680 -0.7389  0.1560  0.4954
  271MOL   C15649296   6.771   1.256   3.629  0.1456 -0.1971 -0.4789
  271MOL   C15749297   6.747   1.184   3.498  0.1770  0.7264 -0.6604
  271MOL   O15849298   6.649   1.112   3.480  0.0674  0.3570 -0.6881
  271MOL   O15949299   6.829   1.225   3.397  0.4032  0.1648 -0.0474
  271MOL   H16049300   6.983   1.185   3.623 -1.2776 -0.6613  0.8383
  271MOL   H16149301   6.970   1.348   3.676  0.6201 -0.5476  0.5322
  271MOL   H16249302   6.716   1.204   3.708  1.0999  0.5081  0.6700
  271MOL   H16349303   6.794   1.177   3.324 -1.6406  1.7789 -0.1728
  271MOL   C16449304   6.732   1.407   3.615 -0.4392  0.6088  0.6354
  271MOL   C16549305   6.579   1.429   3.594  0.1977  0.7721  0.5485
  271MOL   C16649306   6.558   1.570   3.556 -0.0492 -0.1533  0.5695
  271MOL   O16749307   6.515   1.655   3.639  0.2352  0.1642  0.0126
  271MOL   O16849308   6.591   1.589   3.428  0.3950  0.1696  0.2564
  271MOL   H16949309   6.786   1.448   3.529  0.0645 -0.8188  0.2620
  271MOL   H17049310   6.774   1.467   3.696 -0.1003  1.3238 -0.0650
  271MOL   H17149311   6.548   1.367   3.509 -1.2066  1.7292  0.3467
  271MOL   H17249312   6.559   1.673   3.398  0.7772 -0.3360 -1.5932
  271MOL   C17349313   6.498   1.395   3.718 -0.1047 -0.9573 -0.8638
  271MOL   C17449314   6.342   1.398   3.710  0.0996  0.3967  0.7845
  271MOL   C17549315   6.278   1.290   3.623 -0.4729 -0.2014  0.2735
  271MOL   O17649316   6.210   1.309   3.527  0.1780 -0.5466 -0.6261
  271MOL   O17749317   6.317   1.168   3.665  0.4518  0.1520  0.1790
  271MOL   H17849318   6.520   1.467   3.797  0.4300 -0.7466 -1.2065
  271MOL   H17949319   6.534   1.300   3.758  1.5362 -0.0203 -0.0662
  271MOL   H18049320   6.308   1.376   3.811 -0.5629 -4.4752 -0.3668
  271MOL   H18149321   6.274   1.111   3.603 -1.2123  0.0686  1.3858
  271MOL   H18249322   6.286   1.490   3.694  1.0426  0.9384  0.5943
  272MOL     C149323   5.257   7.385   2.732  0.2468  0.7669  0.3394
  272MOL     C249324   5.342   7.513   2.761  0.3299  0.3525  0.2268
  272MOL     C349325   5.454   7.489   2.857  0.1843  0.2188  0.6302
  272MOL     O449326   5.571   7.477   2.829 -0.3401 -0.1381 -0.2640
  272MOL     O549327   5.397   7.458   2.978  0.8110 -0.2610  0.0581
  272MOL     H649328   5.306   7.340   2.645 -0.1119  0.3831  0.3327
  272MOL     H749329   5.256   7.320   2.819 -0.2148 -0.2633 -0.4211
  272MOL     H849330   5.387   7.542   2.666 -2.4146 -0.5547 -1.3714
  272MOL     H949331   5.453   7.411   3.039  0.1737  0.7042  1.3935
  272MOL    H1049332   5.153   7.414   2.719 -0.2873 -1.2132 -0.0314
  272MOL    C1149333   5.259   7.647   2.778 -0.6194  0.9223  0.4015
  272MOL    C1249334   5.327   7.781   2.754 -0.1535  0.1188  0.3303
  272MOL    C1349335   5.458   7.808   2.821  0.0524 -0.4454  0.0223
  272MOL    O1449336   5.458   7.808   2.941  0.0106  0.7105 -0.0909
  272MOL    O1549337   5.564   7.841   2.745  0.0895 -0.3215 -0.4658
  272MOL    H1649338   5.226   7.653   2.882  0.3052  1.1778  0.6837
  272MOL    H1749339   5.175   7.640   2.710 -0.0700  2.5882 -0.4634
  272MOL    H1849340   5.357   7.775   2.649  1.8544 -0.2273  0.8972
  272MOL    H1949341   5.633   0.016   2.802  0.4615  0.0343 -1.0840
  272MOL    C2049342   5.228   0.051   2.753 -0.1395  0.3257  0.5786
  272MOL    C2149343   5.189   0.112   2.890  0.3894  0.1850  0.6021
  272MOL    C2249344   5.109   0.017   2.983  0.6361  0.3731  0.0571
  272MOL    O2349345   5.137   7.850   3.104 -1.0610 -0.0219  0.2007
  272MOL    O2449346   5.001   7.819   2.924 -0.1513 -0.2165  0.0542
  272MOL    H2549347   5.139   0.025   2.696 -0.5171 -0.9422  1.7047
  272MOL    H2649348   5.280   0.128   2.697 -3.9461  2.4273 -0.2442
  272MOL    H2749349   5.282   0.139   2.940  0.5782  0.3764  0.1527
  272MOL    H2849350   4.971   7.758   2.990 -0.5880  0.6280  0.6387
  272MOL    C2949351   5.117   0.244   2.863  0.1399  0.0369  0.2371
  272MOL    C3049352   5.102   0.343   2.982  0.3588 -0.4436  0.1588
  272MOL    C3149353   4.973   0.318   3.060 -0.2627 -0.1461  0.2579
  272MOL    O3249354   4.878   0.247   3.024  0.2774 -0.4106 -0.2754
  272MOL    O3349355   4.973   0.383   3.183  0.0038  0.5215  0.6938
  272MOL    H3449356   5.033   0.228   2.795  1.8095 -0.9653 -1.6576
  272MOL    H3549357   5.181   0.291   2.789  1.7561  0.2318  1.7248
  272MOL    H3649358   5.192   0.333   3.043 -0.5241 -0.1854  1.5027
  272MOL    H3749359   4.903   0.345   3.234  0.9184 -0.3058  1.3513
  272MOL    C3849360   5.108   0.493   2.940  0.2207  0.1818 -0.1696
  272MOL    C3949361   5.005   0.554   2.841  0.1608 -0.2945 -0.0169
  272MOL    C4049362   5.052   0.528   2.700  0.4124  0.2753  0.1776
  272MOL    O4149363   5.155   0.585   2.649  0.3001  0.6124  0.1235
  272MOL    O4249364   4.980   0.429   2.641  0.1095  0.1861  0.1514
  272MOL    H4349365   5.207   0.519   2.902  0.9326  0.1647  1.6506
  272MOL    H4449366   5.109   0.545   3.035 -1.3650  0.4100 -0.2687
  272MOL    H4549367   4.914   0.500   2.866 -1.2115  1.1959 -1.6729
  272MOL    H4649368   4.906   0.392   2.686  0.1067  1.2642  1.0560
  272MOL    C4749369   4.985   0.701   2.873 -0.1069  0.6202 -0.4853
  272MOL    C4849370   4.864   0.777   2.814 -0.4061 -0.6821  0.0018
  272MOL    C4949371   4.889   0.928   2.804  0.2797 -0.1665 -0.4128
  272MOL    O5049372   4.970   0.989   2.865  0.2796 -0.9728  0.7133
  272MOL    O5149373   4.794   0.984   2.725 -0.4593 -0.5171  0.1169
  272MOL    H5249374   5.080   0.748   2.846  1.6262 -1.2551  2.1095
  272MOL    H5349375   4.985   0.705   2.982  0.6478 -0.7823 -0.4258
  272MOL    H5449376   4.866   0.751   2.708  0.4677  0.7977 -0.3637
  272MOL    H5549377   4.788   1.078   2.716 -0.8625 -0.4666  0.9256
  272MOL    C5649378   4.722   0.729   2.851 -0.2938 -0.0303 -0.1727
  272MOL    C5749379   4.710   0.727   3.007  0.0595  0.4776  0.1478
  272MOL    C5849380   4.736   0.587   3.069 -0.3225  0.0020 -0.1297
  272MOL    O5949381   4.704   0.483   3.024 -0.1678  0.5189 -0.0608
  272MOL    O6049382   4.800   0.590   3.189 -0.2791 -0.0264  0.1068
  272MOL    H6149383   4.699   0.629   2.813  0.9349  0.4614 -2.3068
  272MOL    H6249384   4.650   0.794   2.802  1.0949  1.1488 -0.6748
  272MOL    H6349385   4.778   0.795   3.060  1.4135 -0.3029 -0.5730
  272MOL    H6449386   4.823   0.673   3.229  1.2744  0.9551 -2.6295
  272MOL    C6549387   4.571   0.791   3.044  0.6528  0.5953  0.0219
  272MOL    C6649388   4.550   0.945   3.026 -0.0086  0.0345  0.3723
  272MOL    C6749389   4.667   1.035   3.076 -0.2295 -0.2208 -0.1592
  272MOL    O6849390   4.723   1.013   3.180 -0.0859 -0.7180  0.0475
  272MOL    O6949391   4.682   1.142   2.998 -0.0554 -0.3237 -0.6839
  272MOL    H7049392   4.549   0.773   3.150  1.7353 -0.9483  0.0036
  272MOL    H7149393   4.499   0.735   2.984  0.3431 -0.4732  1.3617
  272MOL    H7249394   4.548   0.961   2.918  0.8072 -1.0971  0.1784
  272MOL    H7349395   4.745   1.200   3.036  2.3242 -2.5502 -1.0798
  272MOL    C7449396   4.408   0.986   3.079 -0.2485 -0.4548  0.7326
  272MOL    C7549397   4.291   0.979   2.977  0.5147  0.1612  0.5392
  272MOL    C7649398   4.264   1.116   2.905  0.0919  0.2496  0.1273
  272MOL    O7749399   4.229   1.215   2.968  0.1554 -0.0765  0.3140
  272MOL    O7849400   4.267   1.100   2.769 -0.2884  0.5306 -0.3653
  272MOL    H7949401   4.405   1.090   3.111  0.0863 -0.2983  0.2650
  272MOL    H8049402   4.373   0.928   3.164  2.2024 -1.1483  1.2787
  272MOL    H8149403   4.344   0.923   2.900  2.1307  1.5186  0.6481
  272MOL    H8249404   4.240   1.180   2.726 -0.0914  0.5149 -0.5200
  272MOL    C8349405   4.156   0.908   3.019  0.2025 -0.7256  0.2579
  272MOL    C8449406   4.087   0.826   2.905 -0.2924 -0.0246 -0.4971
  272MOL    C8549407   3.939   0.785   2.919  0.4134 -0.6783  0.0302
  272MOL    O8649408   3.896   0.672   2.900  0.0682 -0.3268  0.7204
  272MOL    O8749409   3.867   0.895   2.963  0.1841  0.6148 -0.2083
  272MOL    H8849410   4.094   0.991   3.053 -0.1699 -0.0160 -2.0451
  272MOL    H8949411   4.165   0.840   3.104  0.9255 -1.5636 -0.4679
  272MOL    H9049412   4.082   0.899   2.823 -0.9610  1.2817  0.6832
  272MOL    H9149413   3.780   0.861   2.978  0.6839 -2.1968 -3.0633
  272MOL    C9249414   4.171   0.703   2.854 -0.2849  0.4535  0.2712
  272MOL    C9349415   4.165   0.688   2.697 -0.1464  0.0845 -0.1810
  272MOL    C9449416   4.147   0.540   2.653  0.1520  0.1423 -0.4196
  272MOL    O9549417   4.235   0.477   2.607  0.3449  0.7145 -0.2971
  272MOL    O9649418   4.020   0.498   2.674 -0.4023 -0.4137 -0.2032
  272MOL    H9749419   4.126   0.614   2.900 -1.7867  0.9987 -0.1055
  272MOL    H9849420   4.273   0.711   2.891 -0.0937 -3.0713  0.7508
  272MOL    H9949421   4.069   0.731   2.670  0.7445  1.0496 -1.9682
  272MOL   H10049422   3.996   0.413   2.639  1.9636 -0.8003 -0.9895
  272MOL   C10149423   4.278   0.776   2.631  0.3919 -0.1454 -0.1964
  272MOL   C10249424   4.274   0.790   2.470 -0.4698  0.2389  0.0084
  272MOL   C10349425   4.134   0.834   2.420  0.7671 -0.4794  0.3101
  272MOL   O10449426   4.057   0.769   2.353  0.5386 -0.1634  0.1444
  272MOL   O10549427   4.111   0.958   2.468  0.0045 -0.3629 -0.0437
  272MOL   H10649428   4.379   0.760   2.671  1.1599  1.3196 -1.4997
  272MOL   H10749429   4.266   0.877   2.670  1.3407 -0.5640  1.2331
  272MOL   H10849430   4.332   0.880   2.453  2.4978 -1.5907  0.1215
  272MOL   H10949431   4.030   0.999   2.442 -0.4709  0.1939  2.1975
  272MOL   C11049432   4.345   0.689   2.377 -0.5369  0.3606 -0.0166
  272MOL   C11149433   4.495   0.664   2.411  0.2818  0.5031  0.0329
  272MOL   C11249434   4.580   0.787   2.382  0.4304 -0.2557  0.5927
  272MOL   O11349435   4.555   0.860   2.288 -0.2821  0.3420 -0.2657
  272MOL   O11449436   4.687   0.799   2.465 -0.3295 -0.0680  0.3828
  272MOL   H11549437   4.340   0.705   2.270 -0.5492  2.7544  0.3083
  272MOL   H11649438   4.292   0.595   2.388  1.4038 -0.6614  0.6748
  272MOL   H11749439   4.498   0.650   2.519 -0.9820  1.5665  0.2153
  272MOL   H11849440   4.731   0.881   2.446 -1.7971  0.9382  1.2068
  272MOL   C11949441   4.550   0.539   2.344  0.4502  0.3132 -0.0716
  272MOL   C12049442   4.659   0.466   2.425  0.3211 -0.0480  0.2733
  272MOL   C12149443   4.788   0.464   2.343  0.6944  0.5058 -0.5906
  272MOL   O12249444   4.800   0.408   2.237  0.5301 -0.1446 -0.7467
  272MOL   O12349445   4.881   0.549   2.403 -0.2330  0.1111 -0.3915
  272MOL   H12449446   4.585   0.548   2.241  0.6681  0.8755  0.0468
  272MOL   H12549447   4.470   0.465   2.336 -0.4550  1.1154  1.3781
  272MOL   H12649448   4.685   0.525   2.513  1.2619 -0.0459  0.0019
  272MOL   H12749449   4.960   0.561   2.353  0.9121  1.1954  1.6262
  272MOL   C12849450   4.618   0.321   2.471 -0.2647  0.9187  0.3609
  272MOL   C12949451   4.534   0.314   2.604 -0.3542  0.1015  0.4323
  272MOL   C13049452   4.624   0.354   2.719  0.2468  0.0152  0.4697
  272MOL   O13149453   4.743   0.344   2.715  0.0670  0.6262  0.0582
  272MOL   O13249454   4.545   0.398   2.826  0.4321  0.6327 -0.5944
  272MOL   H13349455   4.709   0.265   2.494 -1.2084 -1.1396 -0.7920
  272MOL   H13449456   4.573   0.274   2.384 -0.3312  0.5157  0.6142
  272MOL   H13549457   4.457   0.392   2.599  0.9751  1.5310  1.5689
  272MOL   H13649458   4.608   0.408   2.896  0.4923  1.5827 -0.7687
  272MOL   C13749459   4.463   0.179   2.612  0.3981  0.6915 -0.3185
  272MOL   C13849460   4.353   0.163   2.722 -0.4513  0.4187  0.2343
  272MOL   C13949461   4.389   0.077   2.846 -1.0661 -0.1416  0.2973
  272MOL   O14049462   4.307   0.022   2.915 -0.0837  0.0505 -1.2760
  272MOL   O14149463   4.524   0.087   2.866 -0.0162  0.3654  0.0142
  272MOL   H14249464   4.530   0.092   2.612  0.7327  0.9502  0.4478
  272MOL   H14349465   4.410   0.148   2.522 -0.4523  1.2329 -0.0100
  272MOL   H14449466   4.333   0.259   2.771  0.4720  1.7245 -1.9110
  272MOL   H14549467   4.536   0.032   2.942 -0.4578  2.4895  1.6512
  272MOL   C14649468   4.210   0.124   2.677 -0.2017  0.2901  0.4485
  272MOL   C14749469   4.185   7.824   2.650  0.1647  0.4145  0.4416
  272MOL   C14849470   4.273   7.791   2.521  0.3619 -0.5230 -0.0525
  272MOL   O14949471   4.385   7.736   2.524 -0.5149  0.0745 -0.2780
  272MOL   O15049472   4.219   7.835   2.402  0.4411 -0.2524  0.3243
  272MOL   H15149473   4.169   0.175   2.590 -0.8069  0.9049  1.0832
  272MOL   H15249474   4.142   0.145   2.760 -1.4311  0.5951 -0.6278
  272MOL   H15349475   4.222   7.750   2.721  0.5873 -0.5730 -0.7777
  272MOL   H15449476   4.131   0.015   2.411  0.6273  0.1768  0.6179
  272MOL   C15549477   4.030   7.801   2.612 -0.1505  0.8937  0.3675
  272MOL   C15649478   3.986   7.648   2.630 -0.1738 -0.5007  0.1178
  272MOL   C15749479   4.031   7.568   2.505  0.4536 -0.8924 -0.5630
  272MOL   O15849480   3.974   7.580   2.394  0.7472 -0.8189 -0.7688
  272MOL   O15949481   4.132   7.483   2.529 -0.3122 -0.2070  0.0380
  272MOL   H16049482   3.994   7.848   2.520  0.0645  2.2912  0.9894
  272MOL   H16149483   3.989   0.007   2.694 -0.1407  0.1592  0.9068
  272MOL   H16249484   4.042   7.615   2.718 -1.1535 -2.3195  0.0644
  272MOL   H16349485   4.152   7.460   2.619  0.6726  0.2722 -0.0523
  272MOL   C16449486   3.836   7.620   2.665 -0.4880 -1.2601  0.4447
  272MOL   C16549487   3.800   7.493   2.739  0.2646  0.4661  0.6267
  272MOL   C16649488   3.805   7.366   2.652 -0.3238  0.1533  0.1965
  272MOL   O16749489   3.708   7.338   2.583  0.0663  0.2279  0.0665
  272MOL   O16849490   3.916   7.287   2.672 -0.4367  0.9594  0.0313
  272MOL   H16949491   3.770   7.628   2.579  2.7741 -1.2222 -2.1489
  272MOL   H17049492   3.809   7.695   2.739 -0.5408 -0.2635 -0.5660
  272MOL   H17149493   3.876   7.472   2.814  1.2800  0.2060 -0.4585
  272MOL   H17249494   3.916   7.218   2.608 -0.3301 -0.5324  1.6110
  272MOL   C17349495   3.660   7.502   2.801  0.0309 -0.3613  0.2903
  272MOL   C17449496   3.607   7.385   2.886  0.0419  0.1227  0.0383
  272MOL   C17549497   3.647   7.395   3.032 -0.7510 -0.3143  0.5971
  272MOL   O17649498   3.600   7.315   3.112  0.3138 -0.4992 -0.4602
  272MOL   O17749499   3.742   7.485   3.060  0.2372 -0.1539  0.2717
  272MOL   H17849500   3.593   7.514   2.716 -1.3385 -0.6519  1.3113
  272MOL   H17949501   3.647   7.591   2.863 -2.2814  1.7307 -3.0616
  272MOL   H18049502   3.499   7.384   2.870 -0.6007 -0.2884  4.0172
  272MOL   H18149503   3.756   7.476   3.153 -1.8796  0.0850  0.6516
  272MOL   H18249504   3.641   7.293   2.840 -1.2574  0.4015 -1.5731
  273MOL     C149505   1.683   4.884   2.470  0.3469  0.8077 -0.4861
  273MOL     C249506   1.611   4.798   2.360 -0.4450 -0.2214  0.6076
  273MOL     C349507   1.664   4.654   2.346 -0.6621  0.0688  0.1589
  273MOL     O449508   1.697   4.604   2.239  0.1207 -0.5425 -0.2589
  273MOL     O549509   1.667   4.588   2.463  0.0021  0.7583  0.5300
  273MOL     H649510   1.715   4.831   2.559 -0.5075  0.0758 -0.6084
  273MOL     H749511   1.765   4.950   2.441  0.7961  0.0021 -1.0489
  273MOL     H849512   1.510   4.785   2.397  0.4918 -1.2310  2.8978
  273MOL     H949513   1.702   4.502   2.446 -0.1143  1.1010 -1.6045
  273MOL    H1049514   1.610   4.945   2.523 -0.1398 -0.1200 -0.0814
  273MOL    C1149515   1.607   4.875   2.223 -0.7551 -0.6529  0.5007
  273MOL    C1249516   1.544   5.021   2.228  0.1828  0.3774  0.5235
  273MOL    C1349517   1.406   5.016   2.158 -0.3771  0.4708  0.9862
  273MOL    O1449518   1.386   5.073   2.048  0.4006  0.2647  0.8826
  273MOL    O1549519   1.306   4.958   2.234  0.3728  0.0869  0.4949
  273MOL    H1649520   1.549   4.816   2.153 -1.2681  1.0725 -0.5663
  273MOL    H1749521   1.706   4.866   2.179 -1.2687 -0.1050 -0.7896
  273MOL    H1849522   1.535   5.047   2.334  2.2981  1.1873  0.5200
  273MOL    H1949523   1.225   4.947   2.185  0.6632 -4.2350  0.7824
  273MOL    C2049524   1.644   5.124   2.164 -0.1987  0.2242 -0.4169
  273MOL    C2149525   1.650   5.267   2.220 -0.1040  0.3387 -0.3642
  273MOL    C2249526   1.685   5.278   2.366  0.2103  0.7373  0.1480
  273MOL    O2349527   1.605   5.259   2.456  0.3959 -0.4212 -0.0115
  273MOL    O2449528   1.808   5.325   2.379  0.2189 -0.1003 -0.1485
  273MOL    H2549529   1.643   5.130   2.055  1.1394  1.4630 -0.3764
  273MOL    H2649530   1.743   5.091   2.195 -0.4033  2.0054  2.3661
  273MOL    H2749531   1.739   5.313   2.178 -0.7779  1.4765 -0.5821
  273MOL    H2849532   1.815   5.353   2.469  0.3359  0.6087 -0.3691
  273MOL    C2949533   1.522   5.348   2.171  0.3611  0.4562 -0.1606
  273MOL    C3049534   1.518   5.502   2.210 -0.1103  0.0075 -0.1272
  273MOL    C3149535   1.466   5.512   2.351  0.3194 -0.6997 -0.3807
  273MOL    O3249536   1.538   5.542   2.446  0.8059 -0.7714  0.4271
  273MOL    O3349537   1.330   5.472   2.357 -0.0784 -0.6834  0.3541
  273MOL    H3449538   1.425   5.302   2.190 -1.0701  2.8333 -1.4501
  273MOL    H3549539   1.532   5.343   2.062  0.2013  0.6895 -0.1858
  273MOL    H3649540   1.623   5.533   2.214 -0.1650  0.0345  1.4939
  273MOL    H3749541   1.292   5.475   2.443 -0.1125  0.3879  0.3118
  273MOL    C3849542   1.433   5.599   2.121 -0.3781 -0.5964 -0.2612
  273MOL    C3949543   1.437   5.750   2.155  0.5821  0.4688  0.6124
  273MOL    C4049544   1.327   5.833   2.093  0.6924  0.1167  0.0237
  273MOL    O4149545   1.274   5.936   2.143  0.1206  0.1095 -0.3187
  273MOL    O4249546   1.285   5.779   1.971 -0.0882 -0.1407 -0.4860
  273MOL    H4349547   1.331   5.559   2.125 -1.1957  1.4755  0.3027
  273MOL    H4449548   1.470   5.588   2.020  0.3894 -0.7274  0.0344
  273MOL    H4549549   1.433   5.757   2.263  0.6827 -0.6452  0.6987
  273MOL    H4649550   1.208   5.814   1.929 -0.8280 -2.3662 -1.0582
  273MOL    C4749551   1.579   5.811   2.134  0.2223 -0.2409  0.2193
  273MOL    C4849552   1.597   5.959   2.155  0.1739  0.2333  0.1682
  273MOL    C4949553   1.748   5.997   2.120 -0.5781  1.3960  0.3494
  273MOL    O5049554   1.771   6.055   2.016  0.4053 -0.2016 -0.5059
  273MOL    O5149555   1.845   5.964   2.207  0.0106  0.1555 -0.3348
  273MOL    H5249556   1.620   5.775   2.040 -0.2518 -3.1274  1.0375
  273MOL    H5349557   1.644   5.761   2.206  0.7928 -0.8477 -0.7083
  273MOL    H5449558   1.533   6.009   2.082 -0.3592  0.4064  0.7473
  273MOL    H5549559   1.813   5.909   2.276 -1.2468  0.4596 -0.6650
  273MOL    C5649560   1.562   6.009   2.300  0.1006 -0.7124 -0.0867
  273MOL    C5749561   1.594   6.155   2.337 -0.9329  0.3603  0.4647
  273MOL    C5849562   1.640   6.178   2.481 -0.5538 -0.5492  0.2715
  273MOL    O5949563   1.655   6.089   2.573 -0.1881 -0.1465 -0.0545
  273MOL    O6049564   1.669   6.303   2.508 -0.0328  0.4867  0.2115
  273MOL    H6149565   1.595   5.940   2.376 -0.5242 -0.6817  0.2195
  273MOL    H6249566   1.453   6.005   2.311  0.1112 -2.3074 -0.5163
  273MOL    H6349567   1.676   6.195   2.279  0.1062  0.3465  1.9101
  273MOL    H6449568   1.691   6.357   2.434  0.6077  0.6968  0.5426
  273MOL    C6549569   1.472   6.251   2.304 -0.0420 -0.6724  0.7260
  273MOL    C6649570   1.427   6.277   2.161  0.0410  0.0934 -0.3032
  273MOL    C6749571   1.530   6.336   2.071  0.5538  0.0774  0.7893
  273MOL    O6849572   1.587   6.437   2.102  0.3703 -0.5494  0.8455
  273MOL    O6949573   1.546   6.271   1.956 -0.0128 -0.5766 -0.4694
  273MOL    H7049574   1.489   6.344   2.357  3.5822 -1.2231  0.6107
  273MOL    H7149575   1.382   6.211   2.352 -1.3580 -1.2199 -2.0685
  273MOL    H7249576   1.401   6.176   2.128  2.0179 -0.8917  1.0453
  273MOL    H7349577   1.610   6.311   1.899 -1.1617 -0.0932 -1.4445
  273MOL    C7449578   1.290   6.352   2.158 -0.8092  0.3917  0.0350
  273MOL    C7549579   1.221   6.359   2.025 -0.1711  0.7293 -0.1683
  273MOL    C7649580   1.127   6.478   2.020 -0.5616  0.1920 -0.9234
  273MOL    O7749581   1.131   6.563   1.928 -0.4758  0.1383  0.4311
  273MOL    O7849582   1.047   6.488   2.126  0.1260  0.1641  0.4762
  273MOL    H7949583   1.314   6.445   2.209  3.0851 -0.7574  0.4419
  273MOL    H8049584   1.218   6.307   2.227  0.7405  0.1558  1.5267
  273MOL    H8149585   1.300   6.387   1.954 -0.5028 -0.0897 -0.8739
  273MOL    H8249586   0.997   6.569   2.133 -2.9292 -1.5974  0.0856
  273MOL    C8349587   1.164   6.230   1.974  0.0523  0.3378  0.0476
  273MOL    C8449588   1.151   6.205   1.823  1.3345 -0.1280  0.1094
  273MOL    C8549589   1.071   6.076   1.790 -0.4365 -0.7042  0.1405
  273MOL    O8649590   1.089   5.966   1.839 -0.3181 -0.0980  0.2907
  273MOL    O8749591   0.985   6.098   1.691 -0.0907  0.0009 -0.1879
  273MOL    H8849592   1.067   6.209   2.021  1.1128  2.6138  3.4225
  273MOL    H8949593   1.216   6.148   2.023 -0.1597  1.3767  2.0695
  273MOL    H9049594   1.089   6.285   1.782 -0.0764 -0.9737  0.5625
  273MOL    H9149595   0.933   6.022   1.670 -0.2541  0.2903 -0.8397
  273MOL    C9249596   1.291   6.209   1.746 -0.3451 -0.4494 -0.1874
  273MOL    C9349597   1.282   6.186   1.595 -0.2667  0.5832  0.4999
  273MOL    C9449598   1.424   6.164   1.538 -0.2763 -0.7066  0.1310
  273MOL    O9549599   1.528   6.173   1.601 -0.3732 -0.2492  0.1953
  273MOL    O9649600   1.412   6.125   1.410  0.3026  0.3746  0.4439
  273MOL    H9749601   1.335   6.117   1.785  0.2156  0.1816  0.6843
  273MOL    H9849602   1.351   6.291   1.784 -1.2118 -1.1315  2.8319
  273MOL    H9949603   1.226   6.094   1.578  1.4132 -0.3291 -0.2469
  273MOL   H10049604   1.498   6.108   1.374 -0.1473  3.2610 -2.1883
  273MOL   C10149605   1.208   6.293   1.518  0.0699  0.1103 -0.6063
  273MOL   C10249606   1.275   6.430   1.485 -0.6951 -0.0434 -0.2430
  273MOL   C10349607   1.283   6.518   1.610 -0.5330  0.4351 -0.0955
  273MOL   O10449608   1.390   6.539   1.666 -0.0425  0.1898 -0.4947
  273MOL   O10549609   1.170   6.587   1.645 -0.1865  0.3381  0.1044
  273MOL   H10649610   1.113   6.309   1.568 -0.0174 -1.3220 -0.3012
  273MOL   H10749611   1.187   6.242   1.424 -0.8406 -0.2624 -0.2047
  273MOL   H10849612   1.379   6.414   1.458 -0.7284 -1.1397  0.2773
  273MOL   H10949613   1.193   6.641   1.719 -0.7141  1.9820 -0.9151
  273MOL   C11049614   1.195   6.502   1.374 -0.3114  0.0991 -0.0923
  273MOL   C11149615   1.274   6.517   1.245 -0.4074 -0.5318 -0.2051
  273MOL   C11249616   1.271   6.381   1.171  1.0537  0.0454  0.8710
  273MOL   O11349617   1.375   6.322   1.151  0.8185  0.0076  0.1737
  273MOL   O11449618   1.147   6.342   1.140 -0.4485  0.3931 -0.3245
  273MOL   H11549619   1.178   6.607   1.398 -1.8558 -0.3426  0.7627
  273MOL   H11649620   1.096   6.459   1.365  0.5098 -1.7236 -0.7660
  273MOL   H11749621   1.216   6.583   1.181  0.2898 -0.3744 -0.6915
  273MOL   H11849622   1.160   6.256   1.103 -0.4816  0.5391 -0.6814
  273MOL   C11949623   1.423   6.573   1.265 -0.4561  0.4314 -0.4444
  273MOL   C12049624   1.464   6.665   1.153  0.7941  0.3346  0.7666
  273MOL   C12149625   1.576   6.603   1.064 -0.4529 -0.4108 -0.5488
  273MOL   O12249626   1.654   6.672   1.004 -0.2710 -0.0628 -0.8894
  273MOL   O12349627   1.573   6.462   1.043 -0.1452 -0.1065 -0.2517
  273MOL   H12449628   1.493   6.490   1.269 -1.9402 -0.8661 -0.7047
  273MOL   H12549629   1.445   6.619   1.361 -0.6189  2.0100 -1.1450
  273MOL   H12649630   1.386   6.674   1.077 -0.0941  1.4415  1.7902
  273MOL   H12749631   1.522   6.423   1.112 -0.0908  0.9015  0.3766
  273MOL   C12849632   1.499   6.799   1.207  0.3902  0.4419 -0.2649
  273MOL   C12949633   1.389   6.908   1.178 -0.1970  0.2158 -0.2068
  273MOL   C13049634   1.253   6.856   1.228  0.3569 -0.6323 -0.2784
  273MOL   O13149635   1.167   6.812   1.146 -0.1193  0.0590 -0.0005
  273MOL   O13249636   1.231   6.885   1.358 -0.0098 -0.9052  0.0281
  273MOL   H13349637   1.584   6.843   1.155 -0.4334  2.3126 -0.0726
  273MOL   H13449638   1.527   6.793   1.312 -0.1806 -1.4458 -0.2130
  273MOL   H13549639   1.412   6.993   1.243  0.5030  0.1497 -0.3716
  273MOL   H13649640   1.150   6.848   1.388  0.6724 -2.1017  0.4635
  273MOL   C13749641   1.384   6.972   1.028 -0.3339  0.0716 -0.1824
  273MOL   C13849642   1.337   7.112   1.011  0.6911  0.7359  0.0501
  273MOL   C13949643   1.433   7.209   1.079 -0.6282 -0.5737 -1.0761
  273MOL   O14049644   1.442   7.220   1.203  0.2328  0.2199  0.3093
  273MOL   O14149645   1.520   7.265   0.995 -0.0479 -0.2109  0.5867
  273MOL   H14249646   1.323   6.899   0.975  0.5475  0.0490 -1.1826
  273MOL   H14349647   1.484   6.976   0.984 -0.3064  0.2929 -0.1003
  273MOL   H14449648   1.350   7.138   0.906  0.8556 -2.5958 -0.7873
  273MOL   H14549649   1.591   7.317   1.029 -1.0323  2.7583 -1.7065
  273MOL   C14649650   1.185   7.137   1.038 -0.7231 -0.1209  0.3717
  273MOL   C14749651   1.103   7.203   0.930 -1.0762 -0.3955  0.0444
  273MOL   C14849652   1.133   7.353   0.923  0.3081  0.1721 -0.0771
  273MOL   O14949653   1.204   7.414   1.003  0.4577 -0.3291  0.2327
  273MOL   O15049654   1.079   7.409   0.810 -0.4127  0.0761  0.1625
  273MOL   H15149655   1.163   7.190   1.131  2.8616 -0.1379  1.2916
  273MOL   H15249656   1.144   7.037   1.049 -2.8022  0.7449  0.8438
  273MOL   H15349657   1.126   7.168   0.830  1.5121 -0.5585  0.6518
  273MOL   H15449658   1.103   7.501   0.813 -2.0329  0.4907  0.9456
  273MOL   C15549659   0.956   7.172   0.938 -0.1021 -0.5750 -0.5763
  273MOL   C15649660   0.886   7.174   1.083  0.5120  0.3360  0.3170
  273MOL   C15749661   0.757   7.093   1.082 -0.2316  0.3537 -0.0596
  273MOL   O15849662   0.754   6.972   1.086  0.0367 -0.0042 -0.5429
  273MOL   O15949663   0.645   7.174   1.043  0.4609 -0.7640 -0.6705
  273MOL   H16049664   0.945   7.065   0.918  1.4661 -1.1684  1.5994
  273MOL   H16149665   0.901   7.237   0.870  2.7763  0.3843 -2.0497
  273MOL   H16249666   0.959   7.111   1.133  0.5480  0.1733  0.0633
  273MOL   H16349667   0.571   7.121   1.019  1.0888 -1.2739 -1.4754
  273MOL   C16449668   0.868   7.318   1.154 -0.3906  0.1757 -0.1192
  273MOL   C16549669   0.920   7.312   1.301 -0.5462  0.8397  0.4479
  273MOL   C16649670   0.803   7.272   1.398 -0.5551 -0.0503  0.2140
  273MOL   O16749671   0.777   7.336   1.502  0.1100 -0.1966 -0.5441
  273MOL   O16849672   0.728   7.166   1.361  0.0707  0.2747 -0.3682
  273MOL   H16949673   0.765   7.353   1.148  0.1519  2.0431  1.1525
  273MOL   H17049674   0.910   7.401   1.097  0.2944  0.6427  1.0586
  273MOL   H17149675   0.999   7.238   1.308 -1.7510 -0.4970  0.1354
  273MOL   H17249676   0.643   7.150   1.398  1.0537 -1.7562  1.0956
  273MOL   C17349677   0.988   7.451   1.341  0.4071  0.1661 -0.0970
  273MOL   C17449678   1.092   7.436   1.448 -0.1728  0.1474  0.2457
  273MOL   C17549679   1.228   7.396   1.387 -0.1788  0.3482  0.3392
  273MOL   O17649680   1.287   7.457   1.299  0.3431  0.2391 -0.1325
  273MOL   O17749681   1.270   7.277   1.441  0.0736  0.4965 -0.4984
  273MOL   H17849682   0.911   7.520   1.375 -0.1267 -0.9343  0.9733
  273MOL   H17949683   1.031   7.500   1.254  0.8098 -0.8902 -0.5038
  273MOL   H18049684   1.101   7.535   1.492 -0.4406  0.0670  0.4838
  273MOL   H18149685   1.361   7.258   1.423 -0.5319 -0.3084 -2.9055
  273MOL   H18249686   1.059   7.373   1.530 -0.6887  2.1825  1.6356
  274MOL     C149687   4.190   2.422   4.579  0.0968  0.4103 -0.0641
  274MOL     C249688   4.095   2.441   4.698 -0.8808 -0.4801  0.3916
  274MOL     C349689   3.945   2.436   4.649 -0.2005 -0.2757 -0.3728
  274MOL     O449690   3.867   2.351   4.688 -0.1700 -0.6031  0.4960
  274MOL     O549691   3.926   2.535   4.557  0.2571  0.1402 -0.1131
  274MOL     H649692   4.192   2.511   4.515  1.7149 -0.3330 -1.0819
  274MOL     H749693   4.288   2.391   4.614 -0.4789  0.4889  1.6751
  274MOL     H849694   4.108   2.363   4.773 -1.3077 -1.4116 -0.4946
  274MOL     H949695   4.010   2.573   4.538  0.2789 -0.5806 -1.5095
  274MOL    H1049696   4.159   2.345   4.508  0.5456 -0.4713  0.6938
  274MOL    C1149697   4.126   2.578   4.768 -0.2909 -0.0251 -0.2209
  274MOL    C1249698   4.225   2.573   4.890 -0.9195  0.4889 -0.0216
  274MOL    C1349699   4.203   2.682   5.001  0.6583 -0.7421  0.2044
  274MOL    O1449700   4.144   2.788   4.977  0.5922 -0.4905 -0.6791
  274MOL    O1549701   4.263   2.651   5.116 -0.1876  0.6540  0.0844
  274MOL    H1649702   4.038   2.628   4.808  0.0871 -0.4616  1.2036
  274MOL    H1749703   4.166   2.657   4.704 -0.1606  1.4461  1.6224
  274MOL    H1849704   4.189   2.485   4.943  0.0459  1.3664  2.1458
  274MOL    H1949705   4.247   2.703   5.193  0.7398  1.4253 -0.2411
  274MOL    C2049706   4.365   2.558   4.837 -0.0330  0.3057  0.1863
  274MOL    C2149707   4.421   2.687   4.768  0.4539 -0.0287  0.4055
  274MOL    C2249708   4.515   2.636   4.656 -0.0160  0.3544  0.0330
  274MOL    O2349709   4.628   2.588   4.680  0.2802  0.0760  0.1263
  274MOL    O2449710   4.462   2.655   4.535 -0.6004 -0.1623 -0.0533
  274MOL    H2549711   4.380   2.480   4.763 -0.1288  1.7213 -1.3757
  274MOL    H2649712   4.434   2.537   4.918 -0.2849  1.4627  0.7098
  274MOL    H2749713   4.341   2.729   4.707  0.9416  2.7455  1.6323
  274MOL    H2849714   4.535   2.625   4.483  0.4021 -0.6483  1.6020
  274MOL    C2949715   4.486   2.790   4.860  0.5720 -0.2075  0.0239
  274MOL    C3049716   4.531   2.928   4.806  0.2736 -0.1908  0.4672
  274MOL    C3149717   4.623   3.004   4.902 -0.8662  0.4280  0.0976
  274MOL    O3249718   4.620   3.124   4.910  0.5094 -0.0673  0.3674
  274MOL    O3349719   4.716   2.928   4.970 -0.6866  0.2370 -0.5272
  274MOL    H3449720   4.576   2.743   4.900 -0.8930  0.1077  3.9034
  274MOL    H3549721   4.425   2.804   4.949 -0.8982 -2.3339 -0.5863
  274MOL    H3649722   4.600   2.912   4.723 -0.6759 -2.4357  0.0800
  274MOL    H3749723   4.768   2.982   5.028 -0.0509 -2.0698  1.1017
  274MOL    C3849724   4.414   3.015   4.748 -0.0827  0.4833 -0.0296
  274MOL    C3949725   4.412   3.052   4.602  0.1869  0.5499  0.1857
  274MOL    C4049726   4.542   3.124   4.555  0.3031 -0.7368 -0.7355
  274MOL    O4149727   4.602   3.086   4.456  0.1463 -0.2759 -0.1263
  274MOL    O4249728   4.575   3.227   4.629  0.1485 -0.4200 -0.1579
  274MOL    H4349729   4.396   3.107   4.804 -1.5954  0.0766  0.1731
  274MOL    H4449730   4.322   2.960   4.769 -0.7354  1.4303 -0.3859
  274MOL    H4549731   4.401   2.963   4.542 -1.1824  1.1628 -0.4977
  274MOL    H4649732   4.660   3.259   4.602  0.2862  0.1859  0.9614
  274MOL    C4749733   4.285   3.146   4.574 -0.6121 -0.2647  0.2673
  274MOL    C4849734   4.219   3.127   4.430 -0.1368 -0.3888 -0.4096
  274MOL    C4949735   4.263   3.236   4.332  0.2801 -0.3083 -0.4287
  274MOL    O5049736   4.372   3.289   4.344 -0.4513 -0.8052  0.7061
  274MOL    O5149737   4.175   3.264   4.234 -0.0227 -0.4794  0.2688
  274MOL    H5249738   4.323   3.248   4.588 -0.3086 -0.2251 -0.8587
  274MOL    H5349739   4.231   3.126   4.667  1.9401  0.3691  1.9640
  274MOL    H5449740   4.251   3.036   4.378 -1.5126 -0.1322 -1.7304
  274MOL    H5549741   4.222   3.314   4.169  2.3240 -2.2803  0.5295
  274MOL    C5649742   4.063   3.117   4.444  0.2023  0.1077  0.1033
  274MOL    C5749743   4.019   2.989   4.509  0.2967  0.3172  0.8185
  274MOL    C5849744   4.066   2.866   4.434  0.2531  0.1224  0.4777
  274MOL    O5949745   4.113   2.768   4.486 -0.3576  0.1696 -0.5738
  274MOL    O6049746   4.053   2.875   4.297 -0.4158 -0.2392 -0.5512
  274MOL    H6149747   4.013   3.132   4.349  0.7110 -1.3959 -0.4075
  274MOL    H6249748   4.026   3.196   4.510 -0.7809  0.5967 -1.0244
  274MOL    H6349749   4.081   2.979   4.598  0.6275 -2.7841  0.3005
  274MOL    H6449750   4.106   2.806   4.260  2.9083  1.1969  1.2403
  274MOL    C6549751   3.875   2.967   4.553  0.3192 -0.7024 -0.8938
  274MOL    C6649752   3.835   3.047   4.682 -0.2467  0.0756  0.4618
  274MOL    C6749753   3.935   3.030   4.797  0.2170 -0.5633 -0.3715
  274MOL    O6849754   4.000   3.124   4.836 -0.1114 -0.1512 -0.1013
  274MOL    O6949755   3.950   2.900   4.836  0.3856 -0.3137  0.1568
  274MOL    H7049756   3.858   2.862   4.578  1.1301 -0.2661  1.6194
  274MOL    H7149757   3.812   2.991   4.467  1.0346  0.0019 -1.2224
  274MOL    H7249758   3.823   3.145   4.637 -1.5771  0.8777  2.5523
  274MOL    H7349759   4.018   2.874   4.896 -1.0380 -0.7055  1.6336
  274MOL    C7449760   3.698   3.007   4.736  0.4389 -0.3201 -0.1331
  274MOL    C7549761   3.646   3.101   4.848  0.0848 -0.0907  0.1473
  274MOL    C7649762   3.581   3.014   4.961  0.1338  0.1622 -0.6094
  274MOL    O7749763   3.636   3.002   5.068 -0.1240 -0.1920  0.3345
  274MOL    O7849764   3.468   2.943   4.921  0.2889  0.1062  0.0407
  274MOL    H7949765   3.705   2.908   4.782 -2.1796 -0.0681  0.9172
  274MOL    H8049766   3.633   2.996   4.649  1.9933 -4.3019 -0.8954
  274MOL    H8149767   3.726   3.162   4.889  0.1456  1.4283 -2.1741
  274MOL    H8249768   3.429   2.890   4.988 -0.9879 -1.0966 -1.5997
  274MOL    C8349769   3.544   3.193   4.788  0.1495  0.5177 -0.3623
  274MOL    C8449770   3.488   3.296   4.889  0.3021 -0.7485  0.1786
  274MOL    C8549771   3.339   3.312   4.884  0.8388  0.8564  0.8764
  274MOL    O8649772   3.274   3.272   4.786  0.3695 -0.0646 -0.4804
  274MOL    O8749773   3.286   3.368   4.997  0.0921 -0.2716  0.2176
  274MOL    H8849774   3.464   3.129   4.749  0.8928 -1.0184  0.5615
  274MOL    H8949775   3.599   3.244   4.710  2.2930  0.6464  1.1889
  274MOL    H9049776   3.512   3.261   4.989  2.1001 -1.1793 -0.3749
  274MOL    H9149777   3.193   3.377   4.986  0.3349  2.7738  0.3818
  274MOL    C9249778   3.555   3.437   4.872 -0.3900 -0.2870 -0.0870
  274MOL    C9349779   3.525   3.511   4.742 -0.1976  0.2475 -0.3628
  274MOL    C9449780   3.663   3.550   4.680  0.4923  0.4347 -0.4539
  274MOL    O9549781   3.701   3.669   4.664 -0.2804 -0.0340  0.1776
  274MOL    O9649782   3.745   3.443   4.658  0.0655 -0.3009  0.1553
  274MOL    H9749783   3.659   3.409   4.880 -0.4194 -0.2514  0.4521
  274MOL    H9849784   3.536   3.499   4.960 -0.6152 -2.6651  1.5943
  274MOL    H9949785   3.496   3.431   4.675 -0.8070 -0.5856  0.8712
  274MOL   H10049786   3.828   3.484   4.642 -0.2938 -0.1203 -1.2595
  274MOL   C10149787   3.428   3.632   4.742 -0.1859 -0.1546 -0.0634
  274MOL   C10249788   3.354   3.659   4.609  0.0625 -0.2433 -0.0956
  274MOL   C10349789   3.319   3.810   4.604 -0.0884  0.3752 -0.0062
  274MOL   O10449790   3.305   3.885   4.702  0.4606 -0.2850 -0.3546
  274MOL   O10549791   3.302   3.851   4.474 -0.2957  0.6382  0.1791
  274MOL   H10649792   3.483   3.718   4.780  0.1739 -1.2029  1.8701
  274MOL   H10749793   3.354   3.606   4.818  1.6565 -3.9389  0.5222
  274MOL   H10849794   3.434   3.640   4.538 -2.0018 -2.0999 -2.0130
  274MOL   H10949795   3.295   3.945   4.480 -1.7886  0.5512 -0.1190
  274MOL   C11049796   3.236   3.564   4.578  0.3870 -0.1490  0.3604
  274MOL   C11149797   3.232   3.481   4.442  0.0369 -0.3926  0.1419
  274MOL   C11249798   3.351   3.384   4.434 -0.4520 -0.3818  0.3154
  274MOL   O11349799   3.466   3.426   4.447 -0.0613 -0.3235  0.3366
  274MOL   O11449800   3.313   3.251   4.414 -0.2615  0.2859  0.8229
  274MOL   H11549801   3.144   3.623   4.580 -0.7347 -1.9077  1.0900
  274MOL   H11649802   3.220   3.494   4.660 -0.0797 -2.4811 -1.6726
  274MOL   H11749803   3.139   3.425   4.449 -1.8616  2.3792 -1.6022
  274MOL   H11849804   3.396   3.209   4.395 -0.7529 -0.6668  0.7906
  274MOL   C11949805   3.215   3.577   4.319  0.7036  0.1886  0.0252
  274MOL   C12049806   3.064   3.614   4.289 -0.0860  0.2255 -0.5768
  274MOL   C12149807   2.977   3.489   4.259  0.2899 -0.5403  0.2578
  274MOL   O12249808   2.883   3.453   4.334 -0.0698 -0.4037 -0.4563
  274MOL   O12349809   3.033   3.407   4.160 -0.0525  0.0151  0.2563
  274MOL   H12449810   3.265   3.523   4.239  0.2472  3.2632 -2.4157
  274MOL   H12549811   3.277   3.665   4.335  0.3581  0.2955  0.8240
  274MOL   H12649812   3.023   3.661   4.378 -1.6914  1.2047 -1.7988
  274MOL   H12749813   2.965   3.341   4.154 -0.1140  0.2062 -1.3781
  274MOL   C12849814   3.062   3.713   4.165 -0.4038  0.6549 -0.2851
  274MOL   C12949815   3.112   3.857   4.203 -0.1168 -0.2249  0.6027
  274MOL   C13049816   3.015   3.929   4.298  0.3050 -0.5026 -0.4324
  274MOL   O13149817   2.906   3.885   4.333  0.0215  0.4564  0.7565
  274MOL   O13249818   3.059   4.052   4.339 -0.0999 -0.3983  0.5581
  274MOL   H13349819   2.966   3.722   4.114  0.5429 -0.8888 -2.4485
  274MOL   H13449820   3.132   3.678   4.089 -0.8609  0.3349 -0.5650
  274MOL   H13549821   3.213   3.858   4.243  0.1123 -2.7146  0.1928
  274MOL   H13649822   2.987   4.096   4.382 -0.8278 -0.6284 -0.3936
  274MOL   C13749823   3.117   3.945   4.073  0.0112  0.0468  0.5762
  274MOL   C13849824   3.255   3.937   3.988  0.5133  0.0477 -0.0856
  274MOL   C13949825   3.345   4.052   4.036 -0.0877 -0.0606  0.6860
  274MOL   O14049826   3.370   4.157   3.976 -0.3068 -0.0300  0.2686
  274MOL   O14149827   3.393   4.021   4.161 -0.3468  0.1522  0.4864
  274MOL   H14249828   3.087   4.049   4.085 -2.8765 -0.8459  1.5989
  274MOL   H14349829   3.051   3.897   4.001  0.6864  0.4942 -0.3539
  274MOL   H14449830   3.299   3.843   4.021 -2.5344 -1.2293  0.5789
  274MOL   H14549831   3.451   4.088   4.191 -0.2379  1.5688 -2.6656
  274MOL   C14649832   3.236   3.937   3.833 -0.2765  0.1206 -0.3299
  274MOL   C14749833   3.238   3.800   3.757 -0.2952 -0.3335 -0.1270
  274MOL   C14849834   3.387   3.775   3.727  0.4442  0.0449 -0.7401
  274MOL   O14949835   3.456   3.837   3.643 -0.0774  0.0097 -0.0954
  274MOL   O15049836   3.444   3.672   3.799  0.5164 -0.3623 -0.3584
  274MOL   H15149837   3.313   4.004   3.795  1.5203 -0.0911  2.7252
  274MOL   H15249838   3.153   4.003   3.810 -0.3566  1.7855  4.1529
  274MOL   H15349839   3.180   3.730   3.817 -0.3711  0.2576  0.4972
  274MOL   H15449840   3.528   3.638   3.773  1.7192  1.6791  0.7463
  274MOL   C15549841   3.156   3.817   3.623  0.4382 -0.3805 -0.1856
  274MOL   C15649842   3.102   3.693   3.564  0.8942 -0.4948 -0.0261
  274MOL   C15749843   3.204   3.596   3.507  0.4978  0.5864 -0.3067
  274MOL   O15849844   3.199   3.478   3.536  0.0457  0.1981  0.4444
  274MOL   O15949845   3.287   3.647   3.411 -0.3686  0.2435 -0.3966
  274MOL   H16049846   3.219   3.861   3.546  1.3066  1.6968  1.6425
  274MOL   H16149847   3.077   3.890   3.644 -1.4841 -2.3489 -0.4514
  274MOL   H16249848   3.060   3.644   3.652 -0.6946 -0.2486 -0.6353
  274MOL   H16349849   3.346   3.584   3.374 -0.7098 -0.5389  0.3580
  274MOL   C16449850   2.992   3.724   3.453 -0.3355 -0.0294  0.0229
  274MOL   C16549851   2.915   3.602   3.391 -0.5706  0.4831  0.0830
  274MOL   C16649852   2.849   3.504   3.491 -0.4685  0.1019 -0.2052
  274MOL   O16749853   2.891   3.484   3.606 -0.1017  0.7015  0.5801
  274MOL   O16849854   2.732   3.462   3.438 -0.0634 -0.0386  0.1659
  274MOL   H16949855   3.030   3.781   3.368  0.1086  2.4304  1.7950
  274MOL   H17049856   2.917   3.792   3.493 -1.2022 -1.4284  0.8359
  274MOL   H17149857   2.827   3.648   3.346 -1.4677  2.1790  3.3495
  274MOL   H17249858   2.680   3.413   3.500 -2.0890 -0.9881 -2.2100
  274MOL   C17349859   2.977   3.520   3.272 -0.2601  0.0213 -0.4148
  274MOL   C17449860   3.012   3.610   3.144 -0.5588  0.6803  0.3728
  274MOL   C17549861   3.059   3.527   3.027 -0.1727 -0.1278 -0.4429
  274MOL   O17649862   2.992   3.501   2.930  0.4873 -0.2225  0.5836
  274MOL   O17749863   3.177   3.476   3.058 -1.1374 -0.5014  0.0987
  274MOL   H17849864   2.915   3.441   3.228 -2.9691  2.4517 -1.0892
  274MOL   H17949865   3.072   3.469   3.291  0.2590  0.9591 -0.4926
  274MOL   H18049866   2.923   3.662   3.110  0.8152  2.9045  0.0576
  274MOL   H18149867   3.207   3.497   3.146  0.6337 -3.1970  0.2134
  274MOL   H18249868   3.092   3.680   3.169 -1.3111  1.9843 -0.8220
   7.85285   7.85285   7.85285
