;
; Gromacs include topology (itp) file.
; For Molecular Group XYZ
; Force field scheme: opls2005
; Produced from DL_FIELD v4.11
;


[ moleculetype ]
; name    nrexcl
XYZ    3

[ atoms ]
; nr   type   resnr   residu    atom    cgnr    charge    mass
    1       OAL    1  MOL      O1     1  -0.6830000   15.9994
    2        CT    1  MOL      C2     2   0.1450000   12.0115
    3        CT    1  MOL      C3     3  -0.1200000   12.0115
    4        CT    1  MOL      C4     4  -0.1200000   12.0115
    5        CT    1  MOL      C5     5  -0.1200000   12.0115
    6        CT    1  MOL      C6     6  -0.1200000   12.0115
    7        CT    1  MOL      C7     7  -0.1200000   12.0115
    8        CT    1  MOL      C8     8  -0.1200000   12.0115
    9        CT    1  MOL      C9     9  -0.1200000   12.0115
   10        CT    1  MOL     C10    10  -0.1200000   12.0115
   11        CT    1  MOL     C11    11   0.1900000   12.0115
   12       OES    1  MOL     O12    12  -0.3300000   15.9994
   13       CO4    1  MOL     C13    13   0.5100000   12.0115
   14         O    1  MOL     O14    14  -0.4300000   15.9994
   15        CT    1  MOL     C15    15  -0.1200000   12.0115
   16        CT    1  MOL     C16    16  -0.1200000   12.0115
   17        CT    1  MOL     C17    17  -0.1200000   12.0115
   18        CT    1  MOL     C18    18  -0.1200000   12.0115
   19        CT    1  MOL     C19    19  -0.1200000   12.0115
   20        CT    1  MOL     C20    20  -0.1200000   12.0115
   21        CT    1  MOL     C21    21  -0.1200000   12.0115
   22        CT    1  MOL     C22    22  -0.1200000   12.0115
   23       CO4    1  MOL     C23    23   0.5100000   12.0115
   24         O    1  MOL     O24    24  -0.4300000   15.9994
   25        HC    1  MOL     H25    25   0.0600000    1.0080
   26        HC    1  MOL     H26    26   0.0600000    1.0080
   27        HC    1  MOL     H27    27   0.0600000    1.0080
   28        HC    1  MOL     H28    28   0.0600000    1.0080
   29        HC    1  MOL     H29    29   0.0600000    1.0080
   30        HC    1  MOL     H30    30   0.0600000    1.0080
   31        HC    1  MOL     H31    31   0.0600000    1.0080
   32        HC    1  MOL     H32    32   0.0600000    1.0080
   33        HC    1  MOL     H33    33   0.0600000    1.0080
   34        HC    1  MOL     H34    34   0.0600000    1.0080
   35        HC    1  MOL     H35    35   0.0600000    1.0080
   36        HC    1  MOL     H36    36   0.0600000    1.0080
   37        HC    1  MOL     H37    37   0.0600000    1.0080
   38        HC    1  MOL     H38    38   0.0600000    1.0080
   39        HC    1  MOL     H39    39   0.0600000    1.0080
   40        HC    1  MOL     H40    40   0.0600000    1.0080
   41        HC    1  MOL     H41    41   0.0600000    1.0080
   42        HC    1  MOL     H42    42   0.0600000    1.0080
   43       HAE    1  MOL     H43    43   0.0300000    1.0080
   44       HAE    1  MOL     H44    44   0.0300000    1.0080
   45       HAE    1  MOL     H45    45   0.0600000    1.0080
   46       HAE    1  MOL     H46    46   0.0600000    1.0080
   47        HC    1  MOL     H47    47   0.0600000    1.0080
   48        HC    1  MOL     H48    48   0.0600000    1.0080
   49        HC    1  MOL     H49    49   0.0600000    1.0080
   50        HC    1  MOL     H50    50   0.0600000    1.0080
   51        HC    1  MOL     H51    51   0.0600000    1.0080
   52        HC    1  MOL     H52    52   0.0600000    1.0080
   53        HC    1  MOL     H53    53   0.0600000    1.0080
   54        HC    1  MOL     H54    54   0.0600000    1.0080
   55        HC    1  MOL     H55    55   0.0600000    1.0080
   56        HC    1  MOL     H56    56   0.0600000    1.0080
   57        HC    1  MOL     H57    57   0.0600000    1.0080
   58        HC    1  MOL     H58    58   0.0600000    1.0080
   59       HAE    1  MOL     H59    59   0.0600000    1.0080
   60       HAE    1  MOL     H60    60   0.0600000    1.0080
   61        HO    1  MOL     H61    61   0.4180000    1.0080
   62       OES    1  MOL     O62    62  -0.3300000   15.9994
   63        CT    1  MOL     C63    63   0.1900000   12.0115
   64        CT    1  MOL     C64    64  -0.1200000   12.0115
   65        CT    1  MOL     C65    65  -0.1200000   12.0115
   66        CT    1  MOL     C66    66  -0.1200000   12.0115
   67        CT    1  MOL     C67    67  -0.1200000   12.0115
   68        CT    1  MOL     C68    68  -0.1200000   12.0115
   69        CT    1  MOL     C69    69  -0.1200000   12.0115
   70        CT    1  MOL     C70    70  -0.1200000   12.0115
   71        CT    1  MOL     C71    71  -0.1200000   12.0115
   72        CT    1  MOL     C72    72   0.1900000   12.0115
   73       OES    1  MOL     O73    73  -0.3300000   15.9994
   74       CO4    1  MOL     C74    74   0.5100000   12.0115
   75         O    1  MOL     O75    75  -0.4300000   15.9994
   76        CT    1  MOL     C76    76  -0.1200000   12.0115
   77        CT    1  MOL     C77    77  -0.1200000   12.0115
   78        CT    1  MOL     C78    78  -0.1200000   12.0115
   79        CT    1  MOL     C79    79  -0.1200000   12.0115
   80        CT    1  MOL     C80    80  -0.1200000   12.0115
   81        CT    1  MOL     C81    81  -0.1200000   12.0115
   82        CT    1  MOL     C82    82  -0.1200000   12.0115
   83        CT    1  MOL     C83    83  -0.1200000   12.0115
   84       CO4    1  MOL     C84    84   0.5100000   12.0115
   85         O    1  MOL     O85    85  -0.4300000   15.9994
   86       HAE    1  MOL     H86    86   0.0300000    1.0080
   87       HAE    1  MOL     H87    87   0.0300000    1.0080
   88        HC    1  MOL     H88    88   0.0600000    1.0080
   89        HC    1  MOL     H89    89   0.0600000    1.0080
   90        HC    1  MOL     H90    90   0.0600000    1.0080
   91        HC    1  MOL     H91    91   0.0600000    1.0080
   92        HC    1  MOL     H92    92   0.0600000    1.0080
   93        HC    1  MOL     H93    93   0.0600000    1.0080
   94        HC    1  MOL     H94    94   0.0600000    1.0080
   95        HC    1  MOL     H95    95   0.0600000    1.0080
   96        HC    1  MOL     H96    96   0.0600000    1.0080
   97        HC    1  MOL     H97    97   0.0600000    1.0080
   98        HC    1  MOL     H98    98   0.0600000    1.0080
   99        HC    1  MOL     H99    99   0.0600000    1.0080
  100        HC    1  MOL    H100   100   0.0600000    1.0080
  101        HC    1  MOL    H101   101   0.0600000    1.0080
  102        HC    1  MOL    H102   102   0.0600000    1.0080
  103        HC    1  MOL    H103   103   0.0600000    1.0080
  104       HAE    1  MOL    H104   104   0.0300000    1.0080
  105       HAE    1  MOL    H105   105   0.0300000    1.0080
  106       HAE    1  MOL    H106   106   0.0600000    1.0080
  107       HAE    1  MOL    H107   107   0.0600000    1.0080
  108        HC    1  MOL    H108   108   0.0600000    1.0080
  109        HC    1  MOL    H109   109   0.0600000    1.0080
  110        HC    1  MOL    H110   110   0.0600000    1.0080
  111        HC    1  MOL    H111   111   0.0600000    1.0080
  112        HC    1  MOL    H112   112   0.0600000    1.0080
  113        HC    1  MOL    H113   113   0.0600000    1.0080
  114        HC    1  MOL    H114   114   0.0600000    1.0080
  115        HC    1  MOL    H115   115   0.0600000    1.0080
  116        HC    1  MOL    H116   116   0.0600000    1.0080
  117        HC    1  MOL    H117   117   0.0600000    1.0080
  118        HC    1  MOL    H118   118   0.0600000    1.0080
  119        HC    1  MOL    H119   119   0.0600000    1.0080
  120       HAE    1  MOL    H120   120   0.0600000    1.0080
  121       HAE    1  MOL    H121   121   0.0600000    1.0080
  122       OES    1  MOL    O122   122  -0.3300000   15.9994
  123        CT    1  MOL    C123   123   0.1900000   12.0115
  124        CT    1  MOL    C124   124  -0.1200000   12.0115
  125        CT    1  MOL    C125   125  -0.1200000   12.0115
  126        CT    1  MOL    C126   126  -0.1200000   12.0115
  127        CT    1  MOL    C127   127  -0.1200000   12.0115
  128        CT    1  MOL    C128   128  -0.1200000   12.0115
  129        CT    1  MOL    C129   129  -0.1200000   12.0115
  130        CT    1  MOL    C130   130  -0.1200000   12.0115
  131        CT    1  MOL    C131   131  -0.1200000   12.0115
  132        CT    1  MOL    C132   132   0.1900000   12.0115
  133       OES    1  MOL    O133   133  -0.3300000   15.9994
  134       CO4    1  MOL    C134   134   0.5100000   12.0115
  135         O    1  MOL    O135   135  -0.4300000   15.9994
  136        CT    1  MOL    C136   136  -0.1200000   12.0115
  137        CT    1  MOL    C137   137  -0.1200000   12.0115
  138        CT    1  MOL    C138   138  -0.1200000   12.0115
  139        CT    1  MOL    C139   139  -0.1200000   12.0115
  140        CT    1  MOL    C140   140  -0.1200000   12.0115
  141        CT    1  MOL    C141   141  -0.1200000   12.0115
  142        CT    1  MOL    C142   142  -0.1200000   12.0115
  143        CT    1  MOL    C143   143  -0.1200000   12.0115
  144       CO4    1  MOL    C144   144   0.5100000   12.0115
  145         O    1  MOL    O145   145  -0.4300000   15.9994
  146       HAE    1  MOL    H146   146   0.0300000    1.0080
  147       HAE    1  MOL    H147   147   0.0300000    1.0080
  148        HC    1  MOL    H148   148   0.0600000    1.0080
  149        HC    1  MOL    H149   149   0.0600000    1.0080
  150        HC    1  MOL    H150   150   0.0600000    1.0080
  151        HC    1  MOL    H151   151   0.0600000    1.0080
  152        HC    1  MOL    H152   152   0.0600000    1.0080
  153        HC    1  MOL    H153   153   0.0600000    1.0080
  154        HC    1  MOL    H154   154   0.0600000    1.0080
  155        HC    1  MOL    H155   155   0.0600000    1.0080
  156        HC    1  MOL    H156   156   0.0600000    1.0080
  157        HC    1  MOL    H157   157   0.0600000    1.0080
  158        HC    1  MOL    H158   158   0.0600000    1.0080
  159        HC    1  MOL    H159   159   0.0600000    1.0080
  160        HC    1  MOL    H160   160   0.0600000    1.0080
  161        HC    1  MOL    H161   161   0.0600000    1.0080
  162        HC    1  MOL    H162   162   0.0600000    1.0080
  163        HC    1  MOL    H163   163   0.0600000    1.0080
  164       HAE    1  MOL    H164   164   0.0300000    1.0080
  165       HAE    1  MOL    H165   165   0.0300000    1.0080
  166       HAE    1  MOL    H166   166   0.0600000    1.0080
  167       HAE    1  MOL    H167   167   0.0600000    1.0080
  168        HC    1  MOL    H168   168   0.0600000    1.0080
  169        HC    1  MOL    H169   169   0.0600000    1.0080
  170        HC    1  MOL    H170   170   0.0600000    1.0080
  171        HC    1  MOL    H171   171   0.0600000    1.0080
  172        HC    1  MOL    H172   172   0.0600000    1.0080
  173        HC    1  MOL    H173   173   0.0600000    1.0080
  174        HC    1  MOL    H174   174   0.0600000    1.0080
  175        HC    1  MOL    H175   175   0.0600000    1.0080
  176        HC    1  MOL    H176   176   0.0600000    1.0080
  177        HC    1  MOL    H177   177   0.0600000    1.0080
  178        HC    1  MOL    H178   178   0.0600000    1.0080
  179        HC    1  MOL    H179   179   0.0600000    1.0080
  180       HAE    1  MOL    H180   180   0.0600000    1.0080
  181       HAE    1  MOL    H181   181   0.0600000    1.0080
  182       OES    1  MOL    O182   182  -0.3300000   15.9994
  183        CT    1  MOL    C183   183   0.1900000   12.0115
  184        CT    1  MOL    C184   184  -0.1200000   12.0115
  185        CT    1  MOL    C185   185  -0.1200000   12.0115
  186        CT    1  MOL    C186   186  -0.1200000   12.0115
  187        CT    1  MOL    C187   187  -0.1200000   12.0115
  188        CT    1  MOL    C188   188  -0.1200000   12.0115
  189        CT    1  MOL    C189   189  -0.1200000   12.0115
  190        CT    1  MOL    C190   190  -0.1200000   12.0115
  191        CT    1  MOL    C191   191  -0.1200000   12.0115
  192        CT    1  MOL    C192   192   0.1900000   12.0115
  193       OES    1  MOL    O193   193  -0.3300000   15.9994
  194       CO4    1  MOL    C194   194   0.5100000   12.0115
  195         O    1  MOL    O195   195  -0.4300000   15.9994
  196        CT    1  MOL    C196   196  -0.1200000   12.0115
  197        CT    1  MOL    C197   197  -0.1200000   12.0115
  198        CT    1  MOL    C198   198  -0.1200000   12.0115
  199        CT    1  MOL    C199   199  -0.1200000   12.0115
  200        CT    1  MOL    C200   200  -0.1200000   12.0115
  201        CT    1  MOL    C201   201  -0.1200000   12.0115
  202        CT    1  MOL    C202   202  -0.1200000   12.0115
  203        CT    1  MOL    C203   203  -0.1200000   12.0115
  204       CO4    1  MOL    C204   204   0.5100000   12.0115
  205         O    1  MOL    O205   205  -0.4300000   15.9994
  206       HAE    1  MOL    H206   206   0.0300000    1.0080
  207       HAE    1  MOL    H207   207   0.0300000    1.0080
  208        HC    1  MOL    H208   208   0.0600000    1.0080
  209        HC    1  MOL    H209   209   0.0600000    1.0080
  210        HC    1  MOL    H210   210   0.0600000    1.0080
  211        HC    1  MOL    H211   211   0.0600000    1.0080
  212        HC    1  MOL    H212   212   0.0600000    1.0080
  213        HC    1  MOL    H213   213   0.0600000    1.0080
  214        HC    1  MOL    H214   214   0.0600000    1.0080
  215        HC    1  MOL    H215   215   0.0600000    1.0080
  216        HC    1  MOL    H216   216   0.0600000    1.0080
  217        HC    1  MOL    H217   217   0.0600000    1.0080
  218        HC    1  MOL    H218   218   0.0600000    1.0080
  219        HC    1  MOL    H219   219   0.0600000    1.0080
  220        HC    1  MOL    H220   220   0.0600000    1.0080
  221        HC    1  MOL    H221   221   0.0600000    1.0080
  222        HC    1  MOL    H222   222   0.0600000    1.0080
  223        HC    1  MOL    H223   223   0.0600000    1.0080
  224       HAE    1  MOL    H224   224   0.0300000    1.0080
  225       HAE    1  MOL    H225   225   0.0300000    1.0080
  226       HAE    1  MOL    H226   226   0.0600000    1.0080
  227       HAE    1  MOL    H227   227   0.0600000    1.0080
  228        HC    1  MOL    H228   228   0.0600000    1.0080
  229        HC    1  MOL    H229   229   0.0600000    1.0080
  230        HC    1  MOL    H230   230   0.0600000    1.0080
  231        HC    1  MOL    H231   231   0.0600000    1.0080
  232        HC    1  MOL    H232   232   0.0600000    1.0080
  233        HC    1  MOL    H233   233   0.0600000    1.0080
  234        HC    1  MOL    H234   234   0.0600000    1.0080
  235        HC    1  MOL    H235   235   0.0600000    1.0080
  236        HC    1  MOL    H236   236   0.0600000    1.0080
  237        HC    1  MOL    H237   237   0.0600000    1.0080
  238        HC    1  MOL    H238   238   0.0600000    1.0080
  239        HC    1  MOL    H239   239   0.0600000    1.0080
  240       HAE    1  MOL    H240   240   0.0600000    1.0080
  241       HAE    1  MOL    H241   241   0.0600000    1.0080
  242       OES    1  MOL    O242   242  -0.3300000   15.9994
  243        CT    1  MOL    C243   243   0.1900000   12.0115
  244        CT    1  MOL    C244   244  -0.1200000   12.0115
  245        CT    1  MOL    C245   245  -0.1200000   12.0115
  246        CT    1  MOL    C246   246  -0.1200000   12.0115
  247        CT    1  MOL    C247   247  -0.1200000   12.0115
  248        CT    1  MOL    C248   248  -0.1200000   12.0115
  249        CT    1  MOL    C249   249  -0.1200000   12.0115
  250        CT    1  MOL    C250   250  -0.1200000   12.0115
  251        CT    1  MOL    C251   251  -0.1200000   12.0115
  252        CT    1  MOL    C252   252   0.1900000   12.0115
  253       OES    1  MOL    O253   253  -0.3300000   15.9994
  254       CO4    1  MOL    C254   254   0.5100000   12.0115
  255         O    1  MOL    O255   255  -0.4300000   15.9994
  256        CT    1  MOL    C256   256  -0.1200000   12.0115
  257        CT    1  MOL    C257   257  -0.1200000   12.0115
  258        CT    1  MOL    C258   258  -0.1200000   12.0115
  259        CT    1  MOL    C259   259  -0.1200000   12.0115
  260        CT    1  MOL    C260   260  -0.1200000   12.0115
  261        CT    1  MOL    C261   261  -0.1200000   12.0115
  262        CT    1  MOL    C262   262  -0.1200000   12.0115
  263        CT    1  MOL    C263   263  -0.1200000   12.0115
  264       CO4    1  MOL    C264   264   0.5100000   12.0115
  265         O    1  MOL    O265   265  -0.4300000   15.9994
  266       HAE    1  MOL    H266   266   0.0300000    1.0080
  267       HAE    1  MOL    H267   267   0.0300000    1.0080
  268        HC    1  MOL    H268   268   0.0600000    1.0080
  269        HC    1  MOL    H269   269   0.0600000    1.0080
  270        HC    1  MOL    H270   270   0.0600000    1.0080
  271        HC    1  MOL    H271   271   0.0600000    1.0080
  272        HC    1  MOL    H272   272   0.0600000    1.0080
  273        HC    1  MOL    H273   273   0.0600000    1.0080
  274        HC    1  MOL    H274   274   0.0600000    1.0080
  275        HC    1  MOL    H275   275   0.0600000    1.0080
  276        HC    1  MOL    H276   276   0.0600000    1.0080
  277        HC    1  MOL    H277   277   0.0600000    1.0080
  278        HC    1  MOL    H278   278   0.0600000    1.0080
  279        HC    1  MOL    H279   279   0.0600000    1.0080
  280        HC    1  MOL    H280   280   0.0600000    1.0080
  281        HC    1  MOL    H281   281   0.0600000    1.0080
  282        HC    1  MOL    H282   282   0.0600000    1.0080
  283        HC    1  MOL    H283   283   0.0600000    1.0080
  284       HAE    1  MOL    H284   284   0.0300000    1.0080
  285       HAE    1  MOL    H285   285   0.0300000    1.0080
  286       HAE    1  MOL    H286   286   0.0600000    1.0080
  287       HAE    1  MOL    H287   287   0.0600000    1.0080
  288        HC    1  MOL    H288   288   0.0600000    1.0080
  289        HC    1  MOL    H289   289   0.0600000    1.0080
  290        HC    1  MOL    H290   290   0.0600000    1.0080
  291        HC    1  MOL    H291   291   0.0600000    1.0080
  292        HC    1  MOL    H292   292   0.0600000    1.0080
  293        HC    1  MOL    H293   293   0.0600000    1.0080
  294        HC    1  MOL    H294   294   0.0600000    1.0080
  295        HC    1  MOL    H295   295   0.0600000    1.0080
  296        HC    1  MOL    H296   296   0.0600000    1.0080
  297        HC    1  MOL    H297   297   0.0600000    1.0080
  298        HC    1  MOL    H298   298   0.0600000    1.0080
  299        HC    1  MOL    H299   299   0.0600000    1.0080
  300       HAE    1  MOL    H300   300   0.0600000    1.0080
  301       HAE    1  MOL    H301   301   0.0600000    1.0080
  302       OES    1  MOL    O302   302  -0.3300000   15.9994
  303        CT    1  MOL    C303   303   0.1900000   12.0115
  304        CT    1  MOL    C304   304  -0.1200000   12.0115
  305        CT    1  MOL    C305   305  -0.1200000   12.0115
  306        CT    1  MOL    C306   306  -0.1200000   12.0115
  307        CT    1  MOL    C307   307  -0.1200000   12.0115
  308        CT    1  MOL    C308   308  -0.1200000   12.0115
  309        CT    1  MOL    C309   309  -0.1200000   12.0115
  310        CT    1  MOL    C310   310  -0.1200000   12.0115
  311        CT    1  MOL    C311   311  -0.1200000   12.0115
  312        CT    1  MOL    C312   312   0.1900000   12.0115
  313       OES    1  MOL    O313   313  -0.3300000   15.9994
  314       CO4    1  MOL    C314   314   0.5100000   12.0115
  315         O    1  MOL    O315   315  -0.4300000   15.9994
  316        CT    1  MOL    C316   316  -0.1200000   12.0115
  317        CT    1  MOL    C317   317  -0.1200000   12.0115
  318        CT    1  MOL    C318   318  -0.1200000   12.0115
  319        CT    1  MOL    C319   319  -0.1200000   12.0115
  320        CT    1  MOL    C320   320  -0.1200000   12.0115
  321        CT    1  MOL    C321   321  -0.1200000   12.0115
  322        CT    1  MOL    C322   322  -0.1200000   12.0115
  323        CT    1  MOL    C323   323  -0.1200000   12.0115
  324       CO4    1  MOL    C324   324   0.5100000   12.0115
  325         O    1  MOL    O325   325  -0.4300000   15.9994
  326       HAE    1  MOL    H326   326   0.0300000    1.0080
  327       HAE    1  MOL    H327   327   0.0300000    1.0080
  328        HC    1  MOL    H328   328   0.0600000    1.0080
  329        HC    1  MOL    H329   329   0.0600000    1.0080
  330        HC    1  MOL    H330   330   0.0600000    1.0080
  331        HC    1  MOL    H331   331   0.0600000    1.0080
  332        HC    1  MOL    H332   332   0.0600000    1.0080
  333        HC    1  MOL    H333   333   0.0600000    1.0080
  334        HC    1  MOL    H334   334   0.0600000    1.0080
  335        HC    1  MOL    H335   335   0.0600000    1.0080
  336        HC    1  MOL    H336   336   0.0600000    1.0080
  337        HC    1  MOL    H337   337   0.0600000    1.0080
  338        HC    1  MOL    H338   338   0.0600000    1.0080
  339        HC    1  MOL    H339   339   0.0600000    1.0080
  340        HC    1  MOL    H340   340   0.0600000    1.0080
  341        HC    1  MOL    H341   341   0.0600000    1.0080
  342        HC    1  MOL    H342   342   0.0600000    1.0080
  343        HC    1  MOL    H343   343   0.0600000    1.0080
  344       HAE    1  MOL    H344   344   0.0300000    1.0080
  345       HAE    1  MOL    H345   345   0.0300000    1.0080
  346       HAE    1  MOL    H346   346   0.0600000    1.0080
  347       HAE    1  MOL    H347   347   0.0600000    1.0080
  348        HC    1  MOL    H348   348   0.0600000    1.0080
  349        HC    1  MOL    H349   349   0.0600000    1.0080
  350        HC    1  MOL    H350   350   0.0600000    1.0080
  351        HC    1  MOL    H351   351   0.0600000    1.0080
  352        HC    1  MOL    H352   352   0.0600000    1.0080
  353        HC    1  MOL    H353   353   0.0600000    1.0080
  354        HC    1  MOL    H354   354   0.0600000    1.0080
  355        HC    1  MOL    H355   355   0.0600000    1.0080
  356        HC    1  MOL    H356   356   0.0600000    1.0080
  357        HC    1  MOL    H357   357   0.0600000    1.0080
  358        HC    1  MOL    H358   358   0.0600000    1.0080
  359        HC    1  MOL    H359   359   0.0600000    1.0080
  360       HAE    1  MOL    H360   360   0.0600000    1.0080
  361       HAE    1  MOL    H361   361   0.0600000    1.0080
  362       OES    1  MOL    O362   362  -0.3300000   15.9994
  363        CT    1  MOL    C363   363   0.1900000   12.0115
  364        CT    1  MOL    C364   364  -0.1200000   12.0115
  365        CT    1  MOL    C365   365  -0.1200000   12.0115
  366        CT    1  MOL    C366   366  -0.1200000   12.0115
  367        CT    1  MOL    C367   367  -0.1200000   12.0115
  368        CT    1  MOL    C368   368  -0.1200000   12.0115
  369        CT    1  MOL    C369   369  -0.1200000   12.0115
  370        CT    1  MOL    C370   370  -0.1200000   12.0115
  371        CT    1  MOL    C371   371  -0.1200000   12.0115
  372        CT    1  MOL    C372   372   0.1900000   12.0115
  373       OES    1  MOL    O373   373  -0.3300000   15.9994
  374       CO4    1  MOL    C374   374   0.5100000   12.0115
  375         O    1  MOL    O375   375  -0.4300000   15.9994
  376        CT    1  MOL    C376   376  -0.1200000   12.0115
  377        CT    1  MOL    C377   377  -0.1200000   12.0115
  378        CT    1  MOL    C378   378  -0.1200000   12.0115
  379        CT    1  MOL    C379   379  -0.1200000   12.0115
  380        CT    1  MOL    C380   380  -0.1200000   12.0115
  381        CT    1  MOL    C381   381  -0.1200000   12.0115
  382        CT    1  MOL    C382   382  -0.1200000   12.0115
  383        CT    1  MOL    C383   383  -0.1200000   12.0115
  384       CO4    1  MOL    C384   384   0.5100000   12.0115
  385         O    1  MOL    O385   385  -0.4300000   15.9994
  386       HAE    1  MOL    H386   386   0.0300000    1.0080
  387       HAE    1  MOL    H387   387   0.0300000    1.0080
  388        HC    1  MOL    H388   388   0.0600000    1.0080
  389        HC    1  MOL    H389   389   0.0600000    1.0080
  390        HC    1  MOL    H390   390   0.0600000    1.0080
  391        HC    1  MOL    H391   391   0.0600000    1.0080
  392        HC    1  MOL    H392   392   0.0600000    1.0080
  393        HC    1  MOL    H393   393   0.0600000    1.0080
  394        HC    1  MOL    H394   394   0.0600000    1.0080
  395        HC    1  MOL    H395   395   0.0600000    1.0080
  396        HC    1  MOL    H396   396   0.0600000    1.0080
  397        HC    1  MOL    H397   397   0.0600000    1.0080
  398        HC    1  MOL    H398   398   0.0600000    1.0080
  399        HC    1  MOL    H399   399   0.0600000    1.0080
  400        HC    1  MOL    H400   400   0.0600000    1.0080
  401        HC    1  MOL    H401   401   0.0600000    1.0080
  402        HC    1  MOL    H402   402   0.0600000    1.0080
  403        HC    1  MOL    H403   403   0.0600000    1.0080
  404       HAE    1  MOL    H404   404   0.0300000    1.0080
  405       HAE    1  MOL    H405   405   0.0300000    1.0080
  406       HAE    1  MOL    H406   406   0.0600000    1.0080
  407       HAE    1  MOL    H407   407   0.0600000    1.0080
  408        HC    1  MOL    H408   408   0.0600000    1.0080
  409        HC    1  MOL    H409   409   0.0600000    1.0080
  410        HC    1  MOL    H410   410   0.0600000    1.0080
  411        HC    1  MOL    H411   411   0.0600000    1.0080
  412        HC    1  MOL    H412   412   0.0600000    1.0080
  413        HC    1  MOL    H413   413   0.0600000    1.0080
  414        HC    1  MOL    H414   414   0.0600000    1.0080
  415        HC    1  MOL    H415   415   0.0600000    1.0080
  416        HC    1  MOL    H416   416   0.0600000    1.0080
  417        HC    1  MOL    H417   417   0.0600000    1.0080
  418        HC    1  MOL    H418   418   0.0600000    1.0080
  419        HC    1  MOL    H419   419   0.0600000    1.0080
  420       HAE    1  MOL    H420   420   0.0600000    1.0080
  421       HAE    1  MOL    H421   421   0.0600000    1.0080
  422       OES    1  MOL    O422   422  -0.3300000   15.9994
  423        CT    1  MOL    C423   423   0.1900000   12.0115
  424        CT    1  MOL    C424   424  -0.1200000   12.0115
  425        CT    1  MOL    C425   425  -0.1200000   12.0115
  426        CT    1  MOL    C426   426  -0.1200000   12.0115
  427        CT    1  MOL    C427   427  -0.1200000   12.0115
  428        CT    1  MOL    C428   428  -0.1200000   12.0115
  429        CT    1  MOL    C429   429  -0.1200000   12.0115
  430        CT    1  MOL    C430   430  -0.1200000   12.0115
  431        CT    1  MOL    C431   431  -0.1200000   12.0115
  432        CT    1  MOL    C432   432   0.1900000   12.0115
  433       OES    1  MOL    O433   433  -0.3300000   15.9994
  434       CO4    1  MOL    C434   434   0.5100000   12.0115
  435         O    1  MOL    O435   435  -0.4300000   15.9994
  436        CT    1  MOL    C436   436  -0.1200000   12.0115
  437        CT    1  MOL    C437   437  -0.1200000   12.0115
  438        CT    1  MOL    C438   438  -0.1200000   12.0115
  439        CT    1  MOL    C439   439  -0.1200000   12.0115
  440        CT    1  MOL    C440   440  -0.1200000   12.0115
  441        CT    1  MOL    C441   441  -0.1200000   12.0115
  442        CT    1  MOL    C442   442  -0.1200000   12.0115
  443        CT    1  MOL    C443   443  -0.1200000   12.0115
  444       CO4    1  MOL    C444   444   0.5100000   12.0115
  445         O    1  MOL    O445   445  -0.4300000   15.9994
  446       HAE    1  MOL    H446   446   0.0300000    1.0080
  447       HAE    1  MOL    H447   447   0.0300000    1.0080
  448        HC    1  MOL    H448   448   0.0600000    1.0080
  449        HC    1  MOL    H449   449   0.0600000    1.0080
  450        HC    1  MOL    H450   450   0.0600000    1.0080
  451        HC    1  MOL    H451   451   0.0600000    1.0080
  452        HC    1  MOL    H452   452   0.0600000    1.0080
  453        HC    1  MOL    H453   453   0.0600000    1.0080
  454        HC    1  MOL    H454   454   0.0600000    1.0080
  455        HC    1  MOL    H455   455   0.0600000    1.0080
  456        HC    1  MOL    H456   456   0.0600000    1.0080
  457        HC    1  MOL    H457   457   0.0600000    1.0080
  458        HC    1  MOL    H458   458   0.0600000    1.0080
  459        HC    1  MOL    H459   459   0.0600000    1.0080
  460        HC    1  MOL    H460   460   0.0600000    1.0080
  461        HC    1  MOL    H461   461   0.0600000    1.0080
  462        HC    1  MOL    H462   462   0.0600000    1.0080
  463        HC    1  MOL    H463   463   0.0600000    1.0080
  464       HAE    1  MOL    H464   464   0.0300000    1.0080
  465       HAE    1  MOL    H465   465   0.0300000    1.0080
  466       HAE    1  MOL    H466   466   0.0600000    1.0080
  467       HAE    1  MOL    H467   467   0.0600000    1.0080
  468        HC    1  MOL    H468   468   0.0600000    1.0080
  469        HC    1  MOL    H469   469   0.0600000    1.0080
  470        HC    1  MOL    H470   470   0.0600000    1.0080
  471        HC    1  MOL    H471   471   0.0600000    1.0080
  472        HC    1  MOL    H472   472   0.0600000    1.0080
  473        HC    1  MOL    H473   473   0.0600000    1.0080
  474        HC    1  MOL    H474   474   0.0600000    1.0080
  475        HC    1  MOL    H475   475   0.0600000    1.0080
  476        HC    1  MOL    H476   476   0.0600000    1.0080
  477        HC    1  MOL    H477   477   0.0600000    1.0080
  478        HC    1  MOL    H478   478   0.0600000    1.0080
  479        HC    1  MOL    H479   479   0.0600000    1.0080
  480       HAE    1  MOL    H480   480   0.0600000    1.0080
  481       HAE    1  MOL    H481   481   0.0600000    1.0080
  482       OES    1  MOL    O482   482  -0.3300000   15.9994
  483        CT    1  MOL    C483   483   0.1900000   12.0115
  484        CT    1  MOL    C484   484  -0.1200000   12.0115
  485        CT    1  MOL    C485   485  -0.1200000   12.0115
  486        CT    1  MOL    C486   486  -0.1200000   12.0115
  487        CT    1  MOL    C487   487  -0.1200000   12.0115
  488        CT    1  MOL    C488   488  -0.1200000   12.0115
  489        CT    1  MOL    C489   489  -0.1200000   12.0115
  490        CT    1  MOL    C490   490  -0.1200000   12.0115
  491        CT    1  MOL    C491   491  -0.1200000   12.0115
  492        CT    1  MOL    C492   492   0.1900000   12.0115
  493       OES    1  MOL    O493   493  -0.3300000   15.9994
  494       CO4    1  MOL    C494   494   0.5100000   12.0115
  495         O    1  MOL    O495   495  -0.4300000   15.9994
  496        CT    1  MOL    C496   496  -0.1200000   12.0115
  497        CT    1  MOL    C497   497  -0.1200000   12.0115
  498        CT    1  MOL    C498   498  -0.1200000   12.0115
  499        CT    1  MOL    C499   499  -0.1200000   12.0115
  500        CT    1  MOL    C500   500  -0.1200000   12.0115
  501        CT    1  MOL    C501   501  -0.1200000   12.0115
  502        CT    1  MOL    C502   502  -0.1200000   12.0115
  503        CT    1  MOL    C503   503  -0.1200000   12.0115
  504       CO4    1  MOL    C504   504   0.5100000   12.0115
  505         O    1  MOL    O505   505  -0.4300000   15.9994
  506       HAE    1  MOL    H506   506   0.0300000    1.0080
  507       HAE    1  MOL    H507   507   0.0300000    1.0080
  508        HC    1  MOL    H508   508   0.0600000    1.0080
  509        HC    1  MOL    H509   509   0.0600000    1.0080
  510        HC    1  MOL    H510   510   0.0600000    1.0080
  511        HC    1  MOL    H511   511   0.0600000    1.0080
  512        HC    1  MOL    H512   512   0.0600000    1.0080
  513        HC    1  MOL    H513   513   0.0600000    1.0080
  514        HC    1  MOL    H514   514   0.0600000    1.0080
  515        HC    1  MOL    H515   515   0.0600000    1.0080
  516        HC    1  MOL    H516   516   0.0600000    1.0080
  517        HC    1  MOL    H517   517   0.0600000    1.0080
  518        HC    1  MOL    H518   518   0.0600000    1.0080
  519        HC    1  MOL    H519   519   0.0600000    1.0080
  520        HC    1  MOL    H520   520   0.0600000    1.0080
  521        HC    1  MOL    H521   521   0.0600000    1.0080
  522        HC    1  MOL    H522   522   0.0600000    1.0080
  523        HC    1  MOL    H523   523   0.0600000    1.0080
  524       HAE    1  MOL    H524   524   0.0300000    1.0080
  525       HAE    1  MOL    H525   525   0.0300000    1.0080
  526       HAE    1  MOL    H526   526   0.0600000    1.0080
  527       HAE    1  MOL    H527   527   0.0600000    1.0080
  528        HC    1  MOL    H528   528   0.0600000    1.0080
  529        HC    1  MOL    H529   529   0.0600000    1.0080
  530        HC    1  MOL    H530   530   0.0600000    1.0080
  531        HC    1  MOL    H531   531   0.0600000    1.0080
  532        HC    1  MOL    H532   532   0.0600000    1.0080
  533        HC    1  MOL    H533   533   0.0600000    1.0080
  534        HC    1  MOL    H534   534   0.0600000    1.0080
  535        HC    1  MOL    H535   535   0.0600000    1.0080
  536        HC    1  MOL    H536   536   0.0600000    1.0080
  537        HC    1  MOL    H537   537   0.0600000    1.0080
  538        HC    1  MOL    H538   538   0.0600000    1.0080
  539        HC    1  MOL    H539   539   0.0600000    1.0080
  540       HAE    1  MOL    H540   540   0.0600000    1.0080
  541       HAE    1  MOL    H541   541   0.0600000    1.0080
  542       OES    1  MOL    O542   542  -0.3300000   15.9994
  543        CT    1  MOL    C543   543   0.1900000   12.0115
  544        CT    1  MOL    C544   544  -0.1200000   12.0115
  545        CT    1  MOL    C545   545  -0.1200000   12.0115
  546        CT    1  MOL    C546   546  -0.1200000   12.0115
  547        CT    1  MOL    C547   547  -0.1200000   12.0115
  548        CT    1  MOL    C548   548  -0.1200000   12.0115
  549        CT    1  MOL    C549   549  -0.1200000   12.0115
  550        CT    1  MOL    C550   550  -0.1200000   12.0115
  551        CT    1  MOL    C551   551  -0.1200000   12.0115
  552        CT    1  MOL    C552   552   0.1900000   12.0115
  553       OES    1  MOL    O553   553  -0.3300000   15.9994
  554       CO4    1  MOL    C554   554   0.5100000   12.0115
  555         O    1  MOL    O555   555  -0.4300000   15.9994
  556        CT    1  MOL    C556   556  -0.1200000   12.0115
  557        CT    1  MOL    C557   557  -0.1200000   12.0115
  558        CT    1  MOL    C558   558  -0.1200000   12.0115
  559        CT    1  MOL    C559   559  -0.1200000   12.0115
  560        CT    1  MOL    C560   560  -0.1200000   12.0115
  561        CT    1  MOL    C561   561  -0.1200000   12.0115
  562        CT    1  MOL    C562   562  -0.1200000   12.0115
  563        CT    1  MOL    C563   563  -0.1200000   12.0115
  564       CO4    1  MOL    C564   564   0.5100000   12.0115
  565         O    1  MOL    O565   565  -0.4300000   15.9994
  566       HAE    1  MOL    H566   566   0.0300000    1.0080
  567       HAE    1  MOL    H567   567   0.0300000    1.0080
  568        HC    1  MOL    H568   568   0.0600000    1.0080
  569        HC    1  MOL    H569   569   0.0600000    1.0080
  570        HC    1  MOL    H570   570   0.0600000    1.0080
  571        HC    1  MOL    H571   571   0.0600000    1.0080
  572        HC    1  MOL    H572   572   0.0600000    1.0080
  573        HC    1  MOL    H573   573   0.0600000    1.0080
  574        HC    1  MOL    H574   574   0.0600000    1.0080
  575        HC    1  MOL    H575   575   0.0600000    1.0080
  576        HC    1  MOL    H576   576   0.0600000    1.0080
  577        HC    1  MOL    H577   577   0.0600000    1.0080
  578        HC    1  MOL    H578   578   0.0600000    1.0080
  579        HC    1  MOL    H579   579   0.0600000    1.0080
  580        HC    1  MOL    H580   580   0.0600000    1.0080
  581        HC    1  MOL    H581   581   0.0600000    1.0080
  582        HC    1  MOL    H582   582   0.0600000    1.0080
  583        HC    1  MOL    H583   583   0.0600000    1.0080
  584       HAE    1  MOL    H584   584   0.0300000    1.0080
  585       HAE    1  MOL    H585   585   0.0300000    1.0080
  586       HAE    1  MOL    H586   586   0.0600000    1.0080
  587       HAE    1  MOL    H587   587   0.0600000    1.0080
  588        HC    1  MOL    H588   588   0.0600000    1.0080
  589        HC    1  MOL    H589   589   0.0600000    1.0080
  590        HC    1  MOL    H590   590   0.0600000    1.0080
  591        HC    1  MOL    H591   591   0.0600000    1.0080
  592        HC    1  MOL    H592   592   0.0600000    1.0080
  593        HC    1  MOL    H593   593   0.0600000    1.0080
  594        HC    1  MOL    H594   594   0.0600000    1.0080
  595        HC    1  MOL    H595   595   0.0600000    1.0080
  596        HC    1  MOL    H596   596   0.0600000    1.0080
  597        HC    1  MOL    H597   597   0.0600000    1.0080
  598        HC    1  MOL    H598   598   0.0600000    1.0080
  599        HC    1  MOL    H599   599   0.0600000    1.0080
  600       HAE    1  MOL    H600   600   0.0600000    1.0080
  601       HAE    1  MOL    H601   601   0.0600000    1.0080
  602       OES    1  MOL    O602   602  -0.3300000   15.9994
  603        CT    1  MOL    C603   603   0.1900000   12.0115
  604        CT    1  MOL    C604   604  -0.1200000   12.0115
  605        CT    1  MOL    C605   605  -0.1200000   12.0115
  606        CT    1  MOL    C606   606  -0.1200000   12.0115
  607        CT    1  MOL    C607   607  -0.1200000   12.0115
  608        CT    1  MOL    C608   608  -0.1200000   12.0115
  609        CT    1  MOL    C609   609  -0.1200000   12.0115
  610        CT    1  MOL    C610   610  -0.1200000   12.0115
  611        CT    1  MOL    C611   611  -0.1200000   12.0115
  612        CT    1  MOL    C612   612   0.1900000   12.0115
  613       OES    1  MOL    O613   613  -0.3300000   15.9994
  614       CO4    1  MOL    C614   614   0.5100000   12.0115
  615         O    1  MOL    O615   615  -0.4300000   15.9994
  616        CT    1  MOL    C616   616  -0.1200000   12.0115
  617        CT    1  MOL    C617   617  -0.1200000   12.0115
  618        CT    1  MOL    C618   618  -0.1200000   12.0115
  619        CT    1  MOL    C619   619  -0.1200000   12.0115
  620        CT    1  MOL    C620   620  -0.1200000   12.0115
  621        CT    1  MOL    C621   621  -0.1200000   12.0115
  622        CT    1  MOL    C622   622  -0.1200000   12.0115
  623        CT    1  MOL    C623   623  -0.1200000   12.0115
  624       CO4    1  MOL    C624   624   0.5100000   12.0115
  625         O    1  MOL    O625   625  -0.4300000   15.9994
  626       HAE    1  MOL    H626   626   0.0300000    1.0080
  627       HAE    1  MOL    H627   627   0.0300000    1.0080
  628        HC    1  MOL    H628   628   0.0600000    1.0080
  629        HC    1  MOL    H629   629   0.0600000    1.0080
  630        HC    1  MOL    H630   630   0.0600000    1.0080
  631        HC    1  MOL    H631   631   0.0600000    1.0080
  632        HC    1  MOL    H632   632   0.0600000    1.0080
  633        HC    1  MOL    H633   633   0.0600000    1.0080
  634        HC    1  MOL    H634   634   0.0600000    1.0080
  635        HC    1  MOL    H635   635   0.0600000    1.0080
  636        HC    1  MOL    H636   636   0.0600000    1.0080
  637        HC    1  MOL    H637   637   0.0600000    1.0080
  638        HC    1  MOL    H638   638   0.0600000    1.0080
  639        HC    1  MOL    H639   639   0.0600000    1.0080
  640        HC    1  MOL    H640   640   0.0600000    1.0080
  641        HC    1  MOL    H641   641   0.0600000    1.0080
  642        HC    1  MOL    H642   642   0.0600000    1.0080
  643        HC    1  MOL    H643   643   0.0600000    1.0080
  644       HAE    1  MOL    H644   644   0.0300000    1.0080
  645       HAE    1  MOL    H645   645   0.0300000    1.0080
  646       HAE    1  MOL    H646   646   0.0600000    1.0080
  647       HAE    1  MOL    H647   647   0.0600000    1.0080
  648        HC    1  MOL    H648   648   0.0600000    1.0080
  649        HC    1  MOL    H649   649   0.0600000    1.0080
  650        HC    1  MOL    H650   650   0.0600000    1.0080
  651        HC    1  MOL    H651   651   0.0600000    1.0080
  652        HC    1  MOL    H652   652   0.0600000    1.0080
  653        HC    1  MOL    H653   653   0.0600000    1.0080
  654        HC    1  MOL    H654   654   0.0600000    1.0080
  655        HC    1  MOL    H655   655   0.0600000    1.0080
  656        HC    1  MOL    H656   656   0.0600000    1.0080
  657        HC    1  MOL    H657   657   0.0600000    1.0080
  658        HC    1  MOL    H658   658   0.0600000    1.0080
  659        HC    1  MOL    H659   659   0.0600000    1.0080
  660       HAE    1  MOL    H660   660   0.0600000    1.0080
  661       HAE    1  MOL    H661   661   0.0600000    1.0080
  662       OES    1  MOL    O662   662  -0.3300000   15.9994
  663        CT    1  MOL    C663   663   0.1900000   12.0115
  664        CT    1  MOL    C664   664  -0.1200000   12.0115
  665        CT    1  MOL    C665   665  -0.1200000   12.0115
  666        CT    1  MOL    C666   666  -0.1200000   12.0115
  667        CT    1  MOL    C667   667  -0.1200000   12.0115
  668        CT    1  MOL    C668   668  -0.1200000   12.0115
  669        CT    1  MOL    C669   669  -0.1200000   12.0115
  670        CT    1  MOL    C670   670  -0.1200000   12.0115
  671        CT    1  MOL    C671   671  -0.1200000   12.0115
  672        CT    1  MOL    C672   672   0.1900000   12.0115
  673       OES    1  MOL    O673   673  -0.3300000   15.9994
  674       CO4    1  MOL    C674   674   0.5100000   12.0115
  675         O    1  MOL    O675   675  -0.4300000   15.9994
  676        CT    1  MOL    C676   676  -0.1200000   12.0115
  677        CT    1  MOL    C677   677  -0.1200000   12.0115
  678        CT    1  MOL    C678   678  -0.1200000   12.0115
  679        CT    1  MOL    C679   679  -0.1200000   12.0115
  680        CT    1  MOL    C680   680  -0.1200000   12.0115
  681        CT    1  MOL    C681   681  -0.1200000   12.0115
  682        CT    1  MOL    C682   682  -0.1200000   12.0115
  683        CT    1  MOL    C683   683  -0.1200000   12.0115
  684       CO4    1  MOL    C684   684   0.5100000   12.0115
  685         O    1  MOL    O685   685  -0.4300000   15.9994
  686       HAE    1  MOL    H686   686   0.0300000    1.0080
  687       HAE    1  MOL    H687   687   0.0300000    1.0080
  688        HC    1  MOL    H688   688   0.0600000    1.0080
  689        HC    1  MOL    H689   689   0.0600000    1.0080
  690        HC    1  MOL    H690   690   0.0600000    1.0080
  691        HC    1  MOL    H691   691   0.0600000    1.0080
  692        HC    1  MOL    H692   692   0.0600000    1.0080
  693        HC    1  MOL    H693   693   0.0600000    1.0080
  694        HC    1  MOL    H694   694   0.0600000    1.0080
  695        HC    1  MOL    H695   695   0.0600000    1.0080
  696        HC    1  MOL    H696   696   0.0600000    1.0080
  697        HC    1  MOL    H697   697   0.0600000    1.0080
  698        HC    1  MOL    H698   698   0.0600000    1.0080
  699        HC    1  MOL    H699   699   0.0600000    1.0080
  700        HC    1  MOL    H700   700   0.0600000    1.0080
  701        HC    1  MOL    H701   701   0.0600000    1.0080
  702        HC    1  MOL    H702   702   0.0600000    1.0080
  703        HC    1  MOL    H703   703   0.0600000    1.0080
  704       HAE    1  MOL    H704   704   0.0300000    1.0080
  705       HAE    1  MOL    H705   705   0.0300000    1.0080
  706       HAE    1  MOL    H706   706   0.0600000    1.0080
  707       HAE    1  MOL    H707   707   0.0600000    1.0080
  708        HC    1  MOL    H708   708   0.0600000    1.0080
  709        HC    1  MOL    H709   709   0.0600000    1.0080
  710        HC    1  MOL    H710   710   0.0600000    1.0080
  711        HC    1  MOL    H711   711   0.0600000    1.0080
  712        HC    1  MOL    H712   712   0.0600000    1.0080
  713        HC    1  MOL    H713   713   0.0600000    1.0080
  714        HC    1  MOL    H714   714   0.0600000    1.0080
  715        HC    1  MOL    H715   715   0.0600000    1.0080
  716        HC    1  MOL    H716   716   0.0600000    1.0080
  717        HC    1  MOL    H717   717   0.0600000    1.0080
  718        HC    1  MOL    H718   718   0.0600000    1.0080
  719        HC    1  MOL    H719   719   0.0600000    1.0080
  720       HAE    1  MOL    H720   720   0.0600000    1.0080
  721       HAE    1  MOL    H721   721   0.0600000    1.0080
  722       OES    1  MOL    O722   722  -0.3300000   15.9994
  723        CT    1  MOL    C723   723   0.1900000   12.0115
  724        CT    1  MOL    C724   724  -0.1200000   12.0115
  725        CT    1  MOL    C725   725  -0.1200000   12.0115
  726        CT    1  MOL    C726   726  -0.1200000   12.0115
  727        CT    1  MOL    C727   727  -0.1200000   12.0115
  728        CT    1  MOL    C728   728  -0.1200000   12.0115
  729        CT    1  MOL    C729   729  -0.1200000   12.0115
  730        CT    1  MOL    C730   730  -0.1200000   12.0115
  731        CT    1  MOL    C731   731  -0.1200000   12.0115
  732        CT    1  MOL    C732   732   0.1900000   12.0115
  733       OES    1  MOL    O733   733  -0.3300000   15.9994
  734       CO4    1  MOL    C734   734   0.5100000   12.0115
  735         O    1  MOL    O735   735  -0.4300000   15.9994
  736        CT    1  MOL    C736   736  -0.1200000   12.0115
  737        CT    1  MOL    C737   737  -0.1200000   12.0115
  738        CT    1  MOL    C738   738  -0.1200000   12.0115
  739        CT    1  MOL    C739   739  -0.1200000   12.0115
  740        CT    1  MOL    C740   740  -0.1200000   12.0115
  741        CT    1  MOL    C741   741  -0.1200000   12.0115
  742        CT    1  MOL    C742   742  -0.1200000   12.0115
  743        CT    1  MOL    C743   743  -0.1200000   12.0115
  744       CO4    1  MOL    C744   744   0.5100000   12.0115
  745         O    1  MOL    O745   745  -0.4300000   15.9994
  746       HAE    1  MOL    H746   746   0.0300000    1.0080
  747       HAE    1  MOL    H747   747   0.0300000    1.0080
  748        HC    1  MOL    H748   748   0.0600000    1.0080
  749        HC    1  MOL    H749   749   0.0600000    1.0080
  750        HC    1  MOL    H750   750   0.0600000    1.0080
  751        HC    1  MOL    H751   751   0.0600000    1.0080
  752        HC    1  MOL    H752   752   0.0600000    1.0080
  753        HC    1  MOL    H753   753   0.0600000    1.0080
  754        HC    1  MOL    H754   754   0.0600000    1.0080
  755        HC    1  MOL    H755   755   0.0600000    1.0080
  756        HC    1  MOL    H756   756   0.0600000    1.0080
  757        HC    1  MOL    H757   757   0.0600000    1.0080
  758        HC    1  MOL    H758   758   0.0600000    1.0080
  759        HC    1  MOL    H759   759   0.0600000    1.0080
  760        HC    1  MOL    H760   760   0.0600000    1.0080
  761        HC    1  MOL    H761   761   0.0600000    1.0080
  762        HC    1  MOL    H762   762   0.0600000    1.0080
  763        HC    1  MOL    H763   763   0.0600000    1.0080
  764       HAE    1  MOL    H764   764   0.0300000    1.0080
  765       HAE    1  MOL    H765   765   0.0300000    1.0080
  766       HAE    1  MOL    H766   766   0.0600000    1.0080
  767       HAE    1  MOL    H767   767   0.0600000    1.0080
  768        HC    1  MOL    H768   768   0.0600000    1.0080
  769        HC    1  MOL    H769   769   0.0600000    1.0080
  770        HC    1  MOL    H770   770   0.0600000    1.0080
  771        HC    1  MOL    H771   771   0.0600000    1.0080
  772        HC    1  MOL    H772   772   0.0600000    1.0080
  773        HC    1  MOL    H773   773   0.0600000    1.0080
  774        HC    1  MOL    H774   774   0.0600000    1.0080
  775        HC    1  MOL    H775   775   0.0600000    1.0080
  776        HC    1  MOL    H776   776   0.0600000    1.0080
  777        HC    1  MOL    H777   777   0.0600000    1.0080
  778        HC    1  MOL    H778   778   0.0600000    1.0080
  779        HC    1  MOL    H779   779   0.0600000    1.0080
  780       HAE    1  MOL    H780   780   0.0600000    1.0080
  781       HAE    1  MOL    H781   781   0.0600000    1.0080
  782       OES    1  MOL    O782   782  -0.3300000   15.9994
  783        CT    1  MOL    C783   783   0.1900000   12.0115
  784        CT    1  MOL    C784   784  -0.1200000   12.0115
  785        CT    1  MOL    C785   785  -0.1200000   12.0115
  786        CT    1  MOL    C786   786  -0.1200000   12.0115
  787        CT    1  MOL    C787   787  -0.1200000   12.0115
  788        CT    1  MOL    C788   788  -0.1200000   12.0115
  789        CT    1  MOL    C789   789  -0.1200000   12.0115
  790        CT    1  MOL    C790   790  -0.1200000   12.0115
  791        CT    1  MOL    C791   791  -0.1200000   12.0115
  792        CT    1  MOL    C792   792   0.1900000   12.0115
  793       OES    1  MOL    O793   793  -0.3300000   15.9994
  794       CO4    1  MOL    C794   794   0.5100000   12.0115
  795         O    1  MOL    O795   795  -0.4300000   15.9994
  796        CT    1  MOL    C796   796  -0.1200000   12.0115
  797        CT    1  MOL    C797   797  -0.1200000   12.0115
  798        CT    1  MOL    C798   798  -0.1200000   12.0115
  799        CT    1  MOL    C799   799  -0.1200000   12.0115
  800        CT    1  MOL    C800   800  -0.1200000   12.0115
  801        CT    1  MOL    C801   801  -0.1200000   12.0115
  802        CT    1  MOL    C802   802  -0.1200000   12.0115
  803        CT    1  MOL    C803   803  -0.1200000   12.0115
  804       CO4    1  MOL    C804   804   0.5100000   12.0115
  805         O    1  MOL    O805   805  -0.4300000   15.9994
  806       HAE    1  MOL    H806   806   0.0300000    1.0080
  807       HAE    1  MOL    H807   807   0.0300000    1.0080
  808        HC    1  MOL    H808   808   0.0600000    1.0080
  809        HC    1  MOL    H809   809   0.0600000    1.0080
  810        HC    1  MOL    H810   810   0.0600000    1.0080
  811        HC    1  MOL    H811   811   0.0600000    1.0080
  812        HC    1  MOL    H812   812   0.0600000    1.0080
  813        HC    1  MOL    H813   813   0.0600000    1.0080
  814        HC    1  MOL    H814   814   0.0600000    1.0080
  815        HC    1  MOL    H815   815   0.0600000    1.0080
  816        HC    1  MOL    H816   816   0.0600000    1.0080
  817        HC    1  MOL    H817   817   0.0600000    1.0080
  818        HC    1  MOL    H818   818   0.0600000    1.0080
  819        HC    1  MOL    H819   819   0.0600000    1.0080
  820        HC    1  MOL    H820   820   0.0600000    1.0080
  821        HC    1  MOL    H821   821   0.0600000    1.0080
  822        HC    1  MOL    H822   822   0.0600000    1.0080
  823        HC    1  MOL    H823   823   0.0600000    1.0080
  824       HAE    1  MOL    H824   824   0.0300000    1.0080
  825       HAE    1  MOL    H825   825   0.0300000    1.0080
  826       HAE    1  MOL    H826   826   0.0600000    1.0080
  827       HAE    1  MOL    H827   827   0.0600000    1.0080
  828        HC    1  MOL    H828   828   0.0600000    1.0080
  829        HC    1  MOL    H829   829   0.0600000    1.0080
  830        HC    1  MOL    H830   830   0.0600000    1.0080
  831        HC    1  MOL    H831   831   0.0600000    1.0080
  832        HC    1  MOL    H832   832   0.0600000    1.0080
  833        HC    1  MOL    H833   833   0.0600000    1.0080
  834        HC    1  MOL    H834   834   0.0600000    1.0080
  835        HC    1  MOL    H835   835   0.0600000    1.0080
  836        HC    1  MOL    H836   836   0.0600000    1.0080
  837        HC    1  MOL    H837   837   0.0600000    1.0080
  838        HC    1  MOL    H838   838   0.0600000    1.0080
  839        HC    1  MOL    H839   839   0.0600000    1.0080
  840       HAE    1  MOL    H840   840   0.0600000    1.0080
  841       HAE    1  MOL    H841   841   0.0600000    1.0080
  842       OES    1  MOL    O842   842  -0.3300000   15.9994
  843        CT    1  MOL    C843   843   0.1900000   12.0115
  844        CT    1  MOL    C844   844  -0.1200000   12.0115
  845        CT    1  MOL    C845   845  -0.1200000   12.0115
  846        CT    1  MOL    C846   846  -0.1200000   12.0115
  847        CT    1  MOL    C847   847  -0.1200000   12.0115
  848        CT    1  MOL    C848   848  -0.1200000   12.0115
  849        CT    1  MOL    C849   849  -0.1200000   12.0115
  850        CT    1  MOL    C850   850  -0.1200000   12.0115
  851        CT    1  MOL    C851   851  -0.1200000   12.0115
  852        CT    1  MOL    C852   852   0.1900000   12.0115
  853       OES    1  MOL    O853   853  -0.3300000   15.9994
  854       CO4    1  MOL    C854   854   0.5100000   12.0115
  855         O    1  MOL    O855   855  -0.4300000   15.9994
  856        CT    1  MOL    C856   856  -0.1200000   12.0115
  857        CT    1  MOL    C857   857  -0.1200000   12.0115
  858        CT    1  MOL    C858   858  -0.1200000   12.0115
  859        CT    1  MOL    C859   859  -0.1200000   12.0115
  860        CT    1  MOL    C860   860  -0.1200000   12.0115
  861        CT    1  MOL    C861   861  -0.1200000   12.0115
  862        CT    1  MOL    C862   862  -0.1200000   12.0115
  863        CT    1  MOL    C863   863  -0.1200000   12.0115
  864       CO4    1  MOL    C864   864   0.5100000   12.0115
  865         O    1  MOL    O865   865  -0.4300000   15.9994
  866       HAE    1  MOL    H866   866   0.0300000    1.0080
  867       HAE    1  MOL    H867   867   0.0300000    1.0080
  868        HC    1  MOL    H868   868   0.0600000    1.0080
  869        HC    1  MOL    H869   869   0.0600000    1.0080
  870        HC    1  MOL    H870   870   0.0600000    1.0080
  871        HC    1  MOL    H871   871   0.0600000    1.0080
  872        HC    1  MOL    H872   872   0.0600000    1.0080
  873        HC    1  MOL    H873   873   0.0600000    1.0080
  874        HC    1  MOL    H874   874   0.0600000    1.0080
  875        HC    1  MOL    H875   875   0.0600000    1.0080
  876        HC    1  MOL    H876   876   0.0600000    1.0080
  877        HC    1  MOL    H877   877   0.0600000    1.0080
  878        HC    1  MOL    H878   878   0.0600000    1.0080
  879        HC    1  MOL    H879   879   0.0600000    1.0080
  880        HC    1  MOL    H880   880   0.0600000    1.0080
  881        HC    1  MOL    H881   881   0.0600000    1.0080
  882        HC    1  MOL    H882   882   0.0600000    1.0080
  883        HC    1  MOL    H883   883   0.0600000    1.0080
  884       HAE    1  MOL    H884   884   0.0300000    1.0080
  885       HAE    1  MOL    H885   885   0.0300000    1.0080
  886       HAE    1  MOL    H886   886   0.0600000    1.0080
  887       HAE    1  MOL    H887   887   0.0600000    1.0080
  888        HC    1  MOL    H888   888   0.0600000    1.0080
  889        HC    1  MOL    H889   889   0.0600000    1.0080
  890        HC    1  MOL    H890   890   0.0600000    1.0080
  891        HC    1  MOL    H891   891   0.0600000    1.0080
  892        HC    1  MOL    H892   892   0.0600000    1.0080
  893        HC    1  MOL    H893   893   0.0600000    1.0080
  894        HC    1  MOL    H894   894   0.0600000    1.0080
  895        HC    1  MOL    H895   895   0.0600000    1.0080
  896        HC    1  MOL    H896   896   0.0600000    1.0080
  897        HC    1  MOL    H897   897   0.0600000    1.0080
  898        HC    1  MOL    H898   898   0.0600000    1.0080
  899        HC    1  MOL    H899   899   0.0600000    1.0080
  900       HAE    1  MOL    H900   900   0.0600000    1.0080
  901       HAE    1  MOL    H901   901   0.0600000    1.0080
  902       OES    1  MOL    O902   902  -0.3300000   15.9994
  903        CT    1  MOL    C903   903   0.1900000   12.0115
  904        CT    1  MOL    C904   904  -0.1200000   12.0115
  905        CT    1  MOL    C905   905  -0.1200000   12.0115
  906        CT    1  MOL    C906   906  -0.1200000   12.0115
  907        CT    1  MOL    C907   907  -0.1200000   12.0115
  908        CT    1  MOL    C908   908  -0.1200000   12.0115
  909        CT    1  MOL    C909   909  -0.1200000   12.0115
  910        CT    1  MOL    C910   910  -0.1200000   12.0115
  911        CT    1  MOL    C911   911  -0.1200000   12.0115
  912        CT    1  MOL    C912   912   0.1900000   12.0115
  913       OES    1  MOL    O913   913  -0.3300000   15.9994
  914       CO4    1  MOL    C914   914   0.5100000   12.0115
  915         O    1  MOL    O915   915  -0.4300000   15.9994
  916        CT    1  MOL    C916   916  -0.1200000   12.0115
  917        CT    1  MOL    C917   917  -0.1200000   12.0115
  918        CT    1  MOL    C918   918  -0.1200000   12.0115
  919        CT    1  MOL    C919   919  -0.1200000   12.0115
  920        CT    1  MOL    C920   920  -0.1200000   12.0115
  921        CT    1  MOL    C921   921  -0.1200000   12.0115
  922        CT    1  MOL    C922   922  -0.1200000   12.0115
  923        CT    1  MOL    C923   923  -0.1200000   12.0115
  924       CO4    1  MOL    C924   924   0.5100000   12.0115
  925         O    1  MOL    O925   925  -0.4300000   15.9994
  926       HAE    1  MOL    H926   926   0.0300000    1.0080
  927       HAE    1  MOL    H927   927   0.0300000    1.0080
  928        HC    1  MOL    H928   928   0.0600000    1.0080
  929        HC    1  MOL    H929   929   0.0600000    1.0080
  930        HC    1  MOL    H930   930   0.0600000    1.0080
  931        HC    1  MOL    H931   931   0.0600000    1.0080
  932        HC    1  MOL    H932   932   0.0600000    1.0080
  933        HC    1  MOL    H933   933   0.0600000    1.0080
  934        HC    1  MOL    H934   934   0.0600000    1.0080
  935        HC    1  MOL    H935   935   0.0600000    1.0080
  936        HC    1  MOL    H936   936   0.0600000    1.0080
  937        HC    1  MOL    H937   937   0.0600000    1.0080
  938        HC    1  MOL    H938   938   0.0600000    1.0080
  939        HC    1  MOL    H939   939   0.0600000    1.0080
  940        HC    1  MOL    H940   940   0.0600000    1.0080
  941        HC    1  MOL    H941   941   0.0600000    1.0080
  942        HC    1  MOL    H942   942   0.0600000    1.0080
  943        HC    1  MOL    H943   943   0.0600000    1.0080
  944       HAE    1  MOL    H944   944   0.0300000    1.0080
  945       HAE    1  MOL    H945   945   0.0300000    1.0080
  946       HAE    1  MOL    H946   946   0.0600000    1.0080
  947       HAE    1  MOL    H947   947   0.0600000    1.0080
  948        HC    1  MOL    H948   948   0.0600000    1.0080
  949        HC    1  MOL    H949   949   0.0600000    1.0080
  950        HC    1  MOL    H950   950   0.0600000    1.0080
  951        HC    1  MOL    H951   951   0.0600000    1.0080
  952        HC    1  MOL    H952   952   0.0600000    1.0080
  953        HC    1  MOL    H953   953   0.0600000    1.0080
  954        HC    1  MOL    H954   954   0.0600000    1.0080
  955        HC    1  MOL    H955   955   0.0600000    1.0080
  956        HC    1  MOL    H956   956   0.0600000    1.0080
  957        HC    1  MOL    H957   957   0.0600000    1.0080
  958        HC    1  MOL    H958   958   0.0600000    1.0080
  959        HC    1  MOL    H959   959   0.0600000    1.0080
  960       HAE    1  MOL    H960   960   0.0600000    1.0080
  961       HAE    1  MOL    H961   961   0.0600000    1.0080
  962       OES    1  MOL    O962   962  -0.3300000   15.9994
  963        CT    1  MOL    C963   963   0.1900000   12.0115
  964        CT    1  MOL    C964   964  -0.1200000   12.0115
  965        CT    1  MOL    C965   965  -0.1200000   12.0115
  966        CT    1  MOL    C966   966  -0.1200000   12.0115
  967        CT    1  MOL    C967   967  -0.1200000   12.0115
  968        CT    1  MOL    C968   968  -0.1200000   12.0115
  969        CT    1  MOL    C969   969  -0.1200000   12.0115
  970        CT    1  MOL    C970   970  -0.1200000   12.0115
  971        CT    1  MOL    C971   971  -0.1200000   12.0115
  972        CT    1  MOL    C972   972   0.1900000   12.0115
  973       OES    1  MOL    O973   973  -0.3300000   15.9994
  974       CO4    1  MOL    C974   974   0.5100000   12.0115
  975         O    1  MOL    O975   975  -0.4300000   15.9994
  976        CT    1  MOL    C976   976  -0.1200000   12.0115
  977        CT    1  MOL    C977   977  -0.1200000   12.0115
  978        CT    1  MOL    C978   978  -0.1200000   12.0115
  979        CT    1  MOL    C979   979  -0.1200000   12.0115
  980        CT    1  MOL    C980   980  -0.1200000   12.0115
  981        CT    1  MOL    C981   981  -0.1200000   12.0115
  982        CT    1  MOL    C982   982  -0.1200000   12.0115
  983        CT    1  MOL    C983   983  -0.1200000   12.0115
  984       CO4    1  MOL    C984   984   0.5100000   12.0115
  985         O    1  MOL    O985   985  -0.4300000   15.9994
  986       HAE    1  MOL    H986   986   0.0300000    1.0080
  987       HAE    1  MOL    H987   987   0.0300000    1.0080
  988        HC    1  MOL    H988   988   0.0600000    1.0080
  989        HC    1  MOL    H989   989   0.0600000    1.0080
  990        HC    1  MOL    H990   990   0.0600000    1.0080
  991        HC    1  MOL    H991   991   0.0600000    1.0080
  992        HC    1  MOL    H992   992   0.0600000    1.0080
  993        HC    1  MOL    H993   993   0.0600000    1.0080
  994        HC    1  MOL    H994   994   0.0600000    1.0080
  995        HC    1  MOL    H995   995   0.0600000    1.0080
  996        HC    1  MOL    H996   996   0.0600000    1.0080
  997        HC    1  MOL    H997   997   0.0600000    1.0080
  998        HC    1  MOL    H998   998   0.0600000    1.0080
  999        HC    1  MOL    H999   999   0.0600000    1.0080
 1000        HC    1  MOL      H1  1000   0.0600000    1.0080
 1001        HC    1  MOL      H2  1001   0.0600000    1.0080
 1002        HC    1  MOL      H3  1002   0.0600000    1.0080
 1003        HC    1  MOL      H4  1003   0.0600000    1.0080
 1004       HAE    1  MOL      H5  1004   0.0300000    1.0080
 1005       HAE    1  MOL      H6  1005   0.0300000    1.0080
 1006       HAE    1  MOL      H7  1006   0.0600000    1.0080
 1007       HAE    1  MOL      H8  1007   0.0600000    1.0080
 1008        HC    1  MOL      H9  1008   0.0600000    1.0080
 1009        HC    1  MOL     H10  1009   0.0600000    1.0080
 1010        HC    1  MOL     H11  1010   0.0600000    1.0080
 1011        HC    1  MOL     H12  1011   0.0600000    1.0080
 1012        HC    1  MOL     H13  1012   0.0600000    1.0080
 1013        HC    1  MOL     H14  1013   0.0600000    1.0080
 1014        HC    1  MOL     H15  1014   0.0600000    1.0080
 1015        HC    1  MOL     H16  1015   0.0600000    1.0080
 1016        HC    1  MOL     H17  1016   0.0600000    1.0080
 1017        HC    1  MOL     H18  1017   0.0600000    1.0080
 1018        HC    1  MOL     H19  1018   0.0600000    1.0080
 1019        HC    1  MOL     H20  1019   0.0600000    1.0080
 1020       HAE    1  MOL     H21  1020   0.0600000    1.0080
 1021       HAE    1  MOL     H22  1021   0.0600000    1.0080
 1022       OES    1  MOL     O23  1022  -0.3300000   15.9994
 1023        CT    1  MOL     C24  1023   0.1900000   12.0115
 1024        CT    1  MOL     C25  1024  -0.1200000   12.0115
 1025        CT    1  MOL     C26  1025  -0.1200000   12.0115
 1026        CT    1  MOL     C27  1026  -0.1200000   12.0115
 1027        CT    1  MOL     C28  1027  -0.1200000   12.0115
 1028        CT    1  MOL     C29  1028  -0.1200000   12.0115
 1029        CT    1  MOL     C30  1029  -0.1200000   12.0115
 1030        CT    1  MOL     C31  1030  -0.1200000   12.0115
 1031        CT    1  MOL     C32  1031  -0.1200000   12.0115
 1032        CT    1  MOL     C33  1032   0.1900000   12.0115
 1033       OES    1  MOL     O34  1033  -0.3300000   15.9994
 1034       CO4    1  MOL     C35  1034   0.5100000   12.0115
 1035         O    1  MOL     O36  1035  -0.4300000   15.9994
 1036        CT    1  MOL     C37  1036  -0.1200000   12.0115
 1037        CT    1  MOL     C38  1037  -0.1200000   12.0115
 1038        CT    1  MOL     C39  1038  -0.1200000   12.0115
 1039        CT    1  MOL     C40  1039  -0.1200000   12.0115
 1040        CT    1  MOL     C41  1040  -0.1200000   12.0115
 1041        CT    1  MOL     C42  1041  -0.1200000   12.0115
 1042        CT    1  MOL     C43  1042  -0.1200000   12.0115
 1043        CT    1  MOL     C44  1043  -0.1200000   12.0115
 1044       CO4    1  MOL     C45  1044   0.5100000   12.0115
 1045         O    1  MOL     O46  1045  -0.4300000   15.9994
 1046       HAE    1  MOL     H47  1046   0.0300000    1.0080
 1047       HAE    1  MOL     H48  1047   0.0300000    1.0080
 1048        HC    1  MOL     H49  1048   0.0600000    1.0080
 1049        HC    1  MOL     H50  1049   0.0600000    1.0080
 1050        HC    1  MOL     H51  1050   0.0600000    1.0080
 1051        HC    1  MOL     H52  1051   0.0600000    1.0080
 1052        HC    1  MOL     H53  1052   0.0600000    1.0080
 1053        HC    1  MOL     H54  1053   0.0600000    1.0080
 1054        HC    1  MOL     H55  1054   0.0600000    1.0080
 1055        HC    1  MOL     H56  1055   0.0600000    1.0080
 1056        HC    1  MOL     H57  1056   0.0600000    1.0080
 1057        HC    1  MOL     H58  1057   0.0600000    1.0080
 1058        HC    1  MOL     H59  1058   0.0600000    1.0080
 1059        HC    1  MOL     H60  1059   0.0600000    1.0080
 1060        HC    1  MOL     H61  1060   0.0600000    1.0080
 1061        HC    1  MOL     H62  1061   0.0600000    1.0080
 1062        HC    1  MOL     H63  1062   0.0600000    1.0080
 1063        HC    1  MOL     H64  1063   0.0600000    1.0080
 1064       HAE    1  MOL     H65  1064   0.0300000    1.0080
 1065       HAE    1  MOL     H66  1065   0.0300000    1.0080
 1066       HAE    1  MOL     H67  1066   0.0600000    1.0080
 1067       HAE    1  MOL     H68  1067   0.0600000    1.0080
 1068        HC    1  MOL     H69  1068   0.0600000    1.0080
 1069        HC    1  MOL     H70  1069   0.0600000    1.0080
 1070        HC    1  MOL     H71  1070   0.0600000    1.0080
 1071        HC    1  MOL     H72  1071   0.0600000    1.0080
 1072        HC    1  MOL     H73  1072   0.0600000    1.0080
 1073        HC    1  MOL     H74  1073   0.0600000    1.0080
 1074        HC    1  MOL     H75  1074   0.0600000    1.0080
 1075        HC    1  MOL     H76  1075   0.0600000    1.0080
 1076        HC    1  MOL     H77  1076   0.0600000    1.0080
 1077        HC    1  MOL     H78  1077   0.0600000    1.0080
 1078        HC    1  MOL     H79  1078   0.0600000    1.0080
 1079        HC    1  MOL     H80  1079   0.0600000    1.0080
 1080       HAE    1  MOL     H81  1080   0.0600000    1.0080
 1081       HAE    1  MOL     H82  1081   0.0600000    1.0080
 1082       OES    1  MOL     O83  1082  -0.3300000   15.9994
 1083        CT    1  MOL     C84  1083   0.1900000   12.0115
 1084        CT    1  MOL     C85  1084  -0.1200000   12.0115
 1085        CT    1  MOL     C86  1085  -0.1200000   12.0115
 1086        CT    1  MOL     C87  1086  -0.1200000   12.0115
 1087        CT    1  MOL     C88  1087  -0.1200000   12.0115
 1088        CT    1  MOL     C89  1088  -0.1200000   12.0115
 1089        CT    1  MOL     C90  1089  -0.1200000   12.0115
 1090        CT    1  MOL     C91  1090  -0.1200000   12.0115
 1091        CT    1  MOL     C92  1091  -0.1200000   12.0115
 1092        CT    1  MOL     C93  1092   0.1900000   12.0115
 1093       OES    1  MOL     O94  1093  -0.3300000   15.9994
 1094       CO4    1  MOL     C95  1094   0.5100000   12.0115
 1095         O    1  MOL     O96  1095  -0.4300000   15.9994
 1096        CT    1  MOL     C97  1096  -0.1200000   12.0115
 1097        CT    1  MOL     C98  1097  -0.1200000   12.0115
 1098        CT    1  MOL     C99  1098  -0.1200000   12.0115
 1099        CT    1  MOL    C100  1099  -0.1200000   12.0115
 1100        CT    1  MOL    C101  1100  -0.1200000   12.0115
 1101        CT    1  MOL    C102  1101  -0.1200000   12.0115
 1102        CT    1  MOL    C103  1102  -0.1200000   12.0115
 1103        CT    1  MOL    C104  1103  -0.1200000   12.0115
 1104       CO4    1  MOL    C105  1104   0.5100000   12.0115
 1105         O    1  MOL    O106  1105  -0.4300000   15.9994
 1106       HAE    1  MOL    H107  1106   0.0300000    1.0080
 1107       HAE    1  MOL    H108  1107   0.0300000    1.0080
 1108        HC    1  MOL    H109  1108   0.0600000    1.0080
 1109        HC    1  MOL    H110  1109   0.0600000    1.0080
 1110        HC    1  MOL    H111  1110   0.0600000    1.0080
 1111        HC    1  MOL    H112  1111   0.0600000    1.0080
 1112        HC    1  MOL    H113  1112   0.0600000    1.0080
 1113        HC    1  MOL    H114  1113   0.0600000    1.0080
 1114        HC    1  MOL    H115  1114   0.0600000    1.0080
 1115        HC    1  MOL    H116  1115   0.0600000    1.0080
 1116        HC    1  MOL    H117  1116   0.0600000    1.0080
 1117        HC    1  MOL    H118  1117   0.0600000    1.0080
 1118        HC    1  MOL    H119  1118   0.0600000    1.0080
 1119        HC    1  MOL    H120  1119   0.0600000    1.0080
 1120        HC    1  MOL    H121  1120   0.0600000    1.0080
 1121        HC    1  MOL    H122  1121   0.0600000    1.0080
 1122        HC    1  MOL    H123  1122   0.0600000    1.0080
 1123        HC    1  MOL    H124  1123   0.0600000    1.0080
 1124       HAE    1  MOL    H125  1124   0.0300000    1.0080
 1125       HAE    1  MOL    H126  1125   0.0300000    1.0080
 1126       HAE    1  MOL    H127  1126   0.0600000    1.0080
 1127       HAE    1  MOL    H128  1127   0.0600000    1.0080
 1128        HC    1  MOL    H129  1128   0.0600000    1.0080
 1129        HC    1  MOL    H130  1129   0.0600000    1.0080
 1130        HC    1  MOL    H131  1130   0.0600000    1.0080
 1131        HC    1  MOL    H132  1131   0.0600000    1.0080
 1132        HC    1  MOL    H133  1132   0.0600000    1.0080
 1133        HC    1  MOL    H134  1133   0.0600000    1.0080
 1134        HC    1  MOL    H135  1134   0.0600000    1.0080
 1135        HC    1  MOL    H136  1135   0.0600000    1.0080
 1136        HC    1  MOL    H137  1136   0.0600000    1.0080
 1137        HC    1  MOL    H138  1137   0.0600000    1.0080
 1138        HC    1  MOL    H139  1138   0.0600000    1.0080
 1139        HC    1  MOL    H140  1139   0.0600000    1.0080
 1140       HAE    1  MOL    H141  1140   0.0600000    1.0080
 1141       HAE    1  MOL    H142  1141   0.0600000    1.0080
 1142       OES    1  MOL    O143  1142  -0.3300000   15.9994
 1143        CT    1  MOL    C144  1143   0.1900000   12.0115
 1144        CT    1  MOL    C145  1144  -0.1200000   12.0115
 1145        CT    1  MOL    C146  1145  -0.1200000   12.0115
 1146        CT    1  MOL    C147  1146  -0.1200000   12.0115
 1147        CT    1  MOL    C148  1147  -0.1200000   12.0115
 1148        CT    1  MOL    C149  1148  -0.1200000   12.0115
 1149        CT    1  MOL    C150  1149  -0.1200000   12.0115
 1150        CT    1  MOL    C151  1150  -0.1200000   12.0115
 1151        CT    1  MOL    C152  1151  -0.1200000   12.0115
 1152        CT    1  MOL    C153  1152   0.1900000   12.0115
 1153       OES    1  MOL    O154  1153  -0.3300000   15.9994
 1154       CO4    1  MOL    C155  1154   0.5100000   12.0115
 1155         O    1  MOL    O156  1155  -0.4300000   15.9994
 1156        CT    1  MOL    C157  1156  -0.1200000   12.0115
 1157        CT    1  MOL    C158  1157  -0.1200000   12.0115
 1158        CT    1  MOL    C159  1158  -0.1200000   12.0115
 1159        CT    1  MOL    C160  1159  -0.1200000   12.0115
 1160        CT    1  MOL    C161  1160  -0.1200000   12.0115
 1161        CT    1  MOL    C162  1161  -0.1200000   12.0115
 1162        CT    1  MOL    C163  1162  -0.1200000   12.0115
 1163        CT    1  MOL    C164  1163  -0.1200000   12.0115
 1164       CO4    1  MOL    C165  1164   0.4500000   12.0115
 1165         O    1  MOL    O166  1165  -0.4500000   15.9994
 1166       HAE    1  MOL    H167  1166   0.0300000    1.0080
 1167       HAE    1  MOL    H168  1167   0.0300000    1.0080
 1168        HC    1  MOL    H169  1168   0.0600000    1.0080
 1169        HC    1  MOL    H170  1169   0.0600000    1.0080
 1170        HC    1  MOL    H171  1170   0.0600000    1.0080
 1171        HC    1  MOL    H172  1171   0.0600000    1.0080
 1172        HC    1  MOL    H173  1172   0.0600000    1.0080
 1173        HC    1  MOL    H174  1173   0.0600000    1.0080
 1174        HC    1  MOL    H175  1174   0.0600000    1.0080
 1175        HC    1  MOL    H176  1175   0.0600000    1.0080
 1176        HC    1  MOL    H177  1176   0.0600000    1.0080
 1177        HC    1  MOL    H178  1177   0.0600000    1.0080
 1178        HC    1  MOL    H179  1178   0.0600000    1.0080
 1179        HC    1  MOL    H180  1179   0.0600000    1.0080
 1180        HC    1  MOL    H181  1180   0.0600000    1.0080
 1181        HC    1  MOL    H182  1181   0.0600000    1.0080
 1182        HC    1  MOL    H183  1182   0.0600000    1.0080
 1183        HC    1  MOL    H184  1183   0.0600000    1.0080
 1184       HAE    1  MOL    H185  1184   0.0300000    1.0080
 1185       HAE    1  MOL    H186  1185   0.0300000    1.0080
 1186       HAE    1  MOL    H187  1186   0.0600000    1.0080
 1187       HAE    1  MOL    H188  1187   0.0600000    1.0080
 1188        HC    1  MOL    H189  1188   0.0600000    1.0080
 1189        HC    1  MOL    H190  1189   0.0600000    1.0080
 1190        HC    1  MOL    H191  1190   0.0600000    1.0080
 1191        HC    1  MOL    H192  1191   0.0600000    1.0080
 1192        HC    1  MOL    H193  1192   0.0600000    1.0080
 1193        HC    1  MOL    H194  1193   0.0600000    1.0080
 1194        HC    1  MOL    H195  1194   0.0600000    1.0080
 1195        HC    1  MOL    H196  1195   0.0600000    1.0080
 1196        HC    1  MOL    H197  1196   0.0600000    1.0080
 1197        HC    1  MOL    H198  1197   0.0600000    1.0080
 1198        HC    1  MOL    H199  1198   0.0600000    1.0080
 1199        HC    1  MOL    H200  1199   0.0600000    1.0080
 1200       HAE    1  MOL    H201  1200   0.0600000    1.0080
 1201       HAE    1  MOL    H202  1201   0.0600000    1.0080
 1202       HAE    1  MOL    H203  1202   0.0000000    1.0080

[ bonds ]
      1      2   1      0.1410 267776.0000
      1     61   1      0.0945 462750.4000
      2      3   1      0.1529 224262.4000
      2     25   1      0.1090 284512.0000
      2     26   1      0.1090 284512.0000
      3      4   1      0.1529 224262.4000
      3     27   1      0.1090 284512.0000
      3     28   1      0.1090 284512.0000
      4      5   1      0.1529 224262.4000
      4     29   1      0.1090 284512.0000
      4     30   1      0.1090 284512.0000
      5      6   1      0.1529 224262.4000
      5     31   1      0.1090 284512.0000
      5     32   1      0.1090 284512.0000
      6      7   1      0.1529 224262.4000
      6     33   1      0.1090 284512.0000
      6     34   1      0.1090 284512.0000
      7      8   1      0.1529 224262.4000
      7     35   1      0.1090 284512.0000
      7     36   1      0.1090 284512.0000
      8      9   1      0.1529 224262.4000
      8     37   1      0.1090 284512.0000
      8     38   1      0.1090 284512.0000
      9     10   1      0.1529 224262.4000
      9     39   1      0.1090 284512.0000
      9     40   1      0.1090 284512.0000
     10     11   1      0.1529 224262.4000
     10     41   1      0.1090 284512.0000
     10     42   1      0.1090 284512.0000
     11     12   1      0.1410 267776.0000
     11     43   1      0.1090 284512.0000
     11     44   1      0.1090 284512.0000
     12     13   1      0.1327 179075.2000
     13     14   1      0.1229 476976.0000
     13     15   1      0.1522 265265.6000
     15     16   1      0.1529 224262.4000
     15     45   1      0.1090 284512.0000
     15     46   1      0.1090 284512.0000
     16     17   1      0.1529 224262.4000
     16     47   1      0.1090 284512.0000
     16     48   1      0.1090 284512.0000
     17     18   1      0.1529 224262.4000
     17     49   1      0.1090 284512.0000
     17     50   1      0.1090 284512.0000
     18     19   1      0.1529 224262.4000
     18     51   1      0.1090 284512.0000
     18     52   1      0.1090 284512.0000
     19     20   1      0.1529 224262.4000
     19     53   1      0.1090 284512.0000
     19     54   1      0.1090 284512.0000
     20     21   1      0.1529 224262.4000
     20     55   1      0.1090 284512.0000
     20     56   1      0.1090 284512.0000
     21     22   1      0.1529 224262.4000
     21     57   1      0.1090 284512.0000
     21     58   1      0.1090 284512.0000
     22     23   1      0.1522 265265.6000
     22     59   1      0.1090 284512.0000
     22     60   1      0.1090 284512.0000
     23     24   1      0.1229 476976.0000
     23     62   1      0.1327 179075.2000
     62     63   1      0.1410 267776.0000
     63     64   1      0.1529 224262.4000
     63     86   1      0.1090 284512.0000
     63     87   1      0.1090 284512.0000
     64     65   1      0.1529 224262.4000
     64     88   1      0.1090 284512.0000
     64     89   1      0.1090 284512.0000
     65     66   1      0.1529 224262.4000
     65     90   1      0.1090 284512.0000
     65     91   1      0.1090 284512.0000
     66     67   1      0.1529 224262.4000
     66     92   1      0.1090 284512.0000
     66     93   1      0.1090 284512.0000
     67     68   1      0.1529 224262.4000
     67     94   1      0.1090 284512.0000
     67     95   1      0.1090 284512.0000
     68     69   1      0.1529 224262.4000
     68     96   1      0.1090 284512.0000
     68     97   1      0.1090 284512.0000
     69     70   1      0.1529 224262.4000
     69     98   1      0.1090 284512.0000
     69     99   1      0.1090 284512.0000
     70     71   1      0.1529 224262.4000
     70    100   1      0.1090 284512.0000
     70    101   1      0.1090 284512.0000
     71     72   1      0.1529 224262.4000
     71    102   1      0.1090 284512.0000
     71    103   1      0.1090 284512.0000
     72     73   1      0.1410 267776.0000
     72    104   1      0.1090 284512.0000
     72    105   1      0.1090 284512.0000
     73     74   1      0.1327 179075.2000
     74     75   1      0.1229 476976.0000
     74     76   1      0.1522 265265.6000
     76     77   1      0.1529 224262.4000
     76    106   1      0.1090 284512.0000
     76    107   1      0.1090 284512.0000
     77     78   1      0.1529 224262.4000
     77    108   1      0.1090 284512.0000
     77    109   1      0.1090 284512.0000
     78     79   1      0.1529 224262.4000
     78    110   1      0.1090 284512.0000
     78    111   1      0.1090 284512.0000
     79     80   1      0.1529 224262.4000
     79    112   1      0.1090 284512.0000
     79    113   1      0.1090 284512.0000
     80     81   1      0.1529 224262.4000
     80    114   1      0.1090 284512.0000
     80    115   1      0.1090 284512.0000
     81     82   1      0.1529 224262.4000
     81    116   1      0.1090 284512.0000
     81    117   1      0.1090 284512.0000
     82     83   1      0.1529 224262.4000
     82    118   1      0.1090 284512.0000
     82    119   1      0.1090 284512.0000
     83     84   1      0.1522 265265.6000
     83    120   1      0.1090 284512.0000
     83    121   1      0.1090 284512.0000
     84     85   1      0.1229 476976.0000
     84    122   1      0.1327 179075.2000
    122    123   1      0.1410 267776.0000
    123    124   1      0.1529 224262.4000
    123    146   1      0.1090 284512.0000
    123    147   1      0.1090 284512.0000
    124    125   1      0.1529 224262.4000
    124    148   1      0.1090 284512.0000
    124    149   1      0.1090 284512.0000
    125    126   1      0.1529 224262.4000
    125    150   1      0.1090 284512.0000
    125    151   1      0.1090 284512.0000
    126    127   1      0.1529 224262.4000
    126    152   1      0.1090 284512.0000
    126    153   1      0.1090 284512.0000
    127    128   1      0.1529 224262.4000
    127    154   1      0.1090 284512.0000
    127    155   1      0.1090 284512.0000
    128    129   1      0.1529 224262.4000
    128    156   1      0.1090 284512.0000
    128    157   1      0.1090 284512.0000
    129    130   1      0.1529 224262.4000
    129    158   1      0.1090 284512.0000
    129    159   1      0.1090 284512.0000
    130    131   1      0.1529 224262.4000
    130    160   1      0.1090 284512.0000
    130    161   1      0.1090 284512.0000
    131    132   1      0.1529 224262.4000
    131    162   1      0.1090 284512.0000
    131    163   1      0.1090 284512.0000
    132    133   1      0.1410 267776.0000
    132    164   1      0.1090 284512.0000
    132    165   1      0.1090 284512.0000
    133    134   1      0.1327 179075.2000
    134    135   1      0.1229 476976.0000
    134    136   1      0.1522 265265.6000
    136    137   1      0.1529 224262.4000
    136    166   1      0.1090 284512.0000
    136    167   1      0.1090 284512.0000
    137    138   1      0.1529 224262.4000
    137    168   1      0.1090 284512.0000
    137    169   1      0.1090 284512.0000
    138    139   1      0.1529 224262.4000
    138    170   1      0.1090 284512.0000
    138    171   1      0.1090 284512.0000
    139    140   1      0.1529 224262.4000
    139    172   1      0.1090 284512.0000
    139    173   1      0.1090 284512.0000
    140    141   1      0.1529 224262.4000
    140    174   1      0.1090 284512.0000
    140    175   1      0.1090 284512.0000
    141    142   1      0.1529 224262.4000
    141    176   1      0.1090 284512.0000
    141    177   1      0.1090 284512.0000
    142    143   1      0.1529 224262.4000
    142    178   1      0.1090 284512.0000
    142    179   1      0.1090 284512.0000
    143    144   1      0.1522 265265.6000
    143    180   1      0.1090 284512.0000
    143    181   1      0.1090 284512.0000
    144    145   1      0.1229 476976.0000
    144    182   1      0.1327 179075.2000
    182    183   1      0.1410 267776.0000
    183    184   1      0.1529 224262.4000
    183    206   1      0.1090 284512.0000
    183    207   1      0.1090 284512.0000
    184    185   1      0.1529 224262.4000
    184    208   1      0.1090 284512.0000
    184    209   1      0.1090 284512.0000
    185    186   1      0.1529 224262.4000
    185    210   1      0.1090 284512.0000
    185    211   1      0.1090 284512.0000
    186    187   1      0.1529 224262.4000
    186    212   1      0.1090 284512.0000
    186    213   1      0.1090 284512.0000
    187    188   1      0.1529 224262.4000
    187    214   1      0.1090 284512.0000
    187    215   1      0.1090 284512.0000
    188    189   1      0.1529 224262.4000
    188    216   1      0.1090 284512.0000
    188    217   1      0.1090 284512.0000
    189    190   1      0.1529 224262.4000
    189    218   1      0.1090 284512.0000
    189    219   1      0.1090 284512.0000
    190    191   1      0.1529 224262.4000
    190    220   1      0.1090 284512.0000
    190    221   1      0.1090 284512.0000
    191    192   1      0.1529 224262.4000
    191    222   1      0.1090 284512.0000
    191    223   1      0.1090 284512.0000
    192    193   1      0.1410 267776.0000
    192    224   1      0.1090 284512.0000
    192    225   1      0.1090 284512.0000
    193    194   1      0.1327 179075.2000
    194    195   1      0.1229 476976.0000
    194    196   1      0.1522 265265.6000
    196    197   1      0.1529 224262.4000
    196    226   1      0.1090 284512.0000
    196    227   1      0.1090 284512.0000
    197    198   1      0.1529 224262.4000
    197    228   1      0.1090 284512.0000
    197    229   1      0.1090 284512.0000
    198    199   1      0.1529 224262.4000
    198    230   1      0.1090 284512.0000
    198    231   1      0.1090 284512.0000
    199    200   1      0.1529 224262.4000
    199    232   1      0.1090 284512.0000
    199    233   1      0.1090 284512.0000
    200    201   1      0.1529 224262.4000
    200    234   1      0.1090 284512.0000
    200    235   1      0.1090 284512.0000
    201    202   1      0.1529 224262.4000
    201    236   1      0.1090 284512.0000
    201    237   1      0.1090 284512.0000
    202    203   1      0.1529 224262.4000
    202    238   1      0.1090 284512.0000
    202    239   1      0.1090 284512.0000
    203    204   1      0.1522 265265.6000
    203    240   1      0.1090 284512.0000
    203    241   1      0.1090 284512.0000
    204    205   1      0.1229 476976.0000
    204    242   1      0.1327 179075.2000
    242    243   1      0.1410 267776.0000
    243    244   1      0.1529 224262.4000
    243    266   1      0.1090 284512.0000
    243    267   1      0.1090 284512.0000
    244    245   1      0.1529 224262.4000
    244    268   1      0.1090 284512.0000
    244    269   1      0.1090 284512.0000
    245    246   1      0.1529 224262.4000
    245    270   1      0.1090 284512.0000
    245    271   1      0.1090 284512.0000
    246    247   1      0.1529 224262.4000
    246    272   1      0.1090 284512.0000
    246    273   1      0.1090 284512.0000
    247    248   1      0.1529 224262.4000
    247    274   1      0.1090 284512.0000
    247    275   1      0.1090 284512.0000
    248    249   1      0.1529 224262.4000
    248    276   1      0.1090 284512.0000
    248    277   1      0.1090 284512.0000
    249    250   1      0.1529 224262.4000
    249    278   1      0.1090 284512.0000
    249    279   1      0.1090 284512.0000
    250    251   1      0.1529 224262.4000
    250    280   1      0.1090 284512.0000
    250    281   1      0.1090 284512.0000
    251    252   1      0.1529 224262.4000
    251    282   1      0.1090 284512.0000
    251    283   1      0.1090 284512.0000
    252    253   1      0.1410 267776.0000
    252    284   1      0.1090 284512.0000
    252    285   1      0.1090 284512.0000
    253    254   1      0.1327 179075.2000
    254    255   1      0.1229 476976.0000
    254    256   1      0.1522 265265.6000
    256    257   1      0.1529 224262.4000
    256    286   1      0.1090 284512.0000
    256    287   1      0.1090 284512.0000
    257    258   1      0.1529 224262.4000
    257    288   1      0.1090 284512.0000
    257    289   1      0.1090 284512.0000
    258    259   1      0.1529 224262.4000
    258    290   1      0.1090 284512.0000
    258    291   1      0.1090 284512.0000
    259    260   1      0.1529 224262.4000
    259    292   1      0.1090 284512.0000
    259    293   1      0.1090 284512.0000
    260    261   1      0.1529 224262.4000
    260    294   1      0.1090 284512.0000
    260    295   1      0.1090 284512.0000
    261    262   1      0.1529 224262.4000
    261    296   1      0.1090 284512.0000
    261    297   1      0.1090 284512.0000
    262    263   1      0.1529 224262.4000
    262    298   1      0.1090 284512.0000
    262    299   1      0.1090 284512.0000
    263    264   1      0.1522 265265.6000
    263    300   1      0.1090 284512.0000
    263    301   1      0.1090 284512.0000
    264    265   1      0.1229 476976.0000
    264    302   1      0.1327 179075.2000
    302    303   1      0.1410 267776.0000
    303    304   1      0.1529 224262.4000
    303    326   1      0.1090 284512.0000
    303    327   1      0.1090 284512.0000
    304    305   1      0.1529 224262.4000
    304    328   1      0.1090 284512.0000
    304    329   1      0.1090 284512.0000
    305    306   1      0.1529 224262.4000
    305    330   1      0.1090 284512.0000
    305    331   1      0.1090 284512.0000
    306    307   1      0.1529 224262.4000
    306    332   1      0.1090 284512.0000
    306    333   1      0.1090 284512.0000
    307    308   1      0.1529 224262.4000
    307    334   1      0.1090 284512.0000
    307    335   1      0.1090 284512.0000
    308    309   1      0.1529 224262.4000
    308    336   1      0.1090 284512.0000
    308    337   1      0.1090 284512.0000
    309    310   1      0.1529 224262.4000
    309    338   1      0.1090 284512.0000
    309    339   1      0.1090 284512.0000
    310    311   1      0.1529 224262.4000
    310    340   1      0.1090 284512.0000
    310    341   1      0.1090 284512.0000
    311    312   1      0.1529 224262.4000
    311    342   1      0.1090 284512.0000
    311    343   1      0.1090 284512.0000
    312    313   1      0.1410 267776.0000
    312    344   1      0.1090 284512.0000
    312    345   1      0.1090 284512.0000
    313    314   1      0.1327 179075.2000
    314    315   1      0.1229 476976.0000
    314    316   1      0.1522 265265.6000
    316    317   1      0.1529 224262.4000
    316    346   1      0.1090 284512.0000
    316    347   1      0.1090 284512.0000
    317    318   1      0.1529 224262.4000
    317    348   1      0.1090 284512.0000
    317    349   1      0.1090 284512.0000
    318    319   1      0.1529 224262.4000
    318    350   1      0.1090 284512.0000
    318    351   1      0.1090 284512.0000
    319    320   1      0.1529 224262.4000
    319    352   1      0.1090 284512.0000
    319    353   1      0.1090 284512.0000
    320    321   1      0.1529 224262.4000
    320    354   1      0.1090 284512.0000
    320    355   1      0.1090 284512.0000
    321    322   1      0.1529 224262.4000
    321    356   1      0.1090 284512.0000
    321    357   1      0.1090 284512.0000
    322    323   1      0.1529 224262.4000
    322    358   1      0.1090 284512.0000
    322    359   1      0.1090 284512.0000
    323    324   1      0.1522 265265.6000
    323    360   1      0.1090 284512.0000
    323    361   1      0.1090 284512.0000
    324    325   1      0.1229 476976.0000
    324    362   1      0.1327 179075.2000
    362    363   1      0.1410 267776.0000
    363    364   1      0.1529 224262.4000
    363    386   1      0.1090 284512.0000
    363    387   1      0.1090 284512.0000
    364    365   1      0.1529 224262.4000
    364    388   1      0.1090 284512.0000
    364    389   1      0.1090 284512.0000
    365    366   1      0.1529 224262.4000
    365    390   1      0.1090 284512.0000
    365    391   1      0.1090 284512.0000
    366    367   1      0.1529 224262.4000
    366    392   1      0.1090 284512.0000
    366    393   1      0.1090 284512.0000
    367    368   1      0.1529 224262.4000
    367    394   1      0.1090 284512.0000
    367    395   1      0.1090 284512.0000
    368    369   1      0.1529 224262.4000
    368    396   1      0.1090 284512.0000
    368    397   1      0.1090 284512.0000
    369    370   1      0.1529 224262.4000
    369    398   1      0.1090 284512.0000
    369    399   1      0.1090 284512.0000
    370    371   1      0.1529 224262.4000
    370    400   1      0.1090 284512.0000
    370    401   1      0.1090 284512.0000
    371    372   1      0.1529 224262.4000
    371    402   1      0.1090 284512.0000
    371    403   1      0.1090 284512.0000
    372    373   1      0.1410 267776.0000
    372    404   1      0.1090 284512.0000
    372    405   1      0.1090 284512.0000
    373    374   1      0.1327 179075.2000
    374    375   1      0.1229 476976.0000
    374    376   1      0.1522 265265.6000
    376    377   1      0.1529 224262.4000
    376    406   1      0.1090 284512.0000
    376    407   1      0.1090 284512.0000
    377    378   1      0.1529 224262.4000
    377    408   1      0.1090 284512.0000
    377    409   1      0.1090 284512.0000
    378    379   1      0.1529 224262.4000
    378    410   1      0.1090 284512.0000
    378    411   1      0.1090 284512.0000
    379    380   1      0.1529 224262.4000
    379    412   1      0.1090 284512.0000
    379    413   1      0.1090 284512.0000
    380    381   1      0.1529 224262.4000
    380    414   1      0.1090 284512.0000
    380    415   1      0.1090 284512.0000
    381    382   1      0.1529 224262.4000
    381    416   1      0.1090 284512.0000
    381    417   1      0.1090 284512.0000
    382    383   1      0.1529 224262.4000
    382    418   1      0.1090 284512.0000
    382    419   1      0.1090 284512.0000
    383    384   1      0.1522 265265.6000
    383    420   1      0.1090 284512.0000
    383    421   1      0.1090 284512.0000
    384    385   1      0.1229 476976.0000
    384    422   1      0.1327 179075.2000
    422    423   1      0.1410 267776.0000
    423    424   1      0.1529 224262.4000
    423    446   1      0.1090 284512.0000
    423    447   1      0.1090 284512.0000
    424    425   1      0.1529 224262.4000
    424    448   1      0.1090 284512.0000
    424    449   1      0.1090 284512.0000
    425    426   1      0.1529 224262.4000
    425    450   1      0.1090 284512.0000
    425    451   1      0.1090 284512.0000
    426    427   1      0.1529 224262.4000
    426    452   1      0.1090 284512.0000
    426    453   1      0.1090 284512.0000
    427    428   1      0.1529 224262.4000
    427    454   1      0.1090 284512.0000
    427    455   1      0.1090 284512.0000
    428    429   1      0.1529 224262.4000
    428    456   1      0.1090 284512.0000
    428    457   1      0.1090 284512.0000
    429    430   1      0.1529 224262.4000
    429    458   1      0.1090 284512.0000
    429    459   1      0.1090 284512.0000
    430    431   1      0.1529 224262.4000
    430    460   1      0.1090 284512.0000
    430    461   1      0.1090 284512.0000
    431    432   1      0.1529 224262.4000
    431    462   1      0.1090 284512.0000
    431    463   1      0.1090 284512.0000
    432    433   1      0.1410 267776.0000
    432    464   1      0.1090 284512.0000
    432    465   1      0.1090 284512.0000
    433    434   1      0.1327 179075.2000
    434    435   1      0.1229 476976.0000
    434    436   1      0.1522 265265.6000
    436    437   1      0.1529 224262.4000
    436    466   1      0.1090 284512.0000
    436    467   1      0.1090 284512.0000
    437    438   1      0.1529 224262.4000
    437    468   1      0.1090 284512.0000
    437    469   1      0.1090 284512.0000
    438    439   1      0.1529 224262.4000
    438    470   1      0.1090 284512.0000
    438    471   1      0.1090 284512.0000
    439    440   1      0.1529 224262.4000
    439    472   1      0.1090 284512.0000
    439    473   1      0.1090 284512.0000
    440    441   1      0.1529 224262.4000
    440    474   1      0.1090 284512.0000
    440    475   1      0.1090 284512.0000
    441    442   1      0.1529 224262.4000
    441    476   1      0.1090 284512.0000
    441    477   1      0.1090 284512.0000
    442    443   1      0.1529 224262.4000
    442    478   1      0.1090 284512.0000
    442    479   1      0.1090 284512.0000
    443    444   1      0.1522 265265.6000
    443    480   1      0.1090 284512.0000
    443    481   1      0.1090 284512.0000
    444    445   1      0.1229 476976.0000
    444    482   1      0.1327 179075.2000
    482    483   1      0.1410 267776.0000
    483    484   1      0.1529 224262.4000
    483    506   1      0.1090 284512.0000
    483    507   1      0.1090 284512.0000
    484    485   1      0.1529 224262.4000
    484    508   1      0.1090 284512.0000
    484    509   1      0.1090 284512.0000
    485    486   1      0.1529 224262.4000
    485    510   1      0.1090 284512.0000
    485    511   1      0.1090 284512.0000
    486    487   1      0.1529 224262.4000
    486    512   1      0.1090 284512.0000
    486    513   1      0.1090 284512.0000
    487    488   1      0.1529 224262.4000
    487    514   1      0.1090 284512.0000
    487    515   1      0.1090 284512.0000
    488    489   1      0.1529 224262.4000
    488    516   1      0.1090 284512.0000
    488    517   1      0.1090 284512.0000
    489    490   1      0.1529 224262.4000
    489    518   1      0.1090 284512.0000
    489    519   1      0.1090 284512.0000
    490    491   1      0.1529 224262.4000
    490    520   1      0.1090 284512.0000
    490    521   1      0.1090 284512.0000
    491    492   1      0.1529 224262.4000
    491    522   1      0.1090 284512.0000
    491    523   1      0.1090 284512.0000
    492    493   1      0.1410 267776.0000
    492    524   1      0.1090 284512.0000
    492    525   1      0.1090 284512.0000
    493    494   1      0.1327 179075.2000
    494    495   1      0.1229 476976.0000
    494    496   1      0.1522 265265.6000
    496    497   1      0.1529 224262.4000
    496    526   1      0.1090 284512.0000
    496    527   1      0.1090 284512.0000
    497    498   1      0.1529 224262.4000
    497    528   1      0.1090 284512.0000
    497    529   1      0.1090 284512.0000
    498    499   1      0.1529 224262.4000
    498    530   1      0.1090 284512.0000
    498    531   1      0.1090 284512.0000
    499    500   1      0.1529 224262.4000
    499    532   1      0.1090 284512.0000
    499    533   1      0.1090 284512.0000
    500    501   1      0.1529 224262.4000
    500    534   1      0.1090 284512.0000
    500    535   1      0.1090 284512.0000
    501    502   1      0.1529 224262.4000
    501    536   1      0.1090 284512.0000
    501    537   1      0.1090 284512.0000
    502    503   1      0.1529 224262.4000
    502    538   1      0.1090 284512.0000
    502    539   1      0.1090 284512.0000
    503    504   1      0.1522 265265.6000
    503    540   1      0.1090 284512.0000
    503    541   1      0.1090 284512.0000
    504    505   1      0.1229 476976.0000
    504    542   1      0.1327 179075.2000
    542    543   1      0.1410 267776.0000
    543    544   1      0.1529 224262.4000
    543    566   1      0.1090 284512.0000
    543    567   1      0.1090 284512.0000
    544    545   1      0.1529 224262.4000
    544    568   1      0.1090 284512.0000
    544    569   1      0.1090 284512.0000
    545    546   1      0.1529 224262.4000
    545    570   1      0.1090 284512.0000
    545    571   1      0.1090 284512.0000
    546    547   1      0.1529 224262.4000
    546    572   1      0.1090 284512.0000
    546    573   1      0.1090 284512.0000
    547    548   1      0.1529 224262.4000
    547    574   1      0.1090 284512.0000
    547    575   1      0.1090 284512.0000
    548    549   1      0.1529 224262.4000
    548    576   1      0.1090 284512.0000
    548    577   1      0.1090 284512.0000
    549    550   1      0.1529 224262.4000
    549    578   1      0.1090 284512.0000
    549    579   1      0.1090 284512.0000
    550    551   1      0.1529 224262.4000
    550    580   1      0.1090 284512.0000
    550    581   1      0.1090 284512.0000
    551    552   1      0.1529 224262.4000
    551    582   1      0.1090 284512.0000
    551    583   1      0.1090 284512.0000
    552    553   1      0.1410 267776.0000
    552    584   1      0.1090 284512.0000
    552    585   1      0.1090 284512.0000
    553    554   1      0.1327 179075.2000
    554    555   1      0.1229 476976.0000
    554    556   1      0.1522 265265.6000
    556    557   1      0.1529 224262.4000
    556    586   1      0.1090 284512.0000
    556    587   1      0.1090 284512.0000
    557    558   1      0.1529 224262.4000
    557    588   1      0.1090 284512.0000
    557    589   1      0.1090 284512.0000
    558    559   1      0.1529 224262.4000
    558    590   1      0.1090 284512.0000
    558    591   1      0.1090 284512.0000
    559    560   1      0.1529 224262.4000
    559    592   1      0.1090 284512.0000
    559    593   1      0.1090 284512.0000
    560    561   1      0.1529 224262.4000
    560    594   1      0.1090 284512.0000
    560    595   1      0.1090 284512.0000
    561    562   1      0.1529 224262.4000
    561    596   1      0.1090 284512.0000
    561    597   1      0.1090 284512.0000
    562    563   1      0.1529 224262.4000
    562    598   1      0.1090 284512.0000
    562    599   1      0.1090 284512.0000
    563    564   1      0.1522 265265.6000
    563    600   1      0.1090 284512.0000
    563    601   1      0.1090 284512.0000
    564    565   1      0.1229 476976.0000
    564    602   1      0.1327 179075.2000
    602    603   1      0.1410 267776.0000
    603    604   1      0.1529 224262.4000
    603    626   1      0.1090 284512.0000
    603    627   1      0.1090 284512.0000
    604    605   1      0.1529 224262.4000
    604    628   1      0.1090 284512.0000
    604    629   1      0.1090 284512.0000
    605    606   1      0.1529 224262.4000
    605    630   1      0.1090 284512.0000
    605    631   1      0.1090 284512.0000
    606    607   1      0.1529 224262.4000
    606    632   1      0.1090 284512.0000
    606    633   1      0.1090 284512.0000
    607    608   1      0.1529 224262.4000
    607    634   1      0.1090 284512.0000
    607    635   1      0.1090 284512.0000
    608    609   1      0.1529 224262.4000
    608    636   1      0.1090 284512.0000
    608    637   1      0.1090 284512.0000
    609    610   1      0.1529 224262.4000
    609    638   1      0.1090 284512.0000
    609    639   1      0.1090 284512.0000
    610    611   1      0.1529 224262.4000
    610    640   1      0.1090 284512.0000
    610    641   1      0.1090 284512.0000
    611    612   1      0.1529 224262.4000
    611    642   1      0.1090 284512.0000
    611    643   1      0.1090 284512.0000
    612    613   1      0.1410 267776.0000
    612    644   1      0.1090 284512.0000
    612    645   1      0.1090 284512.0000
    613    614   1      0.1327 179075.2000
    614    615   1      0.1229 476976.0000
    614    616   1      0.1522 265265.6000
    616    617   1      0.1529 224262.4000
    616    646   1      0.1090 284512.0000
    616    647   1      0.1090 284512.0000
    617    618   1      0.1529 224262.4000
    617    648   1      0.1090 284512.0000
    617    649   1      0.1090 284512.0000
    618    619   1      0.1529 224262.4000
    618    650   1      0.1090 284512.0000
    618    651   1      0.1090 284512.0000
    619    620   1      0.1529 224262.4000
    619    652   1      0.1090 284512.0000
    619    653   1      0.1090 284512.0000
    620    621   1      0.1529 224262.4000
    620    654   1      0.1090 284512.0000
    620    655   1      0.1090 284512.0000
    621    622   1      0.1529 224262.4000
    621    656   1      0.1090 284512.0000
    621    657   1      0.1090 284512.0000
    622    623   1      0.1529 224262.4000
    622    658   1      0.1090 284512.0000
    622    659   1      0.1090 284512.0000
    623    624   1      0.1522 265265.6000
    623    660   1      0.1090 284512.0000
    623    661   1      0.1090 284512.0000
    624    625   1      0.1229 476976.0000
    624    662   1      0.1327 179075.2000
    662    663   1      0.1410 267776.0000
    663    664   1      0.1529 224262.4000
    663    686   1      0.1090 284512.0000
    663    687   1      0.1090 284512.0000
    664    665   1      0.1529 224262.4000
    664    688   1      0.1090 284512.0000
    664    689   1      0.1090 284512.0000
    665    666   1      0.1529 224262.4000
    665    690   1      0.1090 284512.0000
    665    691   1      0.1090 284512.0000
    666    667   1      0.1529 224262.4000
    666    692   1      0.1090 284512.0000
    666    693   1      0.1090 284512.0000
    667    668   1      0.1529 224262.4000
    667    694   1      0.1090 284512.0000
    667    695   1      0.1090 284512.0000
    668    669   1      0.1529 224262.4000
    668    696   1      0.1090 284512.0000
    668    697   1      0.1090 284512.0000
    669    670   1      0.1529 224262.4000
    669    698   1      0.1090 284512.0000
    669    699   1      0.1090 284512.0000
    670    671   1      0.1529 224262.4000
    670    700   1      0.1090 284512.0000
    670    701   1      0.1090 284512.0000
    671    672   1      0.1529 224262.4000
    671    702   1      0.1090 284512.0000
    671    703   1      0.1090 284512.0000
    672    673   1      0.1410 267776.0000
    672    704   1      0.1090 284512.0000
    672    705   1      0.1090 284512.0000
    673    674   1      0.1327 179075.2000
    674    675   1      0.1229 476976.0000
    674    676   1      0.1522 265265.6000
    676    677   1      0.1529 224262.4000
    676    706   1      0.1090 284512.0000
    676    707   1      0.1090 284512.0000
    677    678   1      0.1529 224262.4000
    677    708   1      0.1090 284512.0000
    677    709   1      0.1090 284512.0000
    678    679   1      0.1529 224262.4000
    678    710   1      0.1090 284512.0000
    678    711   1      0.1090 284512.0000
    679    680   1      0.1529 224262.4000
    679    712   1      0.1090 284512.0000
    679    713   1      0.1090 284512.0000
    680    681   1      0.1529 224262.4000
    680    714   1      0.1090 284512.0000
    680    715   1      0.1090 284512.0000
    681    682   1      0.1529 224262.4000
    681    716   1      0.1090 284512.0000
    681    717   1      0.1090 284512.0000
    682    683   1      0.1529 224262.4000
    682    718   1      0.1090 284512.0000
    682    719   1      0.1090 284512.0000
    683    684   1      0.1522 265265.6000
    683    720   1      0.1090 284512.0000
    683    721   1      0.1090 284512.0000
    684    685   1      0.1229 476976.0000
    684    722   1      0.1327 179075.2000
    722    723   1      0.1410 267776.0000
    723    724   1      0.1529 224262.4000
    723    746   1      0.1090 284512.0000
    723    747   1      0.1090 284512.0000
    724    725   1      0.1529 224262.4000
    724    748   1      0.1090 284512.0000
    724    749   1      0.1090 284512.0000
    725    726   1      0.1529 224262.4000
    725    750   1      0.1090 284512.0000
    725    751   1      0.1090 284512.0000
    726    727   1      0.1529 224262.4000
    726    752   1      0.1090 284512.0000
    726    753   1      0.1090 284512.0000
    727    728   1      0.1529 224262.4000
    727    754   1      0.1090 284512.0000
    727    755   1      0.1090 284512.0000
    728    729   1      0.1529 224262.4000
    728    756   1      0.1090 284512.0000
    728    757   1      0.1090 284512.0000
    729    730   1      0.1529 224262.4000
    729    758   1      0.1090 284512.0000
    729    759   1      0.1090 284512.0000
    730    731   1      0.1529 224262.4000
    730    760   1      0.1090 284512.0000
    730    761   1      0.1090 284512.0000
    731    732   1      0.1529 224262.4000
    731    762   1      0.1090 284512.0000
    731    763   1      0.1090 284512.0000
    732    733   1      0.1410 267776.0000
    732    764   1      0.1090 284512.0000
    732    765   1      0.1090 284512.0000
    733    734   1      0.1327 179075.2000
    734    735   1      0.1229 476976.0000
    734    736   1      0.1522 265265.6000
    736    737   1      0.1529 224262.4000
    736    766   1      0.1090 284512.0000
    736    767   1      0.1090 284512.0000
    737    738   1      0.1529 224262.4000
    737    768   1      0.1090 284512.0000
    737    769   1      0.1090 284512.0000
    738    739   1      0.1529 224262.4000
    738    770   1      0.1090 284512.0000
    738    771   1      0.1090 284512.0000
    739    740   1      0.1529 224262.4000
    739    772   1      0.1090 284512.0000
    739    773   1      0.1090 284512.0000
    740    741   1      0.1529 224262.4000
    740    774   1      0.1090 284512.0000
    740    775   1      0.1090 284512.0000
    741    742   1      0.1529 224262.4000
    741    776   1      0.1090 284512.0000
    741    777   1      0.1090 284512.0000
    742    743   1      0.1529 224262.4000
    742    778   1      0.1090 284512.0000
    742    779   1      0.1090 284512.0000
    743    744   1      0.1522 265265.6000
    743    780   1      0.1090 284512.0000
    743    781   1      0.1090 284512.0000
    744    745   1      0.1229 476976.0000
    744    782   1      0.1327 179075.2000
    782    783   1      0.1410 267776.0000
    783    784   1      0.1529 224262.4000
    783    806   1      0.1090 284512.0000
    783    807   1      0.1090 284512.0000
    784    785   1      0.1529 224262.4000
    784    808   1      0.1090 284512.0000
    784    809   1      0.1090 284512.0000
    785    786   1      0.1529 224262.4000
    785    810   1      0.1090 284512.0000
    785    811   1      0.1090 284512.0000
    786    787   1      0.1529 224262.4000
    786    812   1      0.1090 284512.0000
    786    813   1      0.1090 284512.0000
    787    788   1      0.1529 224262.4000
    787    814   1      0.1090 284512.0000
    787    815   1      0.1090 284512.0000
    788    789   1      0.1529 224262.4000
    788    816   1      0.1090 284512.0000
    788    817   1      0.1090 284512.0000
    789    790   1      0.1529 224262.4000
    789    818   1      0.1090 284512.0000
    789    819   1      0.1090 284512.0000
    790    791   1      0.1529 224262.4000
    790    820   1      0.1090 284512.0000
    790    821   1      0.1090 284512.0000
    791    792   1      0.1529 224262.4000
    791    822   1      0.1090 284512.0000
    791    823   1      0.1090 284512.0000
    792    793   1      0.1410 267776.0000
    792    824   1      0.1090 284512.0000
    792    825   1      0.1090 284512.0000
    793    794   1      0.1327 179075.2000
    794    795   1      0.1229 476976.0000
    794    796   1      0.1522 265265.6000
    796    797   1      0.1529 224262.4000
    796    826   1      0.1090 284512.0000
    796    827   1      0.1090 284512.0000
    797    798   1      0.1529 224262.4000
    797    828   1      0.1090 284512.0000
    797    829   1      0.1090 284512.0000
    798    799   1      0.1529 224262.4000
    798    830   1      0.1090 284512.0000
    798    831   1      0.1090 284512.0000
    799    800   1      0.1529 224262.4000
    799    832   1      0.1090 284512.0000
    799    833   1      0.1090 284512.0000
    800    801   1      0.1529 224262.4000
    800    834   1      0.1090 284512.0000
    800    835   1      0.1090 284512.0000
    801    802   1      0.1529 224262.4000
    801    836   1      0.1090 284512.0000
    801    837   1      0.1090 284512.0000
    802    803   1      0.1529 224262.4000
    802    838   1      0.1090 284512.0000
    802    839   1      0.1090 284512.0000
    803    804   1      0.1522 265265.6000
    803    840   1      0.1090 284512.0000
    803    841   1      0.1090 284512.0000
    804    805   1      0.1229 476976.0000
    804    842   1      0.1327 179075.2000
    842    843   1      0.1410 267776.0000
    843    844   1      0.1529 224262.4000
    843    866   1      0.1090 284512.0000
    843    867   1      0.1090 284512.0000
    844    845   1      0.1529 224262.4000
    844    868   1      0.1090 284512.0000
    844    869   1      0.1090 284512.0000
    845    846   1      0.1529 224262.4000
    845    870   1      0.1090 284512.0000
    845    871   1      0.1090 284512.0000
    846    847   1      0.1529 224262.4000
    846    872   1      0.1090 284512.0000
    846    873   1      0.1090 284512.0000
    847    848   1      0.1529 224262.4000
    847    874   1      0.1090 284512.0000
    847    875   1      0.1090 284512.0000
    848    849   1      0.1529 224262.4000
    848    876   1      0.1090 284512.0000
    848    877   1      0.1090 284512.0000
    849    850   1      0.1529 224262.4000
    849    878   1      0.1090 284512.0000
    849    879   1      0.1090 284512.0000
    850    851   1      0.1529 224262.4000
    850    880   1      0.1090 284512.0000
    850    881   1      0.1090 284512.0000
    851    852   1      0.1529 224262.4000
    851    882   1      0.1090 284512.0000
    851    883   1      0.1090 284512.0000
    852    853   1      0.1410 267776.0000
    852    884   1      0.1090 284512.0000
    852    885   1      0.1090 284512.0000
    853    854   1      0.1327 179075.2000
    854    855   1      0.1229 476976.0000
    854    856   1      0.1522 265265.6000
    856    857   1      0.1529 224262.4000
    856    886   1      0.1090 284512.0000
    856    887   1      0.1090 284512.0000
    857    858   1      0.1529 224262.4000
    857    888   1      0.1090 284512.0000
    857    889   1      0.1090 284512.0000
    858    859   1      0.1529 224262.4000
    858    890   1      0.1090 284512.0000
    858    891   1      0.1090 284512.0000
    859    860   1      0.1529 224262.4000
    859    892   1      0.1090 284512.0000
    859    893   1      0.1090 284512.0000
    860    861   1      0.1529 224262.4000
    860    894   1      0.1090 284512.0000
    860    895   1      0.1090 284512.0000
    861    862   1      0.1529 224262.4000
    861    896   1      0.1090 284512.0000
    861    897   1      0.1090 284512.0000
    862    863   1      0.1529 224262.4000
    862    898   1      0.1090 284512.0000
    862    899   1      0.1090 284512.0000
    863    864   1      0.1522 265265.6000
    863    900   1      0.1090 284512.0000
    863    901   1      0.1090 284512.0000
    864    865   1      0.1229 476976.0000
    864    902   1      0.1327 179075.2000
    902    903   1      0.1410 267776.0000
    903    904   1      0.1529 224262.4000
    903    926   1      0.1090 284512.0000
    903    927   1      0.1090 284512.0000
    904    905   1      0.1529 224262.4000
    904    928   1      0.1090 284512.0000
    904    929   1      0.1090 284512.0000
    905    906   1      0.1529 224262.4000
    905    930   1      0.1090 284512.0000
    905    931   1      0.1090 284512.0000
    906    907   1      0.1529 224262.4000
    906    932   1      0.1090 284512.0000
    906    933   1      0.1090 284512.0000
    907    908   1      0.1529 224262.4000
    907    934   1      0.1090 284512.0000
    907    935   1      0.1090 284512.0000
    908    909   1      0.1529 224262.4000
    908    936   1      0.1090 284512.0000
    908    937   1      0.1090 284512.0000
    909    910   1      0.1529 224262.4000
    909    938   1      0.1090 284512.0000
    909    939   1      0.1090 284512.0000
    910    911   1      0.1529 224262.4000
    910    940   1      0.1090 284512.0000
    910    941   1      0.1090 284512.0000
    911    912   1      0.1529 224262.4000
    911    942   1      0.1090 284512.0000
    911    943   1      0.1090 284512.0000
    912    913   1      0.1410 267776.0000
    912    944   1      0.1090 284512.0000
    912    945   1      0.1090 284512.0000
    913    914   1      0.1327 179075.2000
    914    915   1      0.1229 476976.0000
    914    916   1      0.1522 265265.6000
    916    917   1      0.1529 224262.4000
    916    946   1      0.1090 284512.0000
    916    947   1      0.1090 284512.0000
    917    918   1      0.1529 224262.4000
    917    948   1      0.1090 284512.0000
    917    949   1      0.1090 284512.0000
    918    919   1      0.1529 224262.4000
    918    950   1      0.1090 284512.0000
    918    951   1      0.1090 284512.0000
    919    920   1      0.1529 224262.4000
    919    952   1      0.1090 284512.0000
    919    953   1      0.1090 284512.0000
    920    921   1      0.1529 224262.4000
    920    954   1      0.1090 284512.0000
    920    955   1      0.1090 284512.0000
    921    922   1      0.1529 224262.4000
    921    956   1      0.1090 284512.0000
    921    957   1      0.1090 284512.0000
    922    923   1      0.1529 224262.4000
    922    958   1      0.1090 284512.0000
    922    959   1      0.1090 284512.0000
    923    924   1      0.1522 265265.6000
    923    960   1      0.1090 284512.0000
    923    961   1      0.1090 284512.0000
    924    925   1      0.1229 476976.0000
    924    962   1      0.1327 179075.2000
    962    963   1      0.1410 267776.0000
    963    964   1      0.1529 224262.4000
    963    986   1      0.1090 284512.0000
    963    987   1      0.1090 284512.0000
    964    965   1      0.1529 224262.4000
    964    988   1      0.1090 284512.0000
    964    989   1      0.1090 284512.0000
    965    966   1      0.1529 224262.4000
    965    990   1      0.1090 284512.0000
    965    991   1      0.1090 284512.0000
    966    967   1      0.1529 224262.4000
    966    992   1      0.1090 284512.0000
    966    993   1      0.1090 284512.0000
    967    968   1      0.1529 224262.4000
    967    994   1      0.1090 284512.0000
    967    995   1      0.1090 284512.0000
    968    969   1      0.1529 224262.4000
    968    996   1      0.1090 284512.0000
    968    997   1      0.1090 284512.0000
    969    970   1      0.1529 224262.4000
    969    998   1      0.1090 284512.0000
    969    999   1      0.1090 284512.0000
    970    971   1      0.1529 224262.4000
    970   1000   1      0.1090 284512.0000
    970   1001   1      0.1090 284512.0000
    971    972   1      0.1529 224262.4000
    971   1002   1      0.1090 284512.0000
    971   1003   1      0.1090 284512.0000
    972    973   1      0.1410 267776.0000
    972   1004   1      0.1090 284512.0000
    972   1005   1      0.1090 284512.0000
    973    974   1      0.1327 179075.2000
    974    975   1      0.1229 476976.0000
    974    976   1      0.1522 265265.6000
    976    977   1      0.1529 224262.4000
    976   1006   1      0.1090 284512.0000
    976   1007   1      0.1090 284512.0000
    977    978   1      0.1529 224262.4000
    977   1008   1      0.1090 284512.0000
    977   1009   1      0.1090 284512.0000
    978    979   1      0.1529 224262.4000
    978   1010   1      0.1090 284512.0000
    978   1011   1      0.1090 284512.0000
    979    980   1      0.1529 224262.4000
    979   1012   1      0.1090 284512.0000
    979   1013   1      0.1090 284512.0000
    980    981   1      0.1529 224262.4000
    980   1014   1      0.1090 284512.0000
    980   1015   1      0.1090 284512.0000
    981    982   1      0.1529 224262.4000
    981   1016   1      0.1090 284512.0000
    981   1017   1      0.1090 284512.0000
    982    983   1      0.1529 224262.4000
    982   1018   1      0.1090 284512.0000
    982   1019   1      0.1090 284512.0000
    983    984   1      0.1522 265265.6000
    983   1020   1      0.1090 284512.0000
    983   1021   1      0.1090 284512.0000
    984    985   1      0.1229 476976.0000
    984   1022   1      0.1327 179075.2000
   1022   1023   1      0.1410 267776.0000
   1023   1024   1      0.1529 224262.4000
   1023   1046   1      0.1090 284512.0000
   1023   1047   1      0.1090 284512.0000
   1024   1025   1      0.1529 224262.4000
   1024   1048   1      0.1090 284512.0000
   1024   1049   1      0.1090 284512.0000
   1025   1026   1      0.1529 224262.4000
   1025   1050   1      0.1090 284512.0000
   1025   1051   1      0.1090 284512.0000
   1026   1027   1      0.1529 224262.4000
   1026   1052   1      0.1090 284512.0000
   1026   1053   1      0.1090 284512.0000
   1027   1028   1      0.1529 224262.4000
   1027   1054   1      0.1090 284512.0000
   1027   1055   1      0.1090 284512.0000
   1028   1029   1      0.1529 224262.4000
   1028   1056   1      0.1090 284512.0000
   1028   1057   1      0.1090 284512.0000
   1029   1030   1      0.1529 224262.4000
   1029   1058   1      0.1090 284512.0000
   1029   1059   1      0.1090 284512.0000
   1030   1031   1      0.1529 224262.4000
   1030   1060   1      0.1090 284512.0000
   1030   1061   1      0.1090 284512.0000
   1031   1032   1      0.1529 224262.4000
   1031   1062   1      0.1090 284512.0000
   1031   1063   1      0.1090 284512.0000
   1032   1033   1      0.1410 267776.0000
   1032   1064   1      0.1090 284512.0000
   1032   1065   1      0.1090 284512.0000
   1033   1034   1      0.1327 179075.2000
   1034   1035   1      0.1229 476976.0000
   1034   1036   1      0.1522 265265.6000
   1036   1037   1      0.1529 224262.4000
   1036   1066   1      0.1090 284512.0000
   1036   1067   1      0.1090 284512.0000
   1037   1038   1      0.1529 224262.4000
   1037   1068   1      0.1090 284512.0000
   1037   1069   1      0.1090 284512.0000
   1038   1039   1      0.1529 224262.4000
   1038   1070   1      0.1090 284512.0000
   1038   1071   1      0.1090 284512.0000
   1039   1040   1      0.1529 224262.4000
   1039   1072   1      0.1090 284512.0000
   1039   1073   1      0.1090 284512.0000
   1040   1041   1      0.1529 224262.4000
   1040   1074   1      0.1090 284512.0000
   1040   1075   1      0.1090 284512.0000
   1041   1042   1      0.1529 224262.4000
   1041   1076   1      0.1090 284512.0000
   1041   1077   1      0.1090 284512.0000
   1042   1043   1      0.1529 224262.4000
   1042   1078   1      0.1090 284512.0000
   1042   1079   1      0.1090 284512.0000
   1043   1044   1      0.1522 265265.6000
   1043   1080   1      0.1090 284512.0000
   1043   1081   1      0.1090 284512.0000
   1044   1045   1      0.1229 476976.0000
   1044   1082   1      0.1327 179075.2000
   1082   1083   1      0.1410 267776.0000
   1083   1084   1      0.1529 224262.4000
   1083   1106   1      0.1090 284512.0000
   1083   1107   1      0.1090 284512.0000
   1084   1085   1      0.1529 224262.4000
   1084   1108   1      0.1090 284512.0000
   1084   1109   1      0.1090 284512.0000
   1085   1086   1      0.1529 224262.4000
   1085   1110   1      0.1090 284512.0000
   1085   1111   1      0.1090 284512.0000
   1086   1087   1      0.1529 224262.4000
   1086   1112   1      0.1090 284512.0000
   1086   1113   1      0.1090 284512.0000
   1087   1088   1      0.1529 224262.4000
   1087   1114   1      0.1090 284512.0000
   1087   1115   1      0.1090 284512.0000
   1088   1089   1      0.1529 224262.4000
   1088   1116   1      0.1090 284512.0000
   1088   1117   1      0.1090 284512.0000
   1089   1090   1      0.1529 224262.4000
   1089   1118   1      0.1090 284512.0000
   1089   1119   1      0.1090 284512.0000
   1090   1091   1      0.1529 224262.4000
   1090   1120   1      0.1090 284512.0000
   1090   1121   1      0.1090 284512.0000
   1091   1092   1      0.1529 224262.4000
   1091   1122   1      0.1090 284512.0000
   1091   1123   1      0.1090 284512.0000
   1092   1093   1      0.1410 267776.0000
   1092   1124   1      0.1090 284512.0000
   1092   1125   1      0.1090 284512.0000
   1093   1094   1      0.1327 179075.2000
   1094   1095   1      0.1229 476976.0000
   1094   1096   1      0.1522 265265.6000
   1096   1097   1      0.1529 224262.4000
   1096   1126   1      0.1090 284512.0000
   1096   1127   1      0.1090 284512.0000
   1097   1098   1      0.1529 224262.4000
   1097   1128   1      0.1090 284512.0000
   1097   1129   1      0.1090 284512.0000
   1098   1099   1      0.1529 224262.4000
   1098   1130   1      0.1090 284512.0000
   1098   1131   1      0.1090 284512.0000
   1099   1100   1      0.1529 224262.4000
   1099   1132   1      0.1090 284512.0000
   1099   1133   1      0.1090 284512.0000
   1100   1101   1      0.1529 224262.4000
   1100   1134   1      0.1090 284512.0000
   1100   1135   1      0.1090 284512.0000
   1101   1102   1      0.1529 224262.4000
   1101   1136   1      0.1090 284512.0000
   1101   1137   1      0.1090 284512.0000
   1102   1103   1      0.1529 224262.4000
   1102   1138   1      0.1090 284512.0000
   1102   1139   1      0.1090 284512.0000
   1103   1104   1      0.1522 265265.6000
   1103   1140   1      0.1090 284512.0000
   1103   1141   1      0.1090 284512.0000
   1104   1105   1      0.1229 476976.0000
   1104   1142   1      0.1327 179075.2000
   1142   1143   1      0.1410 267776.0000
   1143   1144   1      0.1529 224262.4000
   1143   1166   1      0.1090 284512.0000
   1143   1167   1      0.1090 284512.0000
   1144   1145   1      0.1529 224262.4000
   1144   1168   1      0.1090 284512.0000
   1144   1169   1      0.1090 284512.0000
   1145   1146   1      0.1529 224262.4000
   1145   1170   1      0.1090 284512.0000
   1145   1171   1      0.1090 284512.0000
   1146   1147   1      0.1529 224262.4000
   1146   1172   1      0.1090 284512.0000
   1146   1173   1      0.1090 284512.0000
   1147   1148   1      0.1529 224262.4000
   1147   1174   1      0.1090 284512.0000
   1147   1175   1      0.1090 284512.0000
   1148   1149   1      0.1529 224262.4000
   1148   1176   1      0.1090 284512.0000
   1148   1177   1      0.1090 284512.0000
   1149   1150   1      0.1529 224262.4000
   1149   1178   1      0.1090 284512.0000
   1149   1179   1      0.1090 284512.0000
   1150   1151   1      0.1529 224262.4000
   1150   1180   1      0.1090 284512.0000
   1150   1181   1      0.1090 284512.0000
   1151   1152   1      0.1529 224262.4000
   1151   1182   1      0.1090 284512.0000
   1151   1183   1      0.1090 284512.0000
   1152   1153   1      0.1410 267776.0000
   1152   1184   1      0.1090 284512.0000
   1152   1185   1      0.1090 284512.0000
   1153   1154   1      0.1327 179075.2000
   1154   1155   1      0.1229 476976.0000
   1154   1156   1      0.1522 265265.6000
   1156   1157   1      0.1529 224262.4000
   1156   1186   1      0.1090 284512.0000
   1156   1187   1      0.1090 284512.0000
   1157   1158   1      0.1529 224262.4000
   1157   1188   1      0.1090 284512.0000
   1157   1189   1      0.1090 284512.0000
   1158   1159   1      0.1529 224262.4000
   1158   1190   1      0.1090 284512.0000
   1158   1191   1      0.1090 284512.0000
   1159   1160   1      0.1529 224262.4000
   1159   1192   1      0.1090 284512.0000
   1159   1193   1      0.1090 284512.0000
   1160   1161   1      0.1529 224262.4000
   1160   1194   1      0.1090 284512.0000
   1160   1195   1      0.1090 284512.0000
   1161   1162   1      0.1529 224262.4000
   1161   1196   1      0.1090 284512.0000
   1161   1197   1      0.1090 284512.0000
   1162   1163   1      0.1529 224262.4000
   1162   1198   1      0.1090 284512.0000
   1162   1199   1      0.1090 284512.0000
   1163   1164   1      0.1522 265265.6000
   1163   1200   1      0.1090 284512.0000
   1163   1201   1      0.1090 284512.0000
   1164   1165   1      0.1229 476976.0000
   1164   1202   1      0.1090 284512.0000

[ pairs ]
; ai   aj   funct   fudge_QQ  charge_i   charge_j   c6    c12
     61      3   2   0.50000     0.4180000   -0.1200000   1.995577e-06  1.069504e-11
     61     25   2   0.50000     0.4180000    0.0600000   4.903125e-07  9.576416e-13
     61     26   2   0.50000     0.4180000    0.0600000   4.903125e-07  9.576416e-13
      1      4   2   0.50000    -0.6830000   -0.1200000   1.154213e-03  1.502983e-06
      1     27   2   0.50000    -0.6830000    0.0600000   2.835898e-04  1.345781e-07
      1     28   2   0.50000    -0.6830000    0.0600000   2.835898e-04  1.345781e-07
     25      4   2   0.50000     0.0600000   -0.1200000   2.494471e-04  1.671101e-07
     25     27   2   0.50000     0.0600000    0.0600000   6.128906e-05  1.496315e-08
     25     28   2   0.50000     0.0600000    0.0600000   6.128906e-05  1.496315e-08
     26      4   2   0.50000     0.0600000   -0.1200000   2.494471e-04  1.671101e-07
     26     27   2   0.50000     0.0600000    0.0600000   6.128906e-05  1.496315e-08
     26     28   2   0.50000     0.0600000    0.0600000   6.128906e-05  1.496315e-08
      2      5   2   0.50000     0.1450000   -0.1200000   1.015252e-03  1.866303e-06
      2     29   2   0.50000     0.1450000    0.0600000   2.494471e-04  1.671101e-07
      2     30   2   0.50000     0.1450000    0.0600000   2.494471e-04  1.671101e-07
     27      5   2   0.50000     0.0600000   -0.1200000   2.494471e-04  1.671101e-07
     27     29   2   0.50000     0.0600000    0.0600000   6.128906e-05  1.496315e-08
     27     30   2   0.50000     0.0600000    0.0600000   6.128906e-05  1.496315e-08
     28      5   2   0.50000     0.0600000   -0.1200000   2.494471e-04  1.671101e-07
     28     29   2   0.50000     0.0600000    0.0600000   6.128906e-05  1.496315e-08
     28     30   2   0.50000     0.0600000    0.0600000   6.128906e-05  1.496315e-08
      3      6   2   0.50000    -0.1200000   -0.1200000   1.015252e-03  1.866303e-06
      3     31   2   0.50000    -0.1200000    0.0600000   2.494471e-04  1.671101e-07
      3     32   2   0.50000    -0.1200000    0.0600000   2.494471e-04  1.671101e-07
     29      6   2   0.50000     0.0600000   -0.1200000   2.494471e-04  1.671101e-07
     29     31   2   0.50000     0.0600000    0.0600000   6.128906e-05  1.496315e-08
     29     32   2   0.50000     0.0600000    0.0600000   6.128906e-05  1.496315e-08
     30      6   2   0.50000     0.0600000   -0.1200000   2.494471e-04  1.671101e-07
     30     31   2   0.50000     0.0600000    0.0600000   6.128906e-05  1.496315e-08
     30     32   2   0.50000     0.0600000    0.0600000   6.128906e-05  1.496315e-08
      4      7   2   0.50000    -0.1200000   -0.1200000   1.015252e-03  1.866303e-06
      4     33   2   0.50000    -0.1200000    0.0600000   2.494471e-04  1.671101e-07
      4     34   2   0.50000    -0.1200000    0.0600000   2.494471e-04  1.671101e-07
     31      7   2   0.50000     0.0600000   -0.1200000   2.494471e-04  1.671101e-07
     31     33   2   0.50000     0.0600000    0.0600000   6.128906e-05  1.496315e-08
     31     34   2   0.50000     0.0600000    0.0600000   6.128906e-05  1.496315e-08
     32      7   2   0.50000     0.0600000   -0.1200000   2.494471e-04  1.671101e-07
     32     33   2   0.50000     0.0600000    0.0600000   6.128906e-05  1.496315e-08
     32     34   2   0.50000     0.0600000    0.0600000   6.128906e-05  1.496315e-08
      5      8   2   0.50000    -0.1200000   -0.1200000   1.015252e-03  1.866303e-06
      5     35   2   0.50000    -0.1200000    0.0600000   2.494471e-04  1.671101e-07
      5     36   2   0.50000    -0.1200000    0.0600000   2.494471e-04  1.671101e-07
     33      8   2   0.50000     0.0600000   -0.1200000   2.494471e-04  1.671101e-07
     33     35   2   0.50000     0.0600000    0.0600000   6.128906e-05  1.496315e-08
     33     36   2   0.50000     0.0600000    0.0600000   6.128906e-05  1.496315e-08
     34      8   2   0.50000     0.0600000   -0.1200000   2.494471e-04  1.671101e-07
     34     35   2   0.50000     0.0600000    0.0600000   6.128906e-05  1.496315e-08
     34     36   2   0.50000     0.0600000    0.0600000   6.128906e-05  1.496315e-08
      6      9   2   0.50000    -0.1200000   -0.1200000   1.015252e-03  1.866303e-06
      6     37   2   0.50000    -0.1200000    0.0600000   2.494471e-04  1.671101e-07
      6     38   2   0.50000    -0.1200000    0.0600000   2.494471e-04  1.671101e-07
     35      9   2   0.50000     0.0600000   -0.1200000   2.494471e-04  1.671101e-07
     35     37   2   0.50000     0.0600000    0.0600000   6.128906e-05  1.496315e-08
     35     38   2   0.50000     0.0600000    0.0600000   6.128906e-05  1.496315e-08
     36      9   2   0.50000     0.0600000   -0.1200000   2.494471e-04  1.671101e-07
     36     37   2   0.50000     0.0600000    0.0600000   6.128906e-05  1.496315e-08
     36     38   2   0.50000     0.0600000    0.0600000   6.128906e-05  1.496315e-08
      7     10   2   0.50000    -0.1200000   -0.1200000   1.015252e-03  1.866303e-06
      7     39   2   0.50000    -0.1200000    0.0600000   2.494471e-04  1.671101e-07
      7     40   2   0.50000    -0.1200000    0.0600000   2.494471e-04  1.671101e-07
     37     10   2   0.50000     0.0600000   -0.1200000   2.494471e-04  1.671101e-07
     37     39   2   0.50000     0.0600000    0.0600000   6.128906e-05  1.496315e-08
     37     40   2   0.50000     0.0600000    0.0600000   6.128906e-05  1.496315e-08
     38     10   2   0.50000     0.0600000   -0.1200000   2.494471e-04  1.671101e-07
     38     39   2   0.50000     0.0600000    0.0600000   6.128906e-05  1.496315e-08
     38     40   2   0.50000     0.0600000    0.0600000   6.128906e-05  1.496315e-08
      8     11   2   0.50000    -0.1200000    0.1900000   1.015252e-03  1.866303e-06
      8     41   2   0.50000    -0.1200000    0.0600000   2.494471e-04  1.671101e-07
      8     42   2   0.50000    -0.1200000    0.0600000   2.494471e-04  1.671101e-07
     39     11   2   0.50000     0.0600000    0.1900000   2.494471e-04  1.671101e-07
     39     41   2   0.50000     0.0600000    0.0600000   6.128906e-05  1.496315e-08
     39     42   2   0.50000     0.0600000    0.0600000   6.128906e-05  1.496315e-08
     40     11   2   0.50000     0.0600000    0.1900000   2.494471e-04  1.671101e-07
     40     41   2   0.50000     0.0600000    0.0600000   6.128906e-05  1.496315e-08
     40     42   2   0.50000     0.0600000    0.0600000   6.128906e-05  1.496315e-08
      9     12   2   0.50000    -0.1200000   -0.3300000   1.026091e-03  1.187829e-06
      9     43   2   0.50000    -0.1200000    0.0300000   1.599888e-04  9.721644e-08
      9     44   2   0.50000    -0.1200000    0.0300000   1.599888e-04  9.721644e-08
     41     12   2   0.50000     0.0600000   -0.3300000   2.521103e-04  1.063590e-07
     41     43   2   0.50000     0.0600000    0.0300000   3.930919e-05  8.704828e-09
     41     44   2   0.50000     0.0600000    0.0300000   3.930919e-05  8.704828e-09
     42     12   2   0.50000     0.0600000   -0.3300000   2.521103e-04  1.063590e-07
     42     43   2   0.50000     0.0600000    0.0300000   3.930919e-05  8.704828e-09
     42     44   2   0.50000     0.0600000    0.0300000   3.930919e-05  8.704828e-09
     10     13   2   0.50000    -0.1200000    0.5100000   1.575021e-03  3.561100e-06
     43     13   2   0.50000     0.0300000    0.5100000   2.482000e-04  1.854991e-07
     44     13   2   0.50000     0.0300000    0.5100000   2.482000e-04  1.854991e-07
     11     14   2   0.50000     0.1900000   -0.4300000   1.095425e-03  1.218041e-06
     11     15   2   0.50000     0.1900000   -0.1200000   1.015252e-03  1.866303e-06
     12     16   2   0.50000    -0.3300000   -0.1200000   1.026091e-03  1.187829e-06
     12     45   2   0.50000    -0.3300000    0.0600000   1.616969e-04  6.187447e-08
     12     46   2   0.50000    -0.3300000    0.0600000   1.616969e-04  6.187447e-08
     14     16   2   0.50000    -0.4300000   -0.1200000   1.095425e-03  1.218041e-06
     14     45   2   0.50000    -0.4300000    0.0600000   1.726228e-04  6.344822e-08
     14     46   2   0.50000    -0.4300000    0.0600000   1.726228e-04  6.344822e-08
     13     17   2   0.50000     0.5100000   -0.1200000   1.575021e-03  3.561100e-06
     13     47   2   0.50000     0.5100000    0.0600000   3.869820e-04  3.188634e-07
     13     48   2   0.50000     0.5100000    0.0600000   3.869820e-04  3.188634e-07
     45     17   2   0.50000     0.0600000   -0.1200000   1.599888e-04  9.721644e-08
     45     47   2   0.50000     0.0600000    0.0600000   3.930919e-05  8.704828e-09
     45     48   2   0.50000     0.0600000    0.0600000   3.930919e-05  8.704828e-09
     46     17   2   0.50000     0.0600000   -0.1200000   1.599888e-04  9.721644e-08
     46     47   2   0.50000     0.0600000    0.0600000   3.930919e-05  8.704828e-09
     46     48   2   0.50000     0.0600000    0.0600000   3.930919e-05  8.704828e-09
     15     18   2   0.50000    -0.1200000   -0.1200000   1.015252e-03  1.866303e-06
     15     49   2   0.50000    -0.1200000    0.0600000   2.494471e-04  1.671101e-07
     15     50   2   0.50000    -0.1200000    0.0600000   2.494471e-04  1.671101e-07
     47     18   2   0.50000     0.0600000   -0.1200000   2.494471e-04  1.671101e-07
     47     49   2   0.50000     0.0600000    0.0600000   6.128906e-05  1.496315e-08
     47     50   2   0.50000     0.0600000    0.0600000   6.128906e-05  1.496315e-08
     48     18   2   0.50000     0.0600000   -0.1200000   2.494471e-04  1.671101e-07
     48     49   2   0.50000     0.0600000    0.0600000   6.128906e-05  1.496315e-08
     48     50   2   0.50000     0.0600000    0.0600000   6.128906e-05  1.496315e-08
     16     19   2   0.50000    -0.1200000   -0.1200000   1.015252e-03  1.866303e-06
     16     51   2   0.50000    -0.1200000    0.0600000   2.494471e-04  1.671101e-07
     16     52   2   0.50000    -0.1200000    0.0600000   2.494471e-04  1.671101e-07
     49     19   2   0.50000     0.0600000   -0.1200000   2.494471e-04  1.671101e-07
     49     51   2   0.50000     0.0600000    0.0600000   6.128906e-05  1.496315e-08
     49     52   2   0.50000     0.0600000    0.0600000   6.128906e-05  1.496315e-08
     50     19   2   0.50000     0.0600000   -0.1200000   2.494471e-04  1.671101e-07
     50     51   2   0.50000     0.0600000    0.0600000   6.128906e-05  1.496315e-08
     50     52   2   0.50000     0.0600000    0.0600000   6.128906e-05  1.496315e-08
     17     20   2   0.50000    -0.1200000   -0.1200000   1.015252e-03  1.866303e-06
     17     53   2   0.50000    -0.1200000    0.0600000   2.494471e-04  1.671101e-07
     17     54   2   0.50000    -0.1200000    0.0600000   2.494471e-04  1.671101e-07
     51     20   2   0.50000     0.0600000   -0.1200000   2.494471e-04  1.671101e-07
     51     53   2   0.50000     0.0600000    0.0600000   6.128906e-05  1.496315e-08
     51     54   2   0.50000     0.0600000    0.0600000   6.128906e-05  1.496315e-08
     52     20   2   0.50000     0.0600000   -0.1200000   2.494471e-04  1.671101e-07
     52     53   2   0.50000     0.0600000    0.0600000   6.128906e-05  1.496315e-08
     52     54   2   0.50000     0.0600000    0.0600000   6.128906e-05  1.496315e-08
     18     21   2   0.50000    -0.1200000   -0.1200000   1.015252e-03  1.866303e-06
     18     55   2   0.50000    -0.1200000    0.0600000   2.494471e-04  1.671101e-07
     18     56   2   0.50000    -0.1200000    0.0600000   2.494471e-04  1.671101e-07
     53     21   2   0.50000     0.0600000   -0.1200000   2.494471e-04  1.671101e-07
     53     55   2   0.50000     0.0600000    0.0600000   6.128906e-05  1.496315e-08
     53     56   2   0.50000     0.0600000    0.0600000   6.128906e-05  1.496315e-08
     54     21   2   0.50000     0.0600000   -0.1200000   2.494471e-04  1.671101e-07
     54     55   2   0.50000     0.0600000    0.0600000   6.128906e-05  1.496315e-08
     54     56   2   0.50000     0.0600000    0.0600000   6.128906e-05  1.496315e-08
     19     22   2   0.50000    -0.1200000   -0.1200000   1.015252e-03  1.866303e-06
     19     57   2   0.50000    -0.1200000    0.0600000   2.494471e-04  1.671101e-07
     19     58   2   0.50000    -0.1200000    0.0600000   2.494471e-04  1.671101e-07
     55     22   2   0.50000     0.0600000   -0.1200000   2.494471e-04  1.671101e-07
     55     57   2   0.50000     0.0600000    0.0600000   6.128906e-05  1.496315e-08
     55     58   2   0.50000     0.0600000    0.0600000   6.128906e-05  1.496315e-08
     56     22   2   0.50000     0.0600000   -0.1200000   2.494471e-04  1.671101e-07
     56     57   2   0.50000     0.0600000    0.0600000   6.128906e-05  1.496315e-08
     56     58   2   0.50000     0.0600000    0.0600000   6.128906e-05  1.496315e-08
     20     23   2   0.50000    -0.1200000    0.5100000   1.575021e-03  3.561100e-06
     20     59   2   0.50000    -0.1200000    0.0600000   1.599888e-04  9.721644e-08
     20     60   2   0.50000    -0.1200000    0.0600000   1.599888e-04  9.721644e-08
     57     23   2   0.50000     0.0600000    0.5100000   3.869820e-04  3.188634e-07
     57     59   2   0.50000     0.0600000    0.0600000   3.930919e-05  8.704828e-09
     57     60   2   0.50000     0.0600000    0.0600000   3.930919e-05  8.704828e-09
     58     23   2   0.50000     0.0600000    0.5100000   3.869820e-04  3.188634e-07
     58     59   2   0.50000     0.0600000    0.0600000   3.930919e-05  8.704828e-09
     58     60   2   0.50000     0.0600000    0.0600000   3.930919e-05  8.704828e-09
     21     24   2   0.50000    -0.1200000   -0.4300000   1.095425e-03  1.218041e-06
     21     62   2   0.50000    -0.1200000   -0.3300000   1.026091e-03  1.187829e-06
     59     24   2   0.50000     0.0600000   -0.4300000   1.726228e-04  6.344822e-08
     59     62   2   0.50000     0.0600000   -0.3300000   1.616969e-04  6.187447e-08
     60     24   2   0.50000     0.0600000   -0.4300000   1.726228e-04  6.344822e-08
     60     62   2   0.50000     0.0600000   -0.3300000   1.616969e-04  6.187447e-08
     22     63   2   0.50000    -0.1200000    0.1900000   1.015252e-03  1.866303e-06
     24     63   2   0.50000    -0.4300000    0.1900000   1.095425e-03  1.218041e-06
     23     64   2   0.50000     0.5100000   -0.1200000   1.575021e-03  3.561100e-06
     23     86   2   0.50000     0.5100000    0.0300000   2.482000e-04  1.854991e-07
     23     87   2   0.50000     0.5100000    0.0300000   2.482000e-04  1.854991e-07
     62     65   2   0.50000    -0.3300000   -0.1200000   1.026091e-03  1.187829e-06
     62     88   2   0.50000    -0.3300000    0.0600000   2.521103e-04  1.063590e-07
     62     89   2   0.50000    -0.3300000    0.0600000   2.521103e-04  1.063590e-07
     86     65   2   0.50000     0.0300000   -0.1200000   1.599888e-04  9.721644e-08
     86     88   2   0.50000     0.0300000    0.0600000   3.930919e-05  8.704828e-09
     86     89   2   0.50000     0.0300000    0.0600000   3.930919e-05  8.704828e-09
     87     65   2   0.50000     0.0300000   -0.1200000   1.599888e-04  9.721644e-08
     87     88   2   0.50000     0.0300000    0.0600000   3.930919e-05  8.704828e-09
     87     89   2   0.50000     0.0300000    0.0600000   3.930919e-05  8.704828e-09
     63     66   2   0.50000     0.1900000   -0.1200000   1.015252e-03  1.866303e-06
     63     90   2   0.50000     0.1900000    0.0600000   2.494471e-04  1.671101e-07
     63     91   2   0.50000     0.1900000    0.0600000   2.494471e-04  1.671101e-07
     88     66   2   0.50000     0.0600000   -0.1200000   2.494471e-04  1.671101e-07
     88     90   2   0.50000     0.0600000    0.0600000   6.128906e-05  1.496315e-08
     88     91   2   0.50000     0.0600000    0.0600000   6.128906e-05  1.496315e-08
     89     66   2   0.50000     0.0600000   -0.1200000   2.494471e-04  1.671101e-07
     89     90   2   0.50000     0.0600000    0.0600000   6.128906e-05  1.496315e-08
     89     91   2   0.50000     0.0600000    0.0600000   6.128906e-05  1.496315e-08
     64     67   2   0.50000    -0.1200000   -0.1200000   1.015252e-03  1.866303e-06
     64     92   2   0.50000    -0.1200000    0.0600000   2.494471e-04  1.671101e-07
     64     93   2   0.50000    -0.1200000    0.0600000   2.494471e-04  1.671101e-07
     90     67   2   0.50000     0.0600000   -0.1200000   2.494471e-04  1.671101e-07
     90     92   2   0.50000     0.0600000    0.0600000   6.128906e-05  1.496315e-08
     90     93   2   0.50000     0.0600000    0.0600000   6.128906e-05  1.496315e-08
     91     67   2   0.50000     0.0600000   -0.1200000   2.494471e-04  1.671101e-07
     91     92   2   0.50000     0.0600000    0.0600000   6.128906e-05  1.496315e-08
     91     93   2   0.50000     0.0600000    0.0600000   6.128906e-05  1.496315e-08
     65     68   2   0.50000    -0.1200000   -0.1200000   1.015252e-03  1.866303e-06
     65     94   2   0.50000    -0.1200000    0.0600000   2.494471e-04  1.671101e-07
     65     95   2   0.50000    -0.1200000    0.0600000   2.494471e-04  1.671101e-07
     92     68   2   0.50000     0.0600000   -0.1200000   2.494471e-04  1.671101e-07
     92     94   2   0.50000     0.0600000    0.0600000   6.128906e-05  1.496315e-08
     92     95   2   0.50000     0.0600000    0.0600000   6.128906e-05  1.496315e-08
     93     68   2   0.50000     0.0600000   -0.1200000   2.494471e-04  1.671101e-07
     93     94   2   0.50000     0.0600000    0.0600000   6.128906e-05  1.496315e-08
     93     95   2   0.50000     0.0600000    0.0600000   6.128906e-05  1.496315e-08
     66     69   2   0.50000    -0.1200000   -0.1200000   1.015252e-03  1.866303e-06
     66     96   2   0.50000    -0.1200000    0.0600000   2.494471e-04  1.671101e-07
     66     97   2   0.50000    -0.1200000    0.0600000   2.494471e-04  1.671101e-07
     94     69   2   0.50000     0.0600000   -0.1200000   2.494471e-04  1.671101e-07
     94     96   2   0.50000     0.0600000    0.0600000   6.128906e-05  1.496315e-08
     94     97   2   0.50000     0.0600000    0.0600000   6.128906e-05  1.496315e-08
     95     69   2   0.50000     0.0600000   -0.1200000   2.494471e-04  1.671101e-07
     95     96   2   0.50000     0.0600000    0.0600000   6.128906e-05  1.496315e-08
     95     97   2   0.50000     0.0600000    0.0600000   6.128906e-05  1.496315e-08
     67     70   2   0.50000    -0.1200000   -0.1200000   1.015252e-03  1.866303e-06
     67     98   2   0.50000    -0.1200000    0.0600000   2.494471e-04  1.671101e-07
     67     99   2   0.50000    -0.1200000    0.0600000   2.494471e-04  1.671101e-07
     96     70   2   0.50000     0.0600000   -0.1200000   2.494471e-04  1.671101e-07
     96     98   2   0.50000     0.0600000    0.0600000   6.128906e-05  1.496315e-08
     96     99   2   0.50000     0.0600000    0.0600000   6.128906e-05  1.496315e-08
     97     70   2   0.50000     0.0600000   -0.1200000   2.494471e-04  1.671101e-07
     97     98   2   0.50000     0.0600000    0.0600000   6.128906e-05  1.496315e-08
     97     99   2   0.50000     0.0600000    0.0600000   6.128906e-05  1.496315e-08
     68     71   2   0.50000    -0.1200000   -0.1200000   1.015252e-03  1.866303e-06
     68    100   2   0.50000    -0.1200000    0.0600000   2.494471e-04  1.671101e-07
     68    101   2   0.50000    -0.1200000    0.0600000   2.494471e-04  1.671101e-07
     98     71   2   0.50000     0.0600000   -0.1200000   2.494471e-04  1.671101e-07
     98    100   2   0.50000     0.0600000    0.0600000   6.128906e-05  1.496315e-08
     98    101   2   0.50000     0.0600000    0.0600000   6.128906e-05  1.496315e-08
     99     71   2   0.50000     0.0600000   -0.1200000   2.494471e-04  1.671101e-07
     99    100   2   0.50000     0.0600000    0.0600000   6.128906e-05  1.496315e-08
     99    101   2   0.50000     0.0600000    0.0600000   6.128906e-05  1.496315e-08
     69     72   2   0.50000    -0.1200000    0.1900000   1.015252e-03  1.866303e-06
     69    102   2   0.50000    -0.1200000    0.0600000   2.494471e-04  1.671101e-07
     69    103   2   0.50000    -0.1200000    0.0600000   2.494471e-04  1.671101e-07
    100     72   2   0.50000     0.0600000    0.1900000   2.494471e-04  1.671101e-07
    100    102   2   0.50000     0.0600000    0.0600000   6.128906e-05  1.496315e-08
    100    103   2   0.50000     0.0600000    0.0600000   6.128906e-05  1.496315e-08
    101     72   2   0.50000     0.0600000    0.1900000   2.494471e-04  1.671101e-07
    101    102   2   0.50000     0.0600000    0.0600000   6.128906e-05  1.496315e-08
    101    103   2   0.50000     0.0600000    0.0600000   6.128906e-05  1.496315e-08
     70     73   2   0.50000    -0.1200000   -0.3300000   1.026091e-03  1.187829e-06
     70    104   2   0.50000    -0.1200000    0.0300000   1.599888e-04  9.721644e-08
     70    105   2   0.50000    -0.1200000    0.0300000   1.599888e-04  9.721644e-08
    102     73   2   0.50000     0.0600000   -0.3300000   2.521103e-04  1.063590e-07
    102    104   2   0.50000     0.0600000    0.0300000   3.930919e-05  8.704828e-09
    102    105   2   0.50000     0.0600000    0.0300000   3.930919e-05  8.704828e-09
    103     73   2   0.50000     0.0600000   -0.3300000   2.521103e-04  1.063590e-07
    103    104   2   0.50000     0.0600000    0.0300000   3.930919e-05  8.704828e-09
    103    105   2   0.50000     0.0600000    0.0300000   3.930919e-05  8.704828e-09
     71     74   2   0.50000    -0.1200000    0.5100000   1.575021e-03  3.561100e-06
    104     74   2   0.50000     0.0300000    0.5100000   2.482000e-04  1.854991e-07
    105     74   2   0.50000     0.0300000    0.5100000   2.482000e-04  1.854991e-07
     72     75   2   0.50000     0.1900000   -0.4300000   1.095425e-03  1.218041e-06
     72     76   2   0.50000     0.1900000   -0.1200000   1.015252e-03  1.866303e-06
     73     77   2   0.50000    -0.3300000   -0.1200000   1.026091e-03  1.187829e-06
     73    106   2   0.50000    -0.3300000    0.0600000   1.616969e-04  6.187447e-08
     73    107   2   0.50000    -0.3300000    0.0600000   1.616969e-04  6.187447e-08
     75     77   2   0.50000    -0.4300000   -0.1200000   1.095425e-03  1.218041e-06
     75    106   2   0.50000    -0.4300000    0.0600000   1.726228e-04  6.344822e-08
     75    107   2   0.50000    -0.4300000    0.0600000   1.726228e-04  6.344822e-08
     74     78   2   0.50000     0.5100000   -0.1200000   1.575021e-03  3.561100e-06
     74    108   2   0.50000     0.5100000    0.0600000   3.869820e-04  3.188634e-07
     74    109   2   0.50000     0.5100000    0.0600000   3.869820e-04  3.188634e-07
    106     78   2   0.50000     0.0600000   -0.1200000   1.599888e-04  9.721644e-08
    106    108   2   0.50000     0.0600000    0.0600000   3.930919e-05  8.704828e-09
    106    109   2   0.50000     0.0600000    0.0600000   3.930919e-05  8.704828e-09
    107     78   2   0.50000     0.0600000   -0.1200000   1.599888e-04  9.721644e-08
    107    108   2   0.50000     0.0600000    0.0600000   3.930919e-05  8.704828e-09
    107    109   2   0.50000     0.0600000    0.0600000   3.930919e-05  8.704828e-09
     76     79   2   0.50000    -0.1200000   -0.1200000   1.015252e-03  1.866303e-06
     76    110   2   0.50000    -0.1200000    0.0600000   2.494471e-04  1.671101e-07
     76    111   2   0.50000    -0.1200000    0.0600000   2.494471e-04  1.671101e-07
    108     79   2   0.50000     0.0600000   -0.1200000   2.494471e-04  1.671101e-07
    108    110   2   0.50000     0.0600000    0.0600000   6.128906e-05  1.496315e-08
    108    111   2   0.50000     0.0600000    0.0600000   6.128906e-05  1.496315e-08
    109     79   2   0.50000     0.0600000   -0.1200000   2.494471e-04  1.671101e-07
    109    110   2   0.50000     0.0600000    0.0600000   6.128906e-05  1.496315e-08
    109    111   2   0.50000     0.0600000    0.0600000   6.128906e-05  1.496315e-08
     77     80   2   0.50000    -0.1200000   -0.1200000   1.015252e-03  1.866303e-06
     77    112   2   0.50000    -0.1200000    0.0600000   2.494471e-04  1.671101e-07
     77    113   2   0.50000    -0.1200000    0.0600000   2.494471e-04  1.671101e-07
    110     80   2   0.50000     0.0600000   -0.1200000   2.494471e-04  1.671101e-07
    110    112   2   0.50000     0.0600000    0.0600000   6.128906e-05  1.496315e-08
    110    113   2   0.50000     0.0600000    0.0600000   6.128906e-05  1.496315e-08
    111     80   2   0.50000     0.0600000   -0.1200000   2.494471e-04  1.671101e-07
    111    112   2   0.50000     0.0600000    0.0600000   6.128906e-05  1.496315e-08
    111    113   2   0.50000     0.0600000    0.0600000   6.128906e-05  1.496315e-08
     78     81   2   0.50000    -0.1200000   -0.1200000   1.015252e-03  1.866303e-06
     78    114   2   0.50000    -0.1200000    0.0600000   2.494471e-04  1.671101e-07
     78    115   2   0.50000    -0.1200000    0.0600000   2.494471e-04  1.671101e-07
    112     81   2   0.50000     0.0600000   -0.1200000   2.494471e-04  1.671101e-07
    112    114   2   0.50000     0.0600000    0.0600000   6.128906e-05  1.496315e-08
    112    115   2   0.50000     0.0600000    0.0600000   6.128906e-05  1.496315e-08
    113     81   2   0.50000     0.0600000   -0.1200000   2.494471e-04  1.671101e-07
    113    114   2   0.50000     0.0600000    0.0600000   6.128906e-05  1.496315e-08
    113    115   2   0.50000     0.0600000    0.0600000   6.128906e-05  1.496315e-08
     79     82   2   0.50000    -0.1200000   -0.1200000   1.015252e-03  1.866303e-06
     79    116   2   0.50000    -0.1200000    0.0600000   2.494471e-04  1.671101e-07
     79    117   2   0.50000    -0.1200000    0.0600000   2.494471e-04  1.671101e-07
    114     82   2   0.50000     0.0600000   -0.1200000   2.494471e-04  1.671101e-07
    114    116   2   0.50000     0.0600000    0.0600000   6.128906e-05  1.496315e-08
    114    117   2   0.50000     0.0600000    0.0600000   6.128906e-05  1.496315e-08
    115     82   2   0.50000     0.0600000   -0.1200000   2.494471e-04  1.671101e-07
    115    116   2   0.50000     0.0600000    0.0600000   6.128906e-05  1.496315e-08
    115    117   2   0.50000     0.0600000    0.0600000   6.128906e-05  1.496315e-08
     80     83   2   0.50000    -0.1200000   -0.1200000   1.015252e-03  1.866303e-06
     80    118   2   0.50000    -0.1200000    0.0600000   2.494471e-04  1.671101e-07
     80    119   2   0.50000    -0.1200000    0.0600000   2.494471e-04  1.671101e-07
    116     83   2   0.50000     0.0600000   -0.1200000   2.494471e-04  1.671101e-07
    116    118   2   0.50000     0.0600000    0.0600000   6.128906e-05  1.496315e-08
    116    119   2   0.50000     0.0600000    0.0600000   6.128906e-05  1.496315e-08
    117     83   2   0.50000     0.0600000   -0.1200000   2.494471e-04  1.671101e-07
    117    118   2   0.50000     0.0600000    0.0600000   6.128906e-05  1.496315e-08
    117    119   2   0.50000     0.0600000    0.0600000   6.128906e-05  1.496315e-08
     81     84   2   0.50000    -0.1200000    0.5100000   1.575021e-03  3.561100e-06
     81    120   2   0.50000    -0.1200000    0.0600000   1.599888e-04  9.721644e-08
     81    121   2   0.50000    -0.1200000    0.0600000   1.599888e-04  9.721644e-08
    118     84   2   0.50000     0.0600000    0.5100000   3.869820e-04  3.188634e-07
    118    120   2   0.50000     0.0600000    0.0600000   3.930919e-05  8.704828e-09
    118    121   2   0.50000     0.0600000    0.0600000   3.930919e-05  8.704828e-09
    119     84   2   0.50000     0.0600000    0.5100000   3.869820e-04  3.188634e-07
    119    120   2   0.50000     0.0600000    0.0600000   3.930919e-05  8.704828e-09
    119    121   2   0.50000     0.0600000    0.0600000   3.930919e-05  8.704828e-09
     82     85   2   0.50000    -0.1200000   -0.4300000   1.095425e-03  1.218041e-06
     82    122   2   0.50000    -0.1200000   -0.3300000   1.026091e-03  1.187829e-06
    120     85   2   0.50000     0.0600000   -0.4300000   1.726228e-04  6.344822e-08
    120    122   2   0.50000     0.0600000   -0.3300000   1.616969e-04  6.187447e-08
    121     85   2   0.50000     0.0600000   -0.4300000   1.726228e-04  6.344822e-08
    121    122   2   0.50000     0.0600000   -0.3300000   1.616969e-04  6.187447e-08
     83    123   2   0.50000    -0.1200000    0.1900000   1.015252e-03  1.866303e-06
     85    123   2   0.50000    -0.4300000    0.1900000   1.095425e-03  1.218041e-06
     84    124   2   0.50000     0.5100000   -0.1200000   1.575021e-03  3.561100e-06
     84    146   2   0.50000     0.5100000    0.0300000   2.482000e-04  1.854991e-07
     84    147   2   0.50000     0.5100000    0.0300000   2.482000e-04  1.854991e-07
    122    125   2   0.50000    -0.3300000   -0.1200000   1.026091e-03  1.187829e-06
    122    148   2   0.50000    -0.3300000    0.0600000   2.521103e-04  1.063590e-07
    122    149   2   0.50000    -0.3300000    0.0600000   2.521103e-04  1.063590e-07
    146    125   2   0.50000     0.0300000   -0.1200000   1.599888e-04  9.721644e-08
    146    148   2   0.50000     0.0300000    0.0600000   3.930919e-05  8.704828e-09
    146    149   2   0.50000     0.0300000    0.0600000   3.930919e-05  8.704828e-09
    147    125   2   0.50000     0.0300000   -0.1200000   1.599888e-04  9.721644e-08
    147    148   2   0.50000     0.0300000    0.0600000   3.930919e-05  8.704828e-09
    147    149   2   0.50000     0.0300000    0.0600000   3.930919e-05  8.704828e-09
    123    126   2   0.50000     0.1900000   -0.1200000   1.015252e-03  1.866303e-06
    123    150   2   0.50000     0.1900000    0.0600000   2.494471e-04  1.671101e-07
    123    151   2   0.50000     0.1900000    0.0600000   2.494471e-04  1.671101e-07
    148    126   2   0.50000     0.0600000   -0.1200000   2.494471e-04  1.671101e-07
    148    150   2   0.50000     0.0600000    0.0600000   6.128906e-05  1.496315e-08
    148    151   2   0.50000     0.0600000    0.0600000   6.128906e-05  1.496315e-08
    149    126   2   0.50000     0.0600000   -0.1200000   2.494471e-04  1.671101e-07
    149    150   2   0.50000     0.0600000    0.0600000   6.128906e-05  1.496315e-08
    149    151   2   0.50000     0.0600000    0.0600000   6.128906e-05  1.496315e-08
    124    127   2   0.50000    -0.1200000   -0.1200000   1.015252e-03  1.866303e-06
    124    152   2   0.50000    -0.1200000    0.0600000   2.494471e-04  1.671101e-07
    124    153   2   0.50000    -0.1200000    0.0600000   2.494471e-04  1.671101e-07
    150    127   2   0.50000     0.0600000   -0.1200000   2.494471e-04  1.671101e-07
    150    152   2   0.50000     0.0600000    0.0600000   6.128906e-05  1.496315e-08
    150    153   2   0.50000     0.0600000    0.0600000   6.128906e-05  1.496315e-08
    151    127   2   0.50000     0.0600000   -0.1200000   2.494471e-04  1.671101e-07
    151    152   2   0.50000     0.0600000    0.0600000   6.128906e-05  1.496315e-08
    151    153   2   0.50000     0.0600000    0.0600000   6.128906e-05  1.496315e-08
    125    128   2   0.50000    -0.1200000   -0.1200000   1.015252e-03  1.866303e-06
    125    154   2   0.50000    -0.1200000    0.0600000   2.494471e-04  1.671101e-07
    125    155   2   0.50000    -0.1200000    0.0600000   2.494471e-04  1.671101e-07
    152    128   2   0.50000     0.0600000   -0.1200000   2.494471e-04  1.671101e-07
    152    154   2   0.50000     0.0600000    0.0600000   6.128906e-05  1.496315e-08
    152    155   2   0.50000     0.0600000    0.0600000   6.128906e-05  1.496315e-08
    153    128   2   0.50000     0.0600000   -0.1200000   2.494471e-04  1.671101e-07
    153    154   2   0.50000     0.0600000    0.0600000   6.128906e-05  1.496315e-08
    153    155   2   0.50000     0.0600000    0.0600000   6.128906e-05  1.496315e-08
    126    129   2   0.50000    -0.1200000   -0.1200000   1.015252e-03  1.866303e-06
    126    156   2   0.50000    -0.1200000    0.0600000   2.494471e-04  1.671101e-07
    126    157   2   0.50000    -0.1200000    0.0600000   2.494471e-04  1.671101e-07
    154    129   2   0.50000     0.0600000   -0.1200000   2.494471e-04  1.671101e-07
    154    156   2   0.50000     0.0600000    0.0600000   6.128906e-05  1.496315e-08
    154    157   2   0.50000     0.0600000    0.0600000   6.128906e-05  1.496315e-08
    155    129   2   0.50000     0.0600000   -0.1200000   2.494471e-04  1.671101e-07
    155    156   2   0.50000     0.0600000    0.0600000   6.128906e-05  1.496315e-08
    155    157   2   0.50000     0.0600000    0.0600000   6.128906e-05  1.496315e-08
    127    130   2   0.50000    -0.1200000   -0.1200000   1.015252e-03  1.866303e-06
    127    158   2   0.50000    -0.1200000    0.0600000   2.494471e-04  1.671101e-07
    127    159   2   0.50000    -0.1200000    0.0600000   2.494471e-04  1.671101e-07
    156    130   2   0.50000     0.0600000   -0.1200000   2.494471e-04  1.671101e-07
    156    158   2   0.50000     0.0600000    0.0600000   6.128906e-05  1.496315e-08
    156    159   2   0.50000     0.0600000    0.0600000   6.128906e-05  1.496315e-08
    157    130   2   0.50000     0.0600000   -0.1200000   2.494471e-04  1.671101e-07
    157    158   2   0.50000     0.0600000    0.0600000   6.128906e-05  1.496315e-08
    157    159   2   0.50000     0.0600000    0.0600000   6.128906e-05  1.496315e-08
    128    131   2   0.50000    -0.1200000   -0.1200000   1.015252e-03  1.866303e-06
    128    160   2   0.50000    -0.1200000    0.0600000   2.494471e-04  1.671101e-07
    128    161   2   0.50000    -0.1200000    0.0600000   2.494471e-04  1.671101e-07
    158    131   2   0.50000     0.0600000   -0.1200000   2.494471e-04  1.671101e-07
    158    160   2   0.50000     0.0600000    0.0600000   6.128906e-05  1.496315e-08
    158    161   2   0.50000     0.0600000    0.0600000   6.128906e-05  1.496315e-08
    159    131   2   0.50000     0.0600000   -0.1200000   2.494471e-04  1.671101e-07
    159    160   2   0.50000     0.0600000    0.0600000   6.128906e-05  1.496315e-08
    159    161   2   0.50000     0.0600000    0.0600000   6.128906e-05  1.496315e-08
    129    132   2   0.50000    -0.1200000    0.1900000   1.015252e-03  1.866303e-06
    129    162   2   0.50000    -0.1200000    0.0600000   2.494471e-04  1.671101e-07
    129    163   2   0.50000    -0.1200000    0.0600000   2.494471e-04  1.671101e-07
    160    132   2   0.50000     0.0600000    0.1900000   2.494471e-04  1.671101e-07
    160    162   2   0.50000     0.0600000    0.0600000   6.128906e-05  1.496315e-08
    160    163   2   0.50000     0.0600000    0.0600000   6.128906e-05  1.496315e-08
    161    132   2   0.50000     0.0600000    0.1900000   2.494471e-04  1.671101e-07
    161    162   2   0.50000     0.0600000    0.0600000   6.128906e-05  1.496315e-08
    161    163   2   0.50000     0.0600000    0.0600000   6.128906e-05  1.496315e-08
    130    133   2   0.50000    -0.1200000   -0.3300000   1.026091e-03  1.187829e-06
    130    164   2   0.50000    -0.1200000    0.0300000   1.599888e-04  9.721644e-08
    130    165   2   0.50000    -0.1200000    0.0300000   1.599888e-04  9.721644e-08
    162    133   2   0.50000     0.0600000   -0.3300000   2.521103e-04  1.063590e-07
    162    164   2   0.50000     0.0600000    0.0300000   3.930919e-05  8.704828e-09
    162    165   2   0.50000     0.0600000    0.0300000   3.930919e-05  8.704828e-09
    163    133   2   0.50000     0.0600000   -0.3300000   2.521103e-04  1.063590e-07
    163    164   2   0.50000     0.0600000    0.0300000   3.930919e-05  8.704828e-09
    163    165   2   0.50000     0.0600000    0.0300000   3.930919e-05  8.704828e-09
    131    134   2   0.50000    -0.1200000    0.5100000   1.575021e-03  3.561100e-06
    164    134   2   0.50000     0.0300000    0.5100000   2.482000e-04  1.854991e-07
    165    134   2   0.50000     0.0300000    0.5100000   2.482000e-04  1.854991e-07
    132    135   2   0.50000     0.1900000   -0.4300000   1.095425e-03  1.218041e-06
    132    136   2   0.50000     0.1900000   -0.1200000   1.015252e-03  1.866303e-06
    133    137   2   0.50000    -0.3300000   -0.1200000   1.026091e-03  1.187829e-06
    133    166   2   0.50000    -0.3300000    0.0600000   1.616969e-04  6.187447e-08
    133    167   2   0.50000    -0.3300000    0.0600000   1.616969e-04  6.187447e-08
    135    137   2   0.50000    -0.4300000   -0.1200000   1.095425e-03  1.218041e-06
    135    166   2   0.50000    -0.4300000    0.0600000   1.726228e-04  6.344822e-08
    135    167   2   0.50000    -0.4300000    0.0600000   1.726228e-04  6.344822e-08
    134    138   2   0.50000     0.5100000   -0.1200000   1.575021e-03  3.561100e-06
    134    168   2   0.50000     0.5100000    0.0600000   3.869820e-04  3.188634e-07
    134    169   2   0.50000     0.5100000    0.0600000   3.869820e-04  3.188634e-07
    166    138   2   0.50000     0.0600000   -0.1200000   1.599888e-04  9.721644e-08
    166    168   2   0.50000     0.0600000    0.0600000   3.930919e-05  8.704828e-09
    166    169   2   0.50000     0.0600000    0.0600000   3.930919e-05  8.704828e-09
    167    138   2   0.50000     0.0600000   -0.1200000   1.599888e-04  9.721644e-08
    167    168   2   0.50000     0.0600000    0.0600000   3.930919e-05  8.704828e-09
    167    169   2   0.50000     0.0600000    0.0600000   3.930919e-05  8.704828e-09
    136    139   2   0.50000    -0.1200000   -0.1200000   1.015252e-03  1.866303e-06
    136    170   2   0.50000    -0.1200000    0.0600000   2.494471e-04  1.671101e-07
    136    171   2   0.50000    -0.1200000    0.0600000   2.494471e-04  1.671101e-07
    168    139   2   0.50000     0.0600000   -0.1200000   2.494471e-04  1.671101e-07
    168    170   2   0.50000     0.0600000    0.0600000   6.128906e-05  1.496315e-08
    168    171   2   0.50000     0.0600000    0.0600000   6.128906e-05  1.496315e-08
    169    139   2   0.50000     0.0600000   -0.1200000   2.494471e-04  1.671101e-07
    169    170   2   0.50000     0.0600000    0.0600000   6.128906e-05  1.496315e-08
    169    171   2   0.50000     0.0600000    0.0600000   6.128906e-05  1.496315e-08
    137    140   2   0.50000    -0.1200000   -0.1200000   1.015252e-03  1.866303e-06
    137    172   2   0.50000    -0.1200000    0.0600000   2.494471e-04  1.671101e-07
    137    173   2   0.50000    -0.1200000    0.0600000   2.494471e-04  1.671101e-07
    170    140   2   0.50000     0.0600000   -0.1200000   2.494471e-04  1.671101e-07
    170    172   2   0.50000     0.0600000    0.0600000   6.128906e-05  1.496315e-08
    170    173   2   0.50000     0.0600000    0.0600000   6.128906e-05  1.496315e-08
    171    140   2   0.50000     0.0600000   -0.1200000   2.494471e-04  1.671101e-07
    171    172   2   0.50000     0.0600000    0.0600000   6.128906e-05  1.496315e-08
    171    173   2   0.50000     0.0600000    0.0600000   6.128906e-05  1.496315e-08
    138    141   2   0.50000    -0.1200000   -0.1200000   1.015252e-03  1.866303e-06
    138    174   2   0.50000    -0.1200000    0.0600000   2.494471e-04  1.671101e-07
    138    175   2   0.50000    -0.1200000    0.0600000   2.494471e-04  1.671101e-07
    172    141   2   0.50000     0.0600000   -0.1200000   2.494471e-04  1.671101e-07
    172    174   2   0.50000     0.0600000    0.0600000   6.128906e-05  1.496315e-08
    172    175   2   0.50000     0.0600000    0.0600000   6.128906e-05  1.496315e-08
    173    141   2   0.50000     0.0600000   -0.1200000   2.494471e-04  1.671101e-07
    173    174   2   0.50000     0.0600000    0.0600000   6.128906e-05  1.496315e-08
    173    175   2   0.50000     0.0600000    0.0600000   6.128906e-05  1.496315e-08
    139    142   2   0.50000    -0.1200000   -0.1200000   1.015252e-03  1.866303e-06
    139    176   2   0.50000    -0.1200000    0.0600000   2.494471e-04  1.671101e-07
    139    177   2   0.50000    -0.1200000    0.0600000   2.494471e-04  1.671101e-07
    174    142   2   0.50000     0.0600000   -0.1200000   2.494471e-04  1.671101e-07
    174    176   2   0.50000     0.0600000    0.0600000   6.128906e-05  1.496315e-08
    174    177   2   0.50000     0.0600000    0.0600000   6.128906e-05  1.496315e-08
    175    142   2   0.50000     0.0600000   -0.1200000   2.494471e-04  1.671101e-07
    175    176   2   0.50000     0.0600000    0.0600000   6.128906e-05  1.496315e-08
    175    177   2   0.50000     0.0600000    0.0600000   6.128906e-05  1.496315e-08
    140    143   2   0.50000    -0.1200000   -0.1200000   1.015252e-03  1.866303e-06
    140    178   2   0.50000    -0.1200000    0.0600000   2.494471e-04  1.671101e-07
    140    179   2   0.50000    -0.1200000    0.0600000   2.494471e-04  1.671101e-07
    176    143   2   0.50000     0.0600000   -0.1200000   2.494471e-04  1.671101e-07
    176    178   2   0.50000     0.0600000    0.0600000   6.128906e-05  1.496315e-08
    176    179   2   0.50000     0.0600000    0.0600000   6.128906e-05  1.496315e-08
    177    143   2   0.50000     0.0600000   -0.1200000   2.494471e-04  1.671101e-07
    177    178   2   0.50000     0.0600000    0.0600000   6.128906e-05  1.496315e-08
    177    179   2   0.50000     0.0600000    0.0600000   6.128906e-05  1.496315e-08
    141    144   2   0.50000    -0.1200000    0.5100000   1.575021e-03  3.561100e-06
    141    180   2   0.50000    -0.1200000    0.0600000   1.599888e-04  9.721644e-08
    141    181   2   0.50000    -0.1200000    0.0600000   1.599888e-04  9.721644e-08
    178    144   2   0.50000     0.0600000    0.5100000   3.869820e-04  3.188634e-07
    178    180   2   0.50000     0.0600000    0.0600000   3.930919e-05  8.704828e-09
    178    181   2   0.50000     0.0600000    0.0600000   3.930919e-05  8.704828e-09
    179    144   2   0.50000     0.0600000    0.5100000   3.869820e-04  3.188634e-07
    179    180   2   0.50000     0.0600000    0.0600000   3.930919e-05  8.704828e-09
    179    181   2   0.50000     0.0600000    0.0600000   3.930919e-05  8.704828e-09
    142    145   2   0.50000    -0.1200000   -0.4300000   1.095425e-03  1.218041e-06
    142    182   2   0.50000    -0.1200000   -0.3300000   1.026091e-03  1.187829e-06
    180    145   2   0.50000     0.0600000   -0.4300000   1.726228e-04  6.344822e-08
    180    182   2   0.50000     0.0600000   -0.3300000   1.616969e-04  6.187447e-08
    181    145   2   0.50000     0.0600000   -0.4300000   1.726228e-04  6.344822e-08
    181    182   2   0.50000     0.0600000   -0.3300000   1.616969e-04  6.187447e-08
    143    183   2   0.50000    -0.1200000    0.1900000   1.015252e-03  1.866303e-06
    145    183   2   0.50000    -0.4300000    0.1900000   1.095425e-03  1.218041e-06
    144    184   2   0.50000     0.5100000   -0.1200000   1.575021e-03  3.561100e-06
    144    206   2   0.50000     0.5100000    0.0300000   2.482000e-04  1.854991e-07
    144    207   2   0.50000     0.5100000    0.0300000   2.482000e-04  1.854991e-07
    182    185   2   0.50000    -0.3300000   -0.1200000   1.026091e-03  1.187829e-06
    182    208   2   0.50000    -0.3300000    0.0600000   2.521103e-04  1.063590e-07
    182    209   2   0.50000    -0.3300000    0.0600000   2.521103e-04  1.063590e-07
    206    185   2   0.50000     0.0300000   -0.1200000   1.599888e-04  9.721644e-08
    206    208   2   0.50000     0.0300000    0.0600000   3.930919e-05  8.704828e-09
    206    209   2   0.50000     0.0300000    0.0600000   3.930919e-05  8.704828e-09
    207    185   2   0.50000     0.0300000   -0.1200000   1.599888e-04  9.721644e-08
    207    208   2   0.50000     0.0300000    0.0600000   3.930919e-05  8.704828e-09
    207    209   2   0.50000     0.0300000    0.0600000   3.930919e-05  8.704828e-09
    183    186   2   0.50000     0.1900000   -0.1200000   1.015252e-03  1.866303e-06
    183    210   2   0.50000     0.1900000    0.0600000   2.494471e-04  1.671101e-07
    183    211   2   0.50000     0.1900000    0.0600000   2.494471e-04  1.671101e-07
    208    186   2   0.50000     0.0600000   -0.1200000   2.494471e-04  1.671101e-07
    208    210   2   0.50000     0.0600000    0.0600000   6.128906e-05  1.496315e-08
    208    211   2   0.50000     0.0600000    0.0600000   6.128906e-05  1.496315e-08
    209    186   2   0.50000     0.0600000   -0.1200000   2.494471e-04  1.671101e-07
    209    210   2   0.50000     0.0600000    0.0600000   6.128906e-05  1.496315e-08
    209    211   2   0.50000     0.0600000    0.0600000   6.128906e-05  1.496315e-08
    184    187   2   0.50000    -0.1200000   -0.1200000   1.015252e-03  1.866303e-06
    184    212   2   0.50000    -0.1200000    0.0600000   2.494471e-04  1.671101e-07
    184    213   2   0.50000    -0.1200000    0.0600000   2.494471e-04  1.671101e-07
    210    187   2   0.50000     0.0600000   -0.1200000   2.494471e-04  1.671101e-07
    210    212   2   0.50000     0.0600000    0.0600000   6.128906e-05  1.496315e-08
    210    213   2   0.50000     0.0600000    0.0600000   6.128906e-05  1.496315e-08
    211    187   2   0.50000     0.0600000   -0.1200000   2.494471e-04  1.671101e-07
    211    212   2   0.50000     0.0600000    0.0600000   6.128906e-05  1.496315e-08
    211    213   2   0.50000     0.0600000    0.0600000   6.128906e-05  1.496315e-08
    185    188   2   0.50000    -0.1200000   -0.1200000   1.015252e-03  1.866303e-06
    185    214   2   0.50000    -0.1200000    0.0600000   2.494471e-04  1.671101e-07
    185    215   2   0.50000    -0.1200000    0.0600000   2.494471e-04  1.671101e-07
    212    188   2   0.50000     0.0600000   -0.1200000   2.494471e-04  1.671101e-07
    212    214   2   0.50000     0.0600000    0.0600000   6.128906e-05  1.496315e-08
    212    215   2   0.50000     0.0600000    0.0600000   6.128906e-05  1.496315e-08
    213    188   2   0.50000     0.0600000   -0.1200000   2.494471e-04  1.671101e-07
    213    214   2   0.50000     0.0600000    0.0600000   6.128906e-05  1.496315e-08
    213    215   2   0.50000     0.0600000    0.0600000   6.128906e-05  1.496315e-08
    186    189   2   0.50000    -0.1200000   -0.1200000   1.015252e-03  1.866303e-06
    186    216   2   0.50000    -0.1200000    0.0600000   2.494471e-04  1.671101e-07
    186    217   2   0.50000    -0.1200000    0.0600000   2.494471e-04  1.671101e-07
    214    189   2   0.50000     0.0600000   -0.1200000   2.494471e-04  1.671101e-07
    214    216   2   0.50000     0.0600000    0.0600000   6.128906e-05  1.496315e-08
    214    217   2   0.50000     0.0600000    0.0600000   6.128906e-05  1.496315e-08
    215    189   2   0.50000     0.0600000   -0.1200000   2.494471e-04  1.671101e-07
    215    216   2   0.50000     0.0600000    0.0600000   6.128906e-05  1.496315e-08
    215    217   2   0.50000     0.0600000    0.0600000   6.128906e-05  1.496315e-08
    187    190   2   0.50000    -0.1200000   -0.1200000   1.015252e-03  1.866303e-06
    187    218   2   0.50000    -0.1200000    0.0600000   2.494471e-04  1.671101e-07
    187    219   2   0.50000    -0.1200000    0.0600000   2.494471e-04  1.671101e-07
    216    190   2   0.50000     0.0600000   -0.1200000   2.494471e-04  1.671101e-07
    216    218   2   0.50000     0.0600000    0.0600000   6.128906e-05  1.496315e-08
    216    219   2   0.50000     0.0600000    0.0600000   6.128906e-05  1.496315e-08
    217    190   2   0.50000     0.0600000   -0.1200000   2.494471e-04  1.671101e-07
    217    218   2   0.50000     0.0600000    0.0600000   6.128906e-05  1.496315e-08
    217    219   2   0.50000     0.0600000    0.0600000   6.128906e-05  1.496315e-08
    188    191   2   0.50000    -0.1200000   -0.1200000   1.015252e-03  1.866303e-06
    188    220   2   0.50000    -0.1200000    0.0600000   2.494471e-04  1.671101e-07
    188    221   2   0.50000    -0.1200000    0.0600000   2.494471e-04  1.671101e-07
    218    191   2   0.50000     0.0600000   -0.1200000   2.494471e-04  1.671101e-07
    218    220   2   0.50000     0.0600000    0.0600000   6.128906e-05  1.496315e-08
    218    221   2   0.50000     0.0600000    0.0600000   6.128906e-05  1.496315e-08
    219    191   2   0.50000     0.0600000   -0.1200000   2.494471e-04  1.671101e-07
    219    220   2   0.50000     0.0600000    0.0600000   6.128906e-05  1.496315e-08
    219    221   2   0.50000     0.0600000    0.0600000   6.128906e-05  1.496315e-08
    189    192   2   0.50000    -0.1200000    0.1900000   1.015252e-03  1.866303e-06
    189    222   2   0.50000    -0.1200000    0.0600000   2.494471e-04  1.671101e-07
    189    223   2   0.50000    -0.1200000    0.0600000   2.494471e-04  1.671101e-07
    220    192   2   0.50000     0.0600000    0.1900000   2.494471e-04  1.671101e-07
    220    222   2   0.50000     0.0600000    0.0600000   6.128906e-05  1.496315e-08
    220    223   2   0.50000     0.0600000    0.0600000   6.128906e-05  1.496315e-08
    221    192   2   0.50000     0.0600000    0.1900000   2.494471e-04  1.671101e-07
    221    222   2   0.50000     0.0600000    0.0600000   6.128906e-05  1.496315e-08
    221    223   2   0.50000     0.0600000    0.0600000   6.128906e-05  1.496315e-08
    190    193   2   0.50000    -0.1200000   -0.3300000   1.026091e-03  1.187829e-06
    190    224   2   0.50000    -0.1200000    0.0300000   1.599888e-04  9.721644e-08
    190    225   2   0.50000    -0.1200000    0.0300000   1.599888e-04  9.721644e-08
    222    193   2   0.50000     0.0600000   -0.3300000   2.521103e-04  1.063590e-07
    222    224   2   0.50000     0.0600000    0.0300000   3.930919e-05  8.704828e-09
    222    225   2   0.50000     0.0600000    0.0300000   3.930919e-05  8.704828e-09
    223    193   2   0.50000     0.0600000   -0.3300000   2.521103e-04  1.063590e-07
    223    224   2   0.50000     0.0600000    0.0300000   3.930919e-05  8.704828e-09
    223    225   2   0.50000     0.0600000    0.0300000   3.930919e-05  8.704828e-09
    191    194   2   0.50000    -0.1200000    0.5100000   1.575021e-03  3.561100e-06
    224    194   2   0.50000     0.0300000    0.5100000   2.482000e-04  1.854991e-07
    225    194   2   0.50000     0.0300000    0.5100000   2.482000e-04  1.854991e-07
    192    195   2   0.50000     0.1900000   -0.4300000   1.095425e-03  1.218041e-06
    192    196   2   0.50000     0.1900000   -0.1200000   1.015252e-03  1.866303e-06
    193    197   2   0.50000    -0.3300000   -0.1200000   1.026091e-03  1.187829e-06
    193    226   2   0.50000    -0.3300000    0.0600000   1.616969e-04  6.187447e-08
    193    227   2   0.50000    -0.3300000    0.0600000   1.616969e-04  6.187447e-08
    195    197   2   0.50000    -0.4300000   -0.1200000   1.095425e-03  1.218041e-06
    195    226   2   0.50000    -0.4300000    0.0600000   1.726228e-04  6.344822e-08
    195    227   2   0.50000    -0.4300000    0.0600000   1.726228e-04  6.344822e-08
    194    198   2   0.50000     0.5100000   -0.1200000   1.575021e-03  3.561100e-06
    194    228   2   0.50000     0.5100000    0.0600000   3.869820e-04  3.188634e-07
    194    229   2   0.50000     0.5100000    0.0600000   3.869820e-04  3.188634e-07
    226    198   2   0.50000     0.0600000   -0.1200000   1.599888e-04  9.721644e-08
    226    228   2   0.50000     0.0600000    0.0600000   3.930919e-05  8.704828e-09
    226    229   2   0.50000     0.0600000    0.0600000   3.930919e-05  8.704828e-09
    227    198   2   0.50000     0.0600000   -0.1200000   1.599888e-04  9.721644e-08
    227    228   2   0.50000     0.0600000    0.0600000   3.930919e-05  8.704828e-09
    227    229   2   0.50000     0.0600000    0.0600000   3.930919e-05  8.704828e-09
    196    199   2   0.50000    -0.1200000   -0.1200000   1.015252e-03  1.866303e-06
    196    230   2   0.50000    -0.1200000    0.0600000   2.494471e-04  1.671101e-07
    196    231   2   0.50000    -0.1200000    0.0600000   2.494471e-04  1.671101e-07
    228    199   2   0.50000     0.0600000   -0.1200000   2.494471e-04  1.671101e-07
    228    230   2   0.50000     0.0600000    0.0600000   6.128906e-05  1.496315e-08
    228    231   2   0.50000     0.0600000    0.0600000   6.128906e-05  1.496315e-08
    229    199   2   0.50000     0.0600000   -0.1200000   2.494471e-04  1.671101e-07
    229    230   2   0.50000     0.0600000    0.0600000   6.128906e-05  1.496315e-08
    229    231   2   0.50000     0.0600000    0.0600000   6.128906e-05  1.496315e-08
    197    200   2   0.50000    -0.1200000   -0.1200000   1.015252e-03  1.866303e-06
    197    232   2   0.50000    -0.1200000    0.0600000   2.494471e-04  1.671101e-07
    197    233   2   0.50000    -0.1200000    0.0600000   2.494471e-04  1.671101e-07
    230    200   2   0.50000     0.0600000   -0.1200000   2.494471e-04  1.671101e-07
    230    232   2   0.50000     0.0600000    0.0600000   6.128906e-05  1.496315e-08
    230    233   2   0.50000     0.0600000    0.0600000   6.128906e-05  1.496315e-08
    231    200   2   0.50000     0.0600000   -0.1200000   2.494471e-04  1.671101e-07
    231    232   2   0.50000     0.0600000    0.0600000   6.128906e-05  1.496315e-08
    231    233   2   0.50000     0.0600000    0.0600000   6.128906e-05  1.496315e-08
    198    201   2   0.50000    -0.1200000   -0.1200000   1.015252e-03  1.866303e-06
    198    234   2   0.50000    -0.1200000    0.0600000   2.494471e-04  1.671101e-07
    198    235   2   0.50000    -0.1200000    0.0600000   2.494471e-04  1.671101e-07
    232    201   2   0.50000     0.0600000   -0.1200000   2.494471e-04  1.671101e-07
    232    234   2   0.50000     0.0600000    0.0600000   6.128906e-05  1.496315e-08
    232    235   2   0.50000     0.0600000    0.0600000   6.128906e-05  1.496315e-08
    233    201   2   0.50000     0.0600000   -0.1200000   2.494471e-04  1.671101e-07
    233    234   2   0.50000     0.0600000    0.0600000   6.128906e-05  1.496315e-08
    233    235   2   0.50000     0.0600000    0.0600000   6.128906e-05  1.496315e-08
    199    202   2   0.50000    -0.1200000   -0.1200000   1.015252e-03  1.866303e-06
    199    236   2   0.50000    -0.1200000    0.0600000   2.494471e-04  1.671101e-07
    199    237   2   0.50000    -0.1200000    0.0600000   2.494471e-04  1.671101e-07
    234    202   2   0.50000     0.0600000   -0.1200000   2.494471e-04  1.671101e-07
    234    236   2   0.50000     0.0600000    0.0600000   6.128906e-05  1.496315e-08
    234    237   2   0.50000     0.0600000    0.0600000   6.128906e-05  1.496315e-08
    235    202   2   0.50000     0.0600000   -0.1200000   2.494471e-04  1.671101e-07
    235    236   2   0.50000     0.0600000    0.0600000   6.128906e-05  1.496315e-08
    235    237   2   0.50000     0.0600000    0.0600000   6.128906e-05  1.496315e-08
    200    203   2   0.50000    -0.1200000   -0.1200000   1.015252e-03  1.866303e-06
    200    238   2   0.50000    -0.1200000    0.0600000   2.494471e-04  1.671101e-07
    200    239   2   0.50000    -0.1200000    0.0600000   2.494471e-04  1.671101e-07
    236    203   2   0.50000     0.0600000   -0.1200000   2.494471e-04  1.671101e-07
    236    238   2   0.50000     0.0600000    0.0600000   6.128906e-05  1.496315e-08
    236    239   2   0.50000     0.0600000    0.0600000   6.128906e-05  1.496315e-08
    237    203   2   0.50000     0.0600000   -0.1200000   2.494471e-04  1.671101e-07
    237    238   2   0.50000     0.0600000    0.0600000   6.128906e-05  1.496315e-08
    237    239   2   0.50000     0.0600000    0.0600000   6.128906e-05  1.496315e-08
    201    204   2   0.50000    -0.1200000    0.5100000   1.575021e-03  3.561100e-06
    201    240   2   0.50000    -0.1200000    0.0600000   1.599888e-04  9.721644e-08
    201    241   2   0.50000    -0.1200000    0.0600000   1.599888e-04  9.721644e-08
    238    204   2   0.50000     0.0600000    0.5100000   3.869820e-04  3.188634e-07
    238    240   2   0.50000     0.0600000    0.0600000   3.930919e-05  8.704828e-09
    238    241   2   0.50000     0.0600000    0.0600000   3.930919e-05  8.704828e-09
    239    204   2   0.50000     0.0600000    0.5100000   3.869820e-04  3.188634e-07
    239    240   2   0.50000     0.0600000    0.0600000   3.930919e-05  8.704828e-09
    239    241   2   0.50000     0.0600000    0.0600000   3.930919e-05  8.704828e-09
    202    205   2   0.50000    -0.1200000   -0.4300000   1.095425e-03  1.218041e-06
    202    242   2   0.50000    -0.1200000   -0.3300000   1.026091e-03  1.187829e-06
    240    205   2   0.50000     0.0600000   -0.4300000   1.726228e-04  6.344822e-08
    240    242   2   0.50000     0.0600000   -0.3300000   1.616969e-04  6.187447e-08
    241    205   2   0.50000     0.0600000   -0.4300000   1.726228e-04  6.344822e-08
    241    242   2   0.50000     0.0600000   -0.3300000   1.616969e-04  6.187447e-08
    203    243   2   0.50000    -0.1200000    0.1900000   1.015252e-03  1.866303e-06
    205    243   2   0.50000    -0.4300000    0.1900000   1.095425e-03  1.218041e-06
    204    244   2   0.50000     0.5100000   -0.1200000   1.575021e-03  3.561100e-06
    204    266   2   0.50000     0.5100000    0.0300000   2.482000e-04  1.854991e-07
    204    267   2   0.50000     0.5100000    0.0300000   2.482000e-04  1.854991e-07
    242    245   2   0.50000    -0.3300000   -0.1200000   1.026091e-03  1.187829e-06
    242    268   2   0.50000    -0.3300000    0.0600000   2.521103e-04  1.063590e-07
    242    269   2   0.50000    -0.3300000    0.0600000   2.521103e-04  1.063590e-07
    266    245   2   0.50000     0.0300000   -0.1200000   1.599888e-04  9.721644e-08
    266    268   2   0.50000     0.0300000    0.0600000   3.930919e-05  8.704828e-09
    266    269   2   0.50000     0.0300000    0.0600000   3.930919e-05  8.704828e-09
    267    245   2   0.50000     0.0300000   -0.1200000   1.599888e-04  9.721644e-08
    267    268   2   0.50000     0.0300000    0.0600000   3.930919e-05  8.704828e-09
    267    269   2   0.50000     0.0300000    0.0600000   3.930919e-05  8.704828e-09
    243    246   2   0.50000     0.1900000   -0.1200000   1.015252e-03  1.866303e-06
    243    270   2   0.50000     0.1900000    0.0600000   2.494471e-04  1.671101e-07
    243    271   2   0.50000     0.1900000    0.0600000   2.494471e-04  1.671101e-07
    268    246   2   0.50000     0.0600000   -0.1200000   2.494471e-04  1.671101e-07
    268    270   2   0.50000     0.0600000    0.0600000   6.128906e-05  1.496315e-08
    268    271   2   0.50000     0.0600000    0.0600000   6.128906e-05  1.496315e-08
    269    246   2   0.50000     0.0600000   -0.1200000   2.494471e-04  1.671101e-07
    269    270   2   0.50000     0.0600000    0.0600000   6.128906e-05  1.496315e-08
    269    271   2   0.50000     0.0600000    0.0600000   6.128906e-05  1.496315e-08
    244    247   2   0.50000    -0.1200000   -0.1200000   1.015252e-03  1.866303e-06
    244    272   2   0.50000    -0.1200000    0.0600000   2.494471e-04  1.671101e-07
    244    273   2   0.50000    -0.1200000    0.0600000   2.494471e-04  1.671101e-07
    270    247   2   0.50000     0.0600000   -0.1200000   2.494471e-04  1.671101e-07
    270    272   2   0.50000     0.0600000    0.0600000   6.128906e-05  1.496315e-08
    270    273   2   0.50000     0.0600000    0.0600000   6.128906e-05  1.496315e-08
    271    247   2   0.50000     0.0600000   -0.1200000   2.494471e-04  1.671101e-07
    271    272   2   0.50000     0.0600000    0.0600000   6.128906e-05  1.496315e-08
    271    273   2   0.50000     0.0600000    0.0600000   6.128906e-05  1.496315e-08
    245    248   2   0.50000    -0.1200000   -0.1200000   1.015252e-03  1.866303e-06
    245    274   2   0.50000    -0.1200000    0.0600000   2.494471e-04  1.671101e-07
    245    275   2   0.50000    -0.1200000    0.0600000   2.494471e-04  1.671101e-07
    272    248   2   0.50000     0.0600000   -0.1200000   2.494471e-04  1.671101e-07
    272    274   2   0.50000     0.0600000    0.0600000   6.128906e-05  1.496315e-08
    272    275   2   0.50000     0.0600000    0.0600000   6.128906e-05  1.496315e-08
    273    248   2   0.50000     0.0600000   -0.1200000   2.494471e-04  1.671101e-07
    273    274   2   0.50000     0.0600000    0.0600000   6.128906e-05  1.496315e-08
    273    275   2   0.50000     0.0600000    0.0600000   6.128906e-05  1.496315e-08
    246    249   2   0.50000    -0.1200000   -0.1200000   1.015252e-03  1.866303e-06
    246    276   2   0.50000    -0.1200000    0.0600000   2.494471e-04  1.671101e-07
    246    277   2   0.50000    -0.1200000    0.0600000   2.494471e-04  1.671101e-07
    274    249   2   0.50000     0.0600000   -0.1200000   2.494471e-04  1.671101e-07
    274    276   2   0.50000     0.0600000    0.0600000   6.128906e-05  1.496315e-08
    274    277   2   0.50000     0.0600000    0.0600000   6.128906e-05  1.496315e-08
    275    249   2   0.50000     0.0600000   -0.1200000   2.494471e-04  1.671101e-07
    275    276   2   0.50000     0.0600000    0.0600000   6.128906e-05  1.496315e-08
    275    277   2   0.50000     0.0600000    0.0600000   6.128906e-05  1.496315e-08
    247    250   2   0.50000    -0.1200000   -0.1200000   1.015252e-03  1.866303e-06
    247    278   2   0.50000    -0.1200000    0.0600000   2.494471e-04  1.671101e-07
    247    279   2   0.50000    -0.1200000    0.0600000   2.494471e-04  1.671101e-07
    276    250   2   0.50000     0.0600000   -0.1200000   2.494471e-04  1.671101e-07
    276    278   2   0.50000     0.0600000    0.0600000   6.128906e-05  1.496315e-08
    276    279   2   0.50000     0.0600000    0.0600000   6.128906e-05  1.496315e-08
    277    250   2   0.50000     0.0600000   -0.1200000   2.494471e-04  1.671101e-07
    277    278   2   0.50000     0.0600000    0.0600000   6.128906e-05  1.496315e-08
    277    279   2   0.50000     0.0600000    0.0600000   6.128906e-05  1.496315e-08
    248    251   2   0.50000    -0.1200000   -0.1200000   1.015252e-03  1.866303e-06
    248    280   2   0.50000    -0.1200000    0.0600000   2.494471e-04  1.671101e-07
    248    281   2   0.50000    -0.1200000    0.0600000   2.494471e-04  1.671101e-07
    278    251   2   0.50000     0.0600000   -0.1200000   2.494471e-04  1.671101e-07
    278    280   2   0.50000     0.0600000    0.0600000   6.128906e-05  1.496315e-08
    278    281   2   0.50000     0.0600000    0.0600000   6.128906e-05  1.496315e-08
    279    251   2   0.50000     0.0600000   -0.1200000   2.494471e-04  1.671101e-07
    279    280   2   0.50000     0.0600000    0.0600000   6.128906e-05  1.496315e-08
    279    281   2   0.50000     0.0600000    0.0600000   6.128906e-05  1.496315e-08
    249    252   2   0.50000    -0.1200000    0.1900000   1.015252e-03  1.866303e-06
    249    282   2   0.50000    -0.1200000    0.0600000   2.494471e-04  1.671101e-07
    249    283   2   0.50000    -0.1200000    0.0600000   2.494471e-04  1.671101e-07
    280    252   2   0.50000     0.0600000    0.1900000   2.494471e-04  1.671101e-07
    280    282   2   0.50000     0.0600000    0.0600000   6.128906e-05  1.496315e-08
    280    283   2   0.50000     0.0600000    0.0600000   6.128906e-05  1.496315e-08
    281    252   2   0.50000     0.0600000    0.1900000   2.494471e-04  1.671101e-07
    281    282   2   0.50000     0.0600000    0.0600000   6.128906e-05  1.496315e-08
    281    283   2   0.50000     0.0600000    0.0600000   6.128906e-05  1.496315e-08
    250    253   2   0.50000    -0.1200000   -0.3300000   1.026091e-03  1.187829e-06
    250    284   2   0.50000    -0.1200000    0.0300000   1.599888e-04  9.721644e-08
    250    285   2   0.50000    -0.1200000    0.0300000   1.599888e-04  9.721644e-08
    282    253   2   0.50000     0.0600000   -0.3300000   2.521103e-04  1.063590e-07
    282    284   2   0.50000     0.0600000    0.0300000   3.930919e-05  8.704828e-09
    282    285   2   0.50000     0.0600000    0.0300000   3.930919e-05  8.704828e-09
    283    253   2   0.50000     0.0600000   -0.3300000   2.521103e-04  1.063590e-07
    283    284   2   0.50000     0.0600000    0.0300000   3.930919e-05  8.704828e-09
    283    285   2   0.50000     0.0600000    0.0300000   3.930919e-05  8.704828e-09
    251    254   2   0.50000    -0.1200000    0.5100000   1.575021e-03  3.561100e-06
    284    254   2   0.50000     0.0300000    0.5100000   2.482000e-04  1.854991e-07
    285    254   2   0.50000     0.0300000    0.5100000   2.482000e-04  1.854991e-07
    252    255   2   0.50000     0.1900000   -0.4300000   1.095425e-03  1.218041e-06
    252    256   2   0.50000     0.1900000   -0.1200000   1.015252e-03  1.866303e-06
    253    257   2   0.50000    -0.3300000   -0.1200000   1.026091e-03  1.187829e-06
    253    286   2   0.50000    -0.3300000    0.0600000   1.616969e-04  6.187447e-08
    253    287   2   0.50000    -0.3300000    0.0600000   1.616969e-04  6.187447e-08
    255    257   2   0.50000    -0.4300000   -0.1200000   1.095425e-03  1.218041e-06
    255    286   2   0.50000    -0.4300000    0.0600000   1.726228e-04  6.344822e-08
    255    287   2   0.50000    -0.4300000    0.0600000   1.726228e-04  6.344822e-08
    254    258   2   0.50000     0.5100000   -0.1200000   1.575021e-03  3.561100e-06
    254    288   2   0.50000     0.5100000    0.0600000   3.869820e-04  3.188634e-07
    254    289   2   0.50000     0.5100000    0.0600000   3.869820e-04  3.188634e-07
    286    258   2   0.50000     0.0600000   -0.1200000   1.599888e-04  9.721644e-08
    286    288   2   0.50000     0.0600000    0.0600000   3.930919e-05  8.704828e-09
    286    289   2   0.50000     0.0600000    0.0600000   3.930919e-05  8.704828e-09
    287    258   2   0.50000     0.0600000   -0.1200000   1.599888e-04  9.721644e-08
    287    288   2   0.50000     0.0600000    0.0600000   3.930919e-05  8.704828e-09
    287    289   2   0.50000     0.0600000    0.0600000   3.930919e-05  8.704828e-09
    256    259   2   0.50000    -0.1200000   -0.1200000   1.015252e-03  1.866303e-06
    256    290   2   0.50000    -0.1200000    0.0600000   2.494471e-04  1.671101e-07
    256    291   2   0.50000    -0.1200000    0.0600000   2.494471e-04  1.671101e-07
    288    259   2   0.50000     0.0600000   -0.1200000   2.494471e-04  1.671101e-07
    288    290   2   0.50000     0.0600000    0.0600000   6.128906e-05  1.496315e-08
    288    291   2   0.50000     0.0600000    0.0600000   6.128906e-05  1.496315e-08
    289    259   2   0.50000     0.0600000   -0.1200000   2.494471e-04  1.671101e-07
    289    290   2   0.50000     0.0600000    0.0600000   6.128906e-05  1.496315e-08
    289    291   2   0.50000     0.0600000    0.0600000   6.128906e-05  1.496315e-08
    257    260   2   0.50000    -0.1200000   -0.1200000   1.015252e-03  1.866303e-06
    257    292   2   0.50000    -0.1200000    0.0600000   2.494471e-04  1.671101e-07
    257    293   2   0.50000    -0.1200000    0.0600000   2.494471e-04  1.671101e-07
    290    260   2   0.50000     0.0600000   -0.1200000   2.494471e-04  1.671101e-07
    290    292   2   0.50000     0.0600000    0.0600000   6.128906e-05  1.496315e-08
    290    293   2   0.50000     0.0600000    0.0600000   6.128906e-05  1.496315e-08
    291    260   2   0.50000     0.0600000   -0.1200000   2.494471e-04  1.671101e-07
    291    292   2   0.50000     0.0600000    0.0600000   6.128906e-05  1.496315e-08
    291    293   2   0.50000     0.0600000    0.0600000   6.128906e-05  1.496315e-08
    258    261   2   0.50000    -0.1200000   -0.1200000   1.015252e-03  1.866303e-06
    258    294   2   0.50000    -0.1200000    0.0600000   2.494471e-04  1.671101e-07
    258    295   2   0.50000    -0.1200000    0.0600000   2.494471e-04  1.671101e-07
    292    261   2   0.50000     0.0600000   -0.1200000   2.494471e-04  1.671101e-07
    292    294   2   0.50000     0.0600000    0.0600000   6.128906e-05  1.496315e-08
    292    295   2   0.50000     0.0600000    0.0600000   6.128906e-05  1.496315e-08
    293    261   2   0.50000     0.0600000   -0.1200000   2.494471e-04  1.671101e-07
    293    294   2   0.50000     0.0600000    0.0600000   6.128906e-05  1.496315e-08
    293    295   2   0.50000     0.0600000    0.0600000   6.128906e-05  1.496315e-08
    259    262   2   0.50000    -0.1200000   -0.1200000   1.015252e-03  1.866303e-06
    259    296   2   0.50000    -0.1200000    0.0600000   2.494471e-04  1.671101e-07
    259    297   2   0.50000    -0.1200000    0.0600000   2.494471e-04  1.671101e-07
    294    262   2   0.50000     0.0600000   -0.1200000   2.494471e-04  1.671101e-07
    294    296   2   0.50000     0.0600000    0.0600000   6.128906e-05  1.496315e-08
    294    297   2   0.50000     0.0600000    0.0600000   6.128906e-05  1.496315e-08
    295    262   2   0.50000     0.0600000   -0.1200000   2.494471e-04  1.671101e-07
    295    296   2   0.50000     0.0600000    0.0600000   6.128906e-05  1.496315e-08
    295    297   2   0.50000     0.0600000    0.0600000   6.128906e-05  1.496315e-08
    260    263   2   0.50000    -0.1200000   -0.1200000   1.015252e-03  1.866303e-06
    260    298   2   0.50000    -0.1200000    0.0600000   2.494471e-04  1.671101e-07
    260    299   2   0.50000    -0.1200000    0.0600000   2.494471e-04  1.671101e-07
    296    263   2   0.50000     0.0600000   -0.1200000   2.494471e-04  1.671101e-07
    296    298   2   0.50000     0.0600000    0.0600000   6.128906e-05  1.496315e-08
    296    299   2   0.50000     0.0600000    0.0600000   6.128906e-05  1.496315e-08
    297    263   2   0.50000     0.0600000   -0.1200000   2.494471e-04  1.671101e-07
    297    298   2   0.50000     0.0600000    0.0600000   6.128906e-05  1.496315e-08
    297    299   2   0.50000     0.0600000    0.0600000   6.128906e-05  1.496315e-08
    261    264   2   0.50000    -0.1200000    0.5100000   1.575021e-03  3.561100e-06
    261    300   2   0.50000    -0.1200000    0.0600000   1.599888e-04  9.721644e-08
    261    301   2   0.50000    -0.1200000    0.0600000   1.599888e-04  9.721644e-08
    298    264   2   0.50000     0.0600000    0.5100000   3.869820e-04  3.188634e-07
    298    300   2   0.50000     0.0600000    0.0600000   3.930919e-05  8.704828e-09
    298    301   2   0.50000     0.0600000    0.0600000   3.930919e-05  8.704828e-09
    299    264   2   0.50000     0.0600000    0.5100000   3.869820e-04  3.188634e-07
    299    300   2   0.50000     0.0600000    0.0600000   3.930919e-05  8.704828e-09
    299    301   2   0.50000     0.0600000    0.0600000   3.930919e-05  8.704828e-09
    262    265   2   0.50000    -0.1200000   -0.4300000   1.095425e-03  1.218041e-06
    262    302   2   0.50000    -0.1200000   -0.3300000   1.026091e-03  1.187829e-06
    300    265   2   0.50000     0.0600000   -0.4300000   1.726228e-04  6.344822e-08
    300    302   2   0.50000     0.0600000   -0.3300000   1.616969e-04  6.187447e-08
    301    265   2   0.50000     0.0600000   -0.4300000   1.726228e-04  6.344822e-08
    301    302   2   0.50000     0.0600000   -0.3300000   1.616969e-04  6.187447e-08
    263    303   2   0.50000    -0.1200000    0.1900000   1.015252e-03  1.866303e-06
    265    303   2   0.50000    -0.4300000    0.1900000   1.095425e-03  1.218041e-06
    264    304   2   0.50000     0.5100000   -0.1200000   1.575021e-03  3.561100e-06
    264    326   2   0.50000     0.5100000    0.0300000   2.482000e-04  1.854991e-07
    264    327   2   0.50000     0.5100000    0.0300000   2.482000e-04  1.854991e-07
    302    305   2   0.50000    -0.3300000   -0.1200000   1.026091e-03  1.187829e-06
    302    328   2   0.50000    -0.3300000    0.0600000   2.521103e-04  1.063590e-07
    302    329   2   0.50000    -0.3300000    0.0600000   2.521103e-04  1.063590e-07
    326    305   2   0.50000     0.0300000   -0.1200000   1.599888e-04  9.721644e-08
    326    328   2   0.50000     0.0300000    0.0600000   3.930919e-05  8.704828e-09
    326    329   2   0.50000     0.0300000    0.0600000   3.930919e-05  8.704828e-09
    327    305   2   0.50000     0.0300000   -0.1200000   1.599888e-04  9.721644e-08
    327    328   2   0.50000     0.0300000    0.0600000   3.930919e-05  8.704828e-09
    327    329   2   0.50000     0.0300000    0.0600000   3.930919e-05  8.704828e-09
    303    306   2   0.50000     0.1900000   -0.1200000   1.015252e-03  1.866303e-06
    303    330   2   0.50000     0.1900000    0.0600000   2.494471e-04  1.671101e-07
    303    331   2   0.50000     0.1900000    0.0600000   2.494471e-04  1.671101e-07
    328    306   2   0.50000     0.0600000   -0.1200000   2.494471e-04  1.671101e-07
    328    330   2   0.50000     0.0600000    0.0600000   6.128906e-05  1.496315e-08
    328    331   2   0.50000     0.0600000    0.0600000   6.128906e-05  1.496315e-08
    329    306   2   0.50000     0.0600000   -0.1200000   2.494471e-04  1.671101e-07
    329    330   2   0.50000     0.0600000    0.0600000   6.128906e-05  1.496315e-08
    329    331   2   0.50000     0.0600000    0.0600000   6.128906e-05  1.496315e-08
    304    307   2   0.50000    -0.1200000   -0.1200000   1.015252e-03  1.866303e-06
    304    332   2   0.50000    -0.1200000    0.0600000   2.494471e-04  1.671101e-07
    304    333   2   0.50000    -0.1200000    0.0600000   2.494471e-04  1.671101e-07
    330    307   2   0.50000     0.0600000   -0.1200000   2.494471e-04  1.671101e-07
    330    332   2   0.50000     0.0600000    0.0600000   6.128906e-05  1.496315e-08
    330    333   2   0.50000     0.0600000    0.0600000   6.128906e-05  1.496315e-08
    331    307   2   0.50000     0.0600000   -0.1200000   2.494471e-04  1.671101e-07
    331    332   2   0.50000     0.0600000    0.0600000   6.128906e-05  1.496315e-08
    331    333   2   0.50000     0.0600000    0.0600000   6.128906e-05  1.496315e-08
    305    308   2   0.50000    -0.1200000   -0.1200000   1.015252e-03  1.866303e-06
    305    334   2   0.50000    -0.1200000    0.0600000   2.494471e-04  1.671101e-07
    305    335   2   0.50000    -0.1200000    0.0600000   2.494471e-04  1.671101e-07
    332    308   2   0.50000     0.0600000   -0.1200000   2.494471e-04  1.671101e-07
    332    334   2   0.50000     0.0600000    0.0600000   6.128906e-05  1.496315e-08
    332    335   2   0.50000     0.0600000    0.0600000   6.128906e-05  1.496315e-08
    333    308   2   0.50000     0.0600000   -0.1200000   2.494471e-04  1.671101e-07
    333    334   2   0.50000     0.0600000    0.0600000   6.128906e-05  1.496315e-08
    333    335   2   0.50000     0.0600000    0.0600000   6.128906e-05  1.496315e-08
    306    309   2   0.50000    -0.1200000   -0.1200000   1.015252e-03  1.866303e-06
    306    336   2   0.50000    -0.1200000    0.0600000   2.494471e-04  1.671101e-07
    306    337   2   0.50000    -0.1200000    0.0600000   2.494471e-04  1.671101e-07
    334    309   2   0.50000     0.0600000   -0.1200000   2.494471e-04  1.671101e-07
    334    336   2   0.50000     0.0600000    0.0600000   6.128906e-05  1.496315e-08
    334    337   2   0.50000     0.0600000    0.0600000   6.128906e-05  1.496315e-08
    335    309   2   0.50000     0.0600000   -0.1200000   2.494471e-04  1.671101e-07
    335    336   2   0.50000     0.0600000    0.0600000   6.128906e-05  1.496315e-08
    335    337   2   0.50000     0.0600000    0.0600000   6.128906e-05  1.496315e-08
    307    310   2   0.50000    -0.1200000   -0.1200000   1.015252e-03  1.866303e-06
    307    338   2   0.50000    -0.1200000    0.0600000   2.494471e-04  1.671101e-07
    307    339   2   0.50000    -0.1200000    0.0600000   2.494471e-04  1.671101e-07
    336    310   2   0.50000     0.0600000   -0.1200000   2.494471e-04  1.671101e-07
    336    338   2   0.50000     0.0600000    0.0600000   6.128906e-05  1.496315e-08
    336    339   2   0.50000     0.0600000    0.0600000   6.128906e-05  1.496315e-08
    337    310   2   0.50000     0.0600000   -0.1200000   2.494471e-04  1.671101e-07
    337    338   2   0.50000     0.0600000    0.0600000   6.128906e-05  1.496315e-08
    337    339   2   0.50000     0.0600000    0.0600000   6.128906e-05  1.496315e-08
    308    311   2   0.50000    -0.1200000   -0.1200000   1.015252e-03  1.866303e-06
    308    340   2   0.50000    -0.1200000    0.0600000   2.494471e-04  1.671101e-07
    308    341   2   0.50000    -0.1200000    0.0600000   2.494471e-04  1.671101e-07
    338    311   2   0.50000     0.0600000   -0.1200000   2.494471e-04  1.671101e-07
    338    340   2   0.50000     0.0600000    0.0600000   6.128906e-05  1.496315e-08
    338    341   2   0.50000     0.0600000    0.0600000   6.128906e-05  1.496315e-08
    339    311   2   0.50000     0.0600000   -0.1200000   2.494471e-04  1.671101e-07
    339    340   2   0.50000     0.0600000    0.0600000   6.128906e-05  1.496315e-08
    339    341   2   0.50000     0.0600000    0.0600000   6.128906e-05  1.496315e-08
    309    312   2   0.50000    -0.1200000    0.1900000   1.015252e-03  1.866303e-06
    309    342   2   0.50000    -0.1200000    0.0600000   2.494471e-04  1.671101e-07
    309    343   2   0.50000    -0.1200000    0.0600000   2.494471e-04  1.671101e-07
    340    312   2   0.50000     0.0600000    0.1900000   2.494471e-04  1.671101e-07
    340    342   2   0.50000     0.0600000    0.0600000   6.128906e-05  1.496315e-08
    340    343   2   0.50000     0.0600000    0.0600000   6.128906e-05  1.496315e-08
    341    312   2   0.50000     0.0600000    0.1900000   2.494471e-04  1.671101e-07
    341    342   2   0.50000     0.0600000    0.0600000   6.128906e-05  1.496315e-08
    341    343   2   0.50000     0.0600000    0.0600000   6.128906e-05  1.496315e-08
    310    313   2   0.50000    -0.1200000   -0.3300000   1.026091e-03  1.187829e-06
    310    344   2   0.50000    -0.1200000    0.0300000   1.599888e-04  9.721644e-08
    310    345   2   0.50000    -0.1200000    0.0300000   1.599888e-04  9.721644e-08
    342    313   2   0.50000     0.0600000   -0.3300000   2.521103e-04  1.063590e-07
    342    344   2   0.50000     0.0600000    0.0300000   3.930919e-05  8.704828e-09
    342    345   2   0.50000     0.0600000    0.0300000   3.930919e-05  8.704828e-09
    343    313   2   0.50000     0.0600000   -0.3300000   2.521103e-04  1.063590e-07
    343    344   2   0.50000     0.0600000    0.0300000   3.930919e-05  8.704828e-09
    343    345   2   0.50000     0.0600000    0.0300000   3.930919e-05  8.704828e-09
    311    314   2   0.50000    -0.1200000    0.5100000   1.575021e-03  3.561100e-06
    344    314   2   0.50000     0.0300000    0.5100000   2.482000e-04  1.854991e-07
    345    314   2   0.50000     0.0300000    0.5100000   2.482000e-04  1.854991e-07
    312    315   2   0.50000     0.1900000   -0.4300000   1.095425e-03  1.218041e-06
    312    316   2   0.50000     0.1900000   -0.1200000   1.015252e-03  1.866303e-06
    313    317   2   0.50000    -0.3300000   -0.1200000   1.026091e-03  1.187829e-06
    313    346   2   0.50000    -0.3300000    0.0600000   1.616969e-04  6.187447e-08
    313    347   2   0.50000    -0.3300000    0.0600000   1.616969e-04  6.187447e-08
    315    317   2   0.50000    -0.4300000   -0.1200000   1.095425e-03  1.218041e-06
    315    346   2   0.50000    -0.4300000    0.0600000   1.726228e-04  6.344822e-08
    315    347   2   0.50000    -0.4300000    0.0600000   1.726228e-04  6.344822e-08
    314    318   2   0.50000     0.5100000   -0.1200000   1.575021e-03  3.561100e-06
    314    348   2   0.50000     0.5100000    0.0600000   3.869820e-04  3.188634e-07
    314    349   2   0.50000     0.5100000    0.0600000   3.869820e-04  3.188634e-07
    346    318   2   0.50000     0.0600000   -0.1200000   1.599888e-04  9.721644e-08
    346    348   2   0.50000     0.0600000    0.0600000   3.930919e-05  8.704828e-09
    346    349   2   0.50000     0.0600000    0.0600000   3.930919e-05  8.704828e-09
    347    318   2   0.50000     0.0600000   -0.1200000   1.599888e-04  9.721644e-08
    347    348   2   0.50000     0.0600000    0.0600000   3.930919e-05  8.704828e-09
    347    349   2   0.50000     0.0600000    0.0600000   3.930919e-05  8.704828e-09
    316    319   2   0.50000    -0.1200000   -0.1200000   1.015252e-03  1.866303e-06
    316    350   2   0.50000    -0.1200000    0.0600000   2.494471e-04  1.671101e-07
    316    351   2   0.50000    -0.1200000    0.0600000   2.494471e-04  1.671101e-07
    348    319   2   0.50000     0.0600000   -0.1200000   2.494471e-04  1.671101e-07
    348    350   2   0.50000     0.0600000    0.0600000   6.128906e-05  1.496315e-08
    348    351   2   0.50000     0.0600000    0.0600000   6.128906e-05  1.496315e-08
    349    319   2   0.50000     0.0600000   -0.1200000   2.494471e-04  1.671101e-07
    349    350   2   0.50000     0.0600000    0.0600000   6.128906e-05  1.496315e-08
    349    351   2   0.50000     0.0600000    0.0600000   6.128906e-05  1.496315e-08
    317    320   2   0.50000    -0.1200000   -0.1200000   1.015252e-03  1.866303e-06
    317    352   2   0.50000    -0.1200000    0.0600000   2.494471e-04  1.671101e-07
    317    353   2   0.50000    -0.1200000    0.0600000   2.494471e-04  1.671101e-07
    350    320   2   0.50000     0.0600000   -0.1200000   2.494471e-04  1.671101e-07
    350    352   2   0.50000     0.0600000    0.0600000   6.128906e-05  1.496315e-08
    350    353   2   0.50000     0.0600000    0.0600000   6.128906e-05  1.496315e-08
    351    320   2   0.50000     0.0600000   -0.1200000   2.494471e-04  1.671101e-07
    351    352   2   0.50000     0.0600000    0.0600000   6.128906e-05  1.496315e-08
    351    353   2   0.50000     0.0600000    0.0600000   6.128906e-05  1.496315e-08
    318    321   2   0.50000    -0.1200000   -0.1200000   1.015252e-03  1.866303e-06
    318    354   2   0.50000    -0.1200000    0.0600000   2.494471e-04  1.671101e-07
    318    355   2   0.50000    -0.1200000    0.0600000   2.494471e-04  1.671101e-07
    352    321   2   0.50000     0.0600000   -0.1200000   2.494471e-04  1.671101e-07
    352    354   2   0.50000     0.0600000    0.0600000   6.128906e-05  1.496315e-08
    352    355   2   0.50000     0.0600000    0.0600000   6.128906e-05  1.496315e-08
    353    321   2   0.50000     0.0600000   -0.1200000   2.494471e-04  1.671101e-07
    353    354   2   0.50000     0.0600000    0.0600000   6.128906e-05  1.496315e-08
    353    355   2   0.50000     0.0600000    0.0600000   6.128906e-05  1.496315e-08
    319    322   2   0.50000    -0.1200000   -0.1200000   1.015252e-03  1.866303e-06
    319    356   2   0.50000    -0.1200000    0.0600000   2.494471e-04  1.671101e-07
    319    357   2   0.50000    -0.1200000    0.0600000   2.494471e-04  1.671101e-07
    354    322   2   0.50000     0.0600000   -0.1200000   2.494471e-04  1.671101e-07
    354    356   2   0.50000     0.0600000    0.0600000   6.128906e-05  1.496315e-08
    354    357   2   0.50000     0.0600000    0.0600000   6.128906e-05  1.496315e-08
    355    322   2   0.50000     0.0600000   -0.1200000   2.494471e-04  1.671101e-07
    355    356   2   0.50000     0.0600000    0.0600000   6.128906e-05  1.496315e-08
    355    357   2   0.50000     0.0600000    0.0600000   6.128906e-05  1.496315e-08
    320    323   2   0.50000    -0.1200000   -0.1200000   1.015252e-03  1.866303e-06
    320    358   2   0.50000    -0.1200000    0.0600000   2.494471e-04  1.671101e-07
    320    359   2   0.50000    -0.1200000    0.0600000   2.494471e-04  1.671101e-07
    356    323   2   0.50000     0.0600000   -0.1200000   2.494471e-04  1.671101e-07
    356    358   2   0.50000     0.0600000    0.0600000   6.128906e-05  1.496315e-08
    356    359   2   0.50000     0.0600000    0.0600000   6.128906e-05  1.496315e-08
    357    323   2   0.50000     0.0600000   -0.1200000   2.494471e-04  1.671101e-07
    357    358   2   0.50000     0.0600000    0.0600000   6.128906e-05  1.496315e-08
    357    359   2   0.50000     0.0600000    0.0600000   6.128906e-05  1.496315e-08
    321    324   2   0.50000    -0.1200000    0.5100000   1.575021e-03  3.561100e-06
    321    360   2   0.50000    -0.1200000    0.0600000   1.599888e-04  9.721644e-08
    321    361   2   0.50000    -0.1200000    0.0600000   1.599888e-04  9.721644e-08
    358    324   2   0.50000     0.0600000    0.5100000   3.869820e-04  3.188634e-07
    358    360   2   0.50000     0.0600000    0.0600000   3.930919e-05  8.704828e-09
    358    361   2   0.50000     0.0600000    0.0600000   3.930919e-05  8.704828e-09
    359    324   2   0.50000     0.0600000    0.5100000   3.869820e-04  3.188634e-07
    359    360   2   0.50000     0.0600000    0.0600000   3.930919e-05  8.704828e-09
    359    361   2   0.50000     0.0600000    0.0600000   3.930919e-05  8.704828e-09
    322    325   2   0.50000    -0.1200000   -0.4300000   1.095425e-03  1.218041e-06
    322    362   2   0.50000    -0.1200000   -0.3300000   1.026091e-03  1.187829e-06
    360    325   2   0.50000     0.0600000   -0.4300000   1.726228e-04  6.344822e-08
    360    362   2   0.50000     0.0600000   -0.3300000   1.616969e-04  6.187447e-08
    361    325   2   0.50000     0.0600000   -0.4300000   1.726228e-04  6.344822e-08
    361    362   2   0.50000     0.0600000   -0.3300000   1.616969e-04  6.187447e-08
    323    363   2   0.50000    -0.1200000    0.1900000   1.015252e-03  1.866303e-06
    325    363   2   0.50000    -0.4300000    0.1900000   1.095425e-03  1.218041e-06
    324    364   2   0.50000     0.5100000   -0.1200000   1.575021e-03  3.561100e-06
    324    386   2   0.50000     0.5100000    0.0300000   2.482000e-04  1.854991e-07
    324    387   2   0.50000     0.5100000    0.0300000   2.482000e-04  1.854991e-07
    362    365   2   0.50000    -0.3300000   -0.1200000   1.026091e-03  1.187829e-06
    362    388   2   0.50000    -0.3300000    0.0600000   2.521103e-04  1.063590e-07
    362    389   2   0.50000    -0.3300000    0.0600000   2.521103e-04  1.063590e-07
    386    365   2   0.50000     0.0300000   -0.1200000   1.599888e-04  9.721644e-08
    386    388   2   0.50000     0.0300000    0.0600000   3.930919e-05  8.704828e-09
    386    389   2   0.50000     0.0300000    0.0600000   3.930919e-05  8.704828e-09
    387    365   2   0.50000     0.0300000   -0.1200000   1.599888e-04  9.721644e-08
    387    388   2   0.50000     0.0300000    0.0600000   3.930919e-05  8.704828e-09
    387    389   2   0.50000     0.0300000    0.0600000   3.930919e-05  8.704828e-09
    363    366   2   0.50000     0.1900000   -0.1200000   1.015252e-03  1.866303e-06
    363    390   2   0.50000     0.1900000    0.0600000   2.494471e-04  1.671101e-07
    363    391   2   0.50000     0.1900000    0.0600000   2.494471e-04  1.671101e-07
    388    366   2   0.50000     0.0600000   -0.1200000   2.494471e-04  1.671101e-07
    388    390   2   0.50000     0.0600000    0.0600000   6.128906e-05  1.496315e-08
    388    391   2   0.50000     0.0600000    0.0600000   6.128906e-05  1.496315e-08
    389    366   2   0.50000     0.0600000   -0.1200000   2.494471e-04  1.671101e-07
    389    390   2   0.50000     0.0600000    0.0600000   6.128906e-05  1.496315e-08
    389    391   2   0.50000     0.0600000    0.0600000   6.128906e-05  1.496315e-08
    364    367   2   0.50000    -0.1200000   -0.1200000   1.015252e-03  1.866303e-06
    364    392   2   0.50000    -0.1200000    0.0600000   2.494471e-04  1.671101e-07
    364    393   2   0.50000    -0.1200000    0.0600000   2.494471e-04  1.671101e-07
    390    367   2   0.50000     0.0600000   -0.1200000   2.494471e-04  1.671101e-07
    390    392   2   0.50000     0.0600000    0.0600000   6.128906e-05  1.496315e-08
    390    393   2   0.50000     0.0600000    0.0600000   6.128906e-05  1.496315e-08
    391    367   2   0.50000     0.0600000   -0.1200000   2.494471e-04  1.671101e-07
    391    392   2   0.50000     0.0600000    0.0600000   6.128906e-05  1.496315e-08
    391    393   2   0.50000     0.0600000    0.0600000   6.128906e-05  1.496315e-08
    365    368   2   0.50000    -0.1200000   -0.1200000   1.015252e-03  1.866303e-06
    365    394   2   0.50000    -0.1200000    0.0600000   2.494471e-04  1.671101e-07
    365    395   2   0.50000    -0.1200000    0.0600000   2.494471e-04  1.671101e-07
    392    368   2   0.50000     0.0600000   -0.1200000   2.494471e-04  1.671101e-07
    392    394   2   0.50000     0.0600000    0.0600000   6.128906e-05  1.496315e-08
    392    395   2   0.50000     0.0600000    0.0600000   6.128906e-05  1.496315e-08
    393    368   2   0.50000     0.0600000   -0.1200000   2.494471e-04  1.671101e-07
    393    394   2   0.50000     0.0600000    0.0600000   6.128906e-05  1.496315e-08
    393    395   2   0.50000     0.0600000    0.0600000   6.128906e-05  1.496315e-08
    366    369   2   0.50000    -0.1200000   -0.1200000   1.015252e-03  1.866303e-06
    366    396   2   0.50000    -0.1200000    0.0600000   2.494471e-04  1.671101e-07
    366    397   2   0.50000    -0.1200000    0.0600000   2.494471e-04  1.671101e-07
    394    369   2   0.50000     0.0600000   -0.1200000   2.494471e-04  1.671101e-07
    394    396   2   0.50000     0.0600000    0.0600000   6.128906e-05  1.496315e-08
    394    397   2   0.50000     0.0600000    0.0600000   6.128906e-05  1.496315e-08
    395    369   2   0.50000     0.0600000   -0.1200000   2.494471e-04  1.671101e-07
    395    396   2   0.50000     0.0600000    0.0600000   6.128906e-05  1.496315e-08
    395    397   2   0.50000     0.0600000    0.0600000   6.128906e-05  1.496315e-08
    367    370   2   0.50000    -0.1200000   -0.1200000   1.015252e-03  1.866303e-06
    367    398   2   0.50000    -0.1200000    0.0600000   2.494471e-04  1.671101e-07
    367    399   2   0.50000    -0.1200000    0.0600000   2.494471e-04  1.671101e-07
    396    370   2   0.50000     0.0600000   -0.1200000   2.494471e-04  1.671101e-07
    396    398   2   0.50000     0.0600000    0.0600000   6.128906e-05  1.496315e-08
    396    399   2   0.50000     0.0600000    0.0600000   6.128906e-05  1.496315e-08
    397    370   2   0.50000     0.0600000   -0.1200000   2.494471e-04  1.671101e-07
    397    398   2   0.50000     0.0600000    0.0600000   6.128906e-05  1.496315e-08
    397    399   2   0.50000     0.0600000    0.0600000   6.128906e-05  1.496315e-08
    368    371   2   0.50000    -0.1200000   -0.1200000   1.015252e-03  1.866303e-06
    368    400   2   0.50000    -0.1200000    0.0600000   2.494471e-04  1.671101e-07
    368    401   2   0.50000    -0.1200000    0.0600000   2.494471e-04  1.671101e-07
    398    371   2   0.50000     0.0600000   -0.1200000   2.494471e-04  1.671101e-07
    398    400   2   0.50000     0.0600000    0.0600000   6.128906e-05  1.496315e-08
    398    401   2   0.50000     0.0600000    0.0600000   6.128906e-05  1.496315e-08
    399    371   2   0.50000     0.0600000   -0.1200000   2.494471e-04  1.671101e-07
    399    400   2   0.50000     0.0600000    0.0600000   6.128906e-05  1.496315e-08
    399    401   2   0.50000     0.0600000    0.0600000   6.128906e-05  1.496315e-08
    369    372   2   0.50000    -0.1200000    0.1900000   1.015252e-03  1.866303e-06
    369    402   2   0.50000    -0.1200000    0.0600000   2.494471e-04  1.671101e-07
    369    403   2   0.50000    -0.1200000    0.0600000   2.494471e-04  1.671101e-07
    400    372   2   0.50000     0.0600000    0.1900000   2.494471e-04  1.671101e-07
    400    402   2   0.50000     0.0600000    0.0600000   6.128906e-05  1.496315e-08
    400    403   2   0.50000     0.0600000    0.0600000   6.128906e-05  1.496315e-08
    401    372   2   0.50000     0.0600000    0.1900000   2.494471e-04  1.671101e-07
    401    402   2   0.50000     0.0600000    0.0600000   6.128906e-05  1.496315e-08
    401    403   2   0.50000     0.0600000    0.0600000   6.128906e-05  1.496315e-08
    370    373   2   0.50000    -0.1200000   -0.3300000   1.026091e-03  1.187829e-06
    370    404   2   0.50000    -0.1200000    0.0300000   1.599888e-04  9.721644e-08
    370    405   2   0.50000    -0.1200000    0.0300000   1.599888e-04  9.721644e-08
    402    373   2   0.50000     0.0600000   -0.3300000   2.521103e-04  1.063590e-07
    402    404   2   0.50000     0.0600000    0.0300000   3.930919e-05  8.704828e-09
    402    405   2   0.50000     0.0600000    0.0300000   3.930919e-05  8.704828e-09
    403    373   2   0.50000     0.0600000   -0.3300000   2.521103e-04  1.063590e-07
    403    404   2   0.50000     0.0600000    0.0300000   3.930919e-05  8.704828e-09
    403    405   2   0.50000     0.0600000    0.0300000   3.930919e-05  8.704828e-09
    371    374   2   0.50000    -0.1200000    0.5100000   1.575021e-03  3.561100e-06
    404    374   2   0.50000     0.0300000    0.5100000   2.482000e-04  1.854991e-07
    405    374   2   0.50000     0.0300000    0.5100000   2.482000e-04  1.854991e-07
    372    375   2   0.50000     0.1900000   -0.4300000   1.095425e-03  1.218041e-06
    372    376   2   0.50000     0.1900000   -0.1200000   1.015252e-03  1.866303e-06
    373    377   2   0.50000    -0.3300000   -0.1200000   1.026091e-03  1.187829e-06
    373    406   2   0.50000    -0.3300000    0.0600000   1.616969e-04  6.187447e-08
    373    407   2   0.50000    -0.3300000    0.0600000   1.616969e-04  6.187447e-08
    375    377   2   0.50000    -0.4300000   -0.1200000   1.095425e-03  1.218041e-06
    375    406   2   0.50000    -0.4300000    0.0600000   1.726228e-04  6.344822e-08
    375    407   2   0.50000    -0.4300000    0.0600000   1.726228e-04  6.344822e-08
    374    378   2   0.50000     0.5100000   -0.1200000   1.575021e-03  3.561100e-06
    374    408   2   0.50000     0.5100000    0.0600000   3.869820e-04  3.188634e-07
    374    409   2   0.50000     0.5100000    0.0600000   3.869820e-04  3.188634e-07
    406    378   2   0.50000     0.0600000   -0.1200000   1.599888e-04  9.721644e-08
    406    408   2   0.50000     0.0600000    0.0600000   3.930919e-05  8.704828e-09
    406    409   2   0.50000     0.0600000    0.0600000   3.930919e-05  8.704828e-09
    407    378   2   0.50000     0.0600000   -0.1200000   1.599888e-04  9.721644e-08
    407    408   2   0.50000     0.0600000    0.0600000   3.930919e-05  8.704828e-09
    407    409   2   0.50000     0.0600000    0.0600000   3.930919e-05  8.704828e-09
    376    379   2   0.50000    -0.1200000   -0.1200000   1.015252e-03  1.866303e-06
    376    410   2   0.50000    -0.1200000    0.0600000   2.494471e-04  1.671101e-07
    376    411   2   0.50000    -0.1200000    0.0600000   2.494471e-04  1.671101e-07
    408    379   2   0.50000     0.0600000   -0.1200000   2.494471e-04  1.671101e-07
    408    410   2   0.50000     0.0600000    0.0600000   6.128906e-05  1.496315e-08
    408    411   2   0.50000     0.0600000    0.0600000   6.128906e-05  1.496315e-08
    409    379   2   0.50000     0.0600000   -0.1200000   2.494471e-04  1.671101e-07
    409    410   2   0.50000     0.0600000    0.0600000   6.128906e-05  1.496315e-08
    409    411   2   0.50000     0.0600000    0.0600000   6.128906e-05  1.496315e-08
    377    380   2   0.50000    -0.1200000   -0.1200000   1.015252e-03  1.866303e-06
    377    412   2   0.50000    -0.1200000    0.0600000   2.494471e-04  1.671101e-07
    377    413   2   0.50000    -0.1200000    0.0600000   2.494471e-04  1.671101e-07
    410    380   2   0.50000     0.0600000   -0.1200000   2.494471e-04  1.671101e-07
    410    412   2   0.50000     0.0600000    0.0600000   6.128906e-05  1.496315e-08
    410    413   2   0.50000     0.0600000    0.0600000   6.128906e-05  1.496315e-08
    411    380   2   0.50000     0.0600000   -0.1200000   2.494471e-04  1.671101e-07
    411    412   2   0.50000     0.0600000    0.0600000   6.128906e-05  1.496315e-08
    411    413   2   0.50000     0.0600000    0.0600000   6.128906e-05  1.496315e-08
    378    381   2   0.50000    -0.1200000   -0.1200000   1.015252e-03  1.866303e-06
    378    414   2   0.50000    -0.1200000    0.0600000   2.494471e-04  1.671101e-07
    378    415   2   0.50000    -0.1200000    0.0600000   2.494471e-04  1.671101e-07
    412    381   2   0.50000     0.0600000   -0.1200000   2.494471e-04  1.671101e-07
    412    414   2   0.50000     0.0600000    0.0600000   6.128906e-05  1.496315e-08
    412    415   2   0.50000     0.0600000    0.0600000   6.128906e-05  1.496315e-08
    413    381   2   0.50000     0.0600000   -0.1200000   2.494471e-04  1.671101e-07
    413    414   2   0.50000     0.0600000    0.0600000   6.128906e-05  1.496315e-08
    413    415   2   0.50000     0.0600000    0.0600000   6.128906e-05  1.496315e-08
    379    382   2   0.50000    -0.1200000   -0.1200000   1.015252e-03  1.866303e-06
    379    416   2   0.50000    -0.1200000    0.0600000   2.494471e-04  1.671101e-07
    379    417   2   0.50000    -0.1200000    0.0600000   2.494471e-04  1.671101e-07
    414    382   2   0.50000     0.0600000   -0.1200000   2.494471e-04  1.671101e-07
    414    416   2   0.50000     0.0600000    0.0600000   6.128906e-05  1.496315e-08
    414    417   2   0.50000     0.0600000    0.0600000   6.128906e-05  1.496315e-08
    415    382   2   0.50000     0.0600000   -0.1200000   2.494471e-04  1.671101e-07
    415    416   2   0.50000     0.0600000    0.0600000   6.128906e-05  1.496315e-08
    415    417   2   0.50000     0.0600000    0.0600000   6.128906e-05  1.496315e-08
    380    383   2   0.50000    -0.1200000   -0.1200000   1.015252e-03  1.866303e-06
    380    418   2   0.50000    -0.1200000    0.0600000   2.494471e-04  1.671101e-07
    380    419   2   0.50000    -0.1200000    0.0600000   2.494471e-04  1.671101e-07
    416    383   2   0.50000     0.0600000   -0.1200000   2.494471e-04  1.671101e-07
    416    418   2   0.50000     0.0600000    0.0600000   6.128906e-05  1.496315e-08
    416    419   2   0.50000     0.0600000    0.0600000   6.128906e-05  1.496315e-08
    417    383   2   0.50000     0.0600000   -0.1200000   2.494471e-04  1.671101e-07
    417    418   2   0.50000     0.0600000    0.0600000   6.128906e-05  1.496315e-08
    417    419   2   0.50000     0.0600000    0.0600000   6.128906e-05  1.496315e-08
    381    384   2   0.50000    -0.1200000    0.5100000   1.575021e-03  3.561100e-06
    381    420   2   0.50000    -0.1200000    0.0600000   1.599888e-04  9.721644e-08
    381    421   2   0.50000    -0.1200000    0.0600000   1.599888e-04  9.721644e-08
    418    384   2   0.50000     0.0600000    0.5100000   3.869820e-04  3.188634e-07
    418    420   2   0.50000     0.0600000    0.0600000   3.930919e-05  8.704828e-09
    418    421   2   0.50000     0.0600000    0.0600000   3.930919e-05  8.704828e-09
    419    384   2   0.50000     0.0600000    0.5100000   3.869820e-04  3.188634e-07
    419    420   2   0.50000     0.0600000    0.0600000   3.930919e-05  8.704828e-09
    419    421   2   0.50000     0.0600000    0.0600000   3.930919e-05  8.704828e-09
    382    385   2   0.50000    -0.1200000   -0.4300000   1.095425e-03  1.218041e-06
    382    422   2   0.50000    -0.1200000   -0.3300000   1.026091e-03  1.187829e-06
    420    385   2   0.50000     0.0600000   -0.4300000   1.726228e-04  6.344822e-08
    420    422   2   0.50000     0.0600000   -0.3300000   1.616969e-04  6.187447e-08
    421    385   2   0.50000     0.0600000   -0.4300000   1.726228e-04  6.344822e-08
    421    422   2   0.50000     0.0600000   -0.3300000   1.616969e-04  6.187447e-08
    383    423   2   0.50000    -0.1200000    0.1900000   1.015252e-03  1.866303e-06
    385    423   2   0.50000    -0.4300000    0.1900000   1.095425e-03  1.218041e-06
    384    424   2   0.50000     0.5100000   -0.1200000   1.575021e-03  3.561100e-06
    384    446   2   0.50000     0.5100000    0.0300000   2.482000e-04  1.854991e-07
    384    447   2   0.50000     0.5100000    0.0300000   2.482000e-04  1.854991e-07
    422    425   2   0.50000    -0.3300000   -0.1200000   1.026091e-03  1.187829e-06
    422    448   2   0.50000    -0.3300000    0.0600000   2.521103e-04  1.063590e-07
    422    449   2   0.50000    -0.3300000    0.0600000   2.521103e-04  1.063590e-07
    446    425   2   0.50000     0.0300000   -0.1200000   1.599888e-04  9.721644e-08
    446    448   2   0.50000     0.0300000    0.0600000   3.930919e-05  8.704828e-09
    446    449   2   0.50000     0.0300000    0.0600000   3.930919e-05  8.704828e-09
    447    425   2   0.50000     0.0300000   -0.1200000   1.599888e-04  9.721644e-08
    447    448   2   0.50000     0.0300000    0.0600000   3.930919e-05  8.704828e-09
    447    449   2   0.50000     0.0300000    0.0600000   3.930919e-05  8.704828e-09
    423    426   2   0.50000     0.1900000   -0.1200000   1.015252e-03  1.866303e-06
    423    450   2   0.50000     0.1900000    0.0600000   2.494471e-04  1.671101e-07
    423    451   2   0.50000     0.1900000    0.0600000   2.494471e-04  1.671101e-07
    448    426   2   0.50000     0.0600000   -0.1200000   2.494471e-04  1.671101e-07
    448    450   2   0.50000     0.0600000    0.0600000   6.128906e-05  1.496315e-08
    448    451   2   0.50000     0.0600000    0.0600000   6.128906e-05  1.496315e-08
    449    426   2   0.50000     0.0600000   -0.1200000   2.494471e-04  1.671101e-07
    449    450   2   0.50000     0.0600000    0.0600000   6.128906e-05  1.496315e-08
    449    451   2   0.50000     0.0600000    0.0600000   6.128906e-05  1.496315e-08
    424    427   2   0.50000    -0.1200000   -0.1200000   1.015252e-03  1.866303e-06
    424    452   2   0.50000    -0.1200000    0.0600000   2.494471e-04  1.671101e-07
    424    453   2   0.50000    -0.1200000    0.0600000   2.494471e-04  1.671101e-07
    450    427   2   0.50000     0.0600000   -0.1200000   2.494471e-04  1.671101e-07
    450    452   2   0.50000     0.0600000    0.0600000   6.128906e-05  1.496315e-08
    450    453   2   0.50000     0.0600000    0.0600000   6.128906e-05  1.496315e-08
    451    427   2   0.50000     0.0600000   -0.1200000   2.494471e-04  1.671101e-07
    451    452   2   0.50000     0.0600000    0.0600000   6.128906e-05  1.496315e-08
    451    453   2   0.50000     0.0600000    0.0600000   6.128906e-05  1.496315e-08
    425    428   2   0.50000    -0.1200000   -0.1200000   1.015252e-03  1.866303e-06
    425    454   2   0.50000    -0.1200000    0.0600000   2.494471e-04  1.671101e-07
    425    455   2   0.50000    -0.1200000    0.0600000   2.494471e-04  1.671101e-07
    452    428   2   0.50000     0.0600000   -0.1200000   2.494471e-04  1.671101e-07
    452    454   2   0.50000     0.0600000    0.0600000   6.128906e-05  1.496315e-08
    452    455   2   0.50000     0.0600000    0.0600000   6.128906e-05  1.496315e-08
    453    428   2   0.50000     0.0600000   -0.1200000   2.494471e-04  1.671101e-07
    453    454   2   0.50000     0.0600000    0.0600000   6.128906e-05  1.496315e-08
    453    455   2   0.50000     0.0600000    0.0600000   6.128906e-05  1.496315e-08
    426    429   2   0.50000    -0.1200000   -0.1200000   1.015252e-03  1.866303e-06
    426    456   2   0.50000    -0.1200000    0.0600000   2.494471e-04  1.671101e-07
    426    457   2   0.50000    -0.1200000    0.0600000   2.494471e-04  1.671101e-07
    454    429   2   0.50000     0.0600000   -0.1200000   2.494471e-04  1.671101e-07
    454    456   2   0.50000     0.0600000    0.0600000   6.128906e-05  1.496315e-08
    454    457   2   0.50000     0.0600000    0.0600000   6.128906e-05  1.496315e-08
    455    429   2   0.50000     0.0600000   -0.1200000   2.494471e-04  1.671101e-07
    455    456   2   0.50000     0.0600000    0.0600000   6.128906e-05  1.496315e-08
    455    457   2   0.50000     0.0600000    0.0600000   6.128906e-05  1.496315e-08
    427    430   2   0.50000    -0.1200000   -0.1200000   1.015252e-03  1.866303e-06
    427    458   2   0.50000    -0.1200000    0.0600000   2.494471e-04  1.671101e-07
    427    459   2   0.50000    -0.1200000    0.0600000   2.494471e-04  1.671101e-07
    456    430   2   0.50000     0.0600000   -0.1200000   2.494471e-04  1.671101e-07
    456    458   2   0.50000     0.0600000    0.0600000   6.128906e-05  1.496315e-08
    456    459   2   0.50000     0.0600000    0.0600000   6.128906e-05  1.496315e-08
    457    430   2   0.50000     0.0600000   -0.1200000   2.494471e-04  1.671101e-07
    457    458   2   0.50000     0.0600000    0.0600000   6.128906e-05  1.496315e-08
    457    459   2   0.50000     0.0600000    0.0600000   6.128906e-05  1.496315e-08
    428    431   2   0.50000    -0.1200000   -0.1200000   1.015252e-03  1.866303e-06
    428    460   2   0.50000    -0.1200000    0.0600000   2.494471e-04  1.671101e-07
    428    461   2   0.50000    -0.1200000    0.0600000   2.494471e-04  1.671101e-07
    458    431   2   0.50000     0.0600000   -0.1200000   2.494471e-04  1.671101e-07
    458    460   2   0.50000     0.0600000    0.0600000   6.128906e-05  1.496315e-08
    458    461   2   0.50000     0.0600000    0.0600000   6.128906e-05  1.496315e-08
    459    431   2   0.50000     0.0600000   -0.1200000   2.494471e-04  1.671101e-07
    459    460   2   0.50000     0.0600000    0.0600000   6.128906e-05  1.496315e-08
    459    461   2   0.50000     0.0600000    0.0600000   6.128906e-05  1.496315e-08
    429    432   2   0.50000    -0.1200000    0.1900000   1.015252e-03  1.866303e-06
    429    462   2   0.50000    -0.1200000    0.0600000   2.494471e-04  1.671101e-07
    429    463   2   0.50000    -0.1200000    0.0600000   2.494471e-04  1.671101e-07
    460    432   2   0.50000     0.0600000    0.1900000   2.494471e-04  1.671101e-07
    460    462   2   0.50000     0.0600000    0.0600000   6.128906e-05  1.496315e-08
    460    463   2   0.50000     0.0600000    0.0600000   6.128906e-05  1.496315e-08
    461    432   2   0.50000     0.0600000    0.1900000   2.494471e-04  1.671101e-07
    461    462   2   0.50000     0.0600000    0.0600000   6.128906e-05  1.496315e-08
    461    463   2   0.50000     0.0600000    0.0600000   6.128906e-05  1.496315e-08
    430    433   2   0.50000    -0.1200000   -0.3300000   1.026091e-03  1.187829e-06
    430    464   2   0.50000    -0.1200000    0.0300000   1.599888e-04  9.721644e-08
    430    465   2   0.50000    -0.1200000    0.0300000   1.599888e-04  9.721644e-08
    462    433   2   0.50000     0.0600000   -0.3300000   2.521103e-04  1.063590e-07
    462    464   2   0.50000     0.0600000    0.0300000   3.930919e-05  8.704828e-09
    462    465   2   0.50000     0.0600000    0.0300000   3.930919e-05  8.704828e-09
    463    433   2   0.50000     0.0600000   -0.3300000   2.521103e-04  1.063590e-07
    463    464   2   0.50000     0.0600000    0.0300000   3.930919e-05  8.704828e-09
    463    465   2   0.50000     0.0600000    0.0300000   3.930919e-05  8.704828e-09
    431    434   2   0.50000    -0.1200000    0.5100000   1.575021e-03  3.561100e-06
    464    434   2   0.50000     0.0300000    0.5100000   2.482000e-04  1.854991e-07
    465    434   2   0.50000     0.0300000    0.5100000   2.482000e-04  1.854991e-07
    432    435   2   0.50000     0.1900000   -0.4300000   1.095425e-03  1.218041e-06
    432    436   2   0.50000     0.1900000   -0.1200000   1.015252e-03  1.866303e-06
    433    437   2   0.50000    -0.3300000   -0.1200000   1.026091e-03  1.187829e-06
    433    466   2   0.50000    -0.3300000    0.0600000   1.616969e-04  6.187447e-08
    433    467   2   0.50000    -0.3300000    0.0600000   1.616969e-04  6.187447e-08
    435    437   2   0.50000    -0.4300000   -0.1200000   1.095425e-03  1.218041e-06
    435    466   2   0.50000    -0.4300000    0.0600000   1.726228e-04  6.344822e-08
    435    467   2   0.50000    -0.4300000    0.0600000   1.726228e-04  6.344822e-08
    434    438   2   0.50000     0.5100000   -0.1200000   1.575021e-03  3.561100e-06
    434    468   2   0.50000     0.5100000    0.0600000   3.869820e-04  3.188634e-07
    434    469   2   0.50000     0.5100000    0.0600000   3.869820e-04  3.188634e-07
    466    438   2   0.50000     0.0600000   -0.1200000   1.599888e-04  9.721644e-08
    466    468   2   0.50000     0.0600000    0.0600000   3.930919e-05  8.704828e-09
    466    469   2   0.50000     0.0600000    0.0600000   3.930919e-05  8.704828e-09
    467    438   2   0.50000     0.0600000   -0.1200000   1.599888e-04  9.721644e-08
    467    468   2   0.50000     0.0600000    0.0600000   3.930919e-05  8.704828e-09
    467    469   2   0.50000     0.0600000    0.0600000   3.930919e-05  8.704828e-09
    436    439   2   0.50000    -0.1200000   -0.1200000   1.015252e-03  1.866303e-06
    436    470   2   0.50000    -0.1200000    0.0600000   2.494471e-04  1.671101e-07
    436    471   2   0.50000    -0.1200000    0.0600000   2.494471e-04  1.671101e-07
    468    439   2   0.50000     0.0600000   -0.1200000   2.494471e-04  1.671101e-07
    468    470   2   0.50000     0.0600000    0.0600000   6.128906e-05  1.496315e-08
    468    471   2   0.50000     0.0600000    0.0600000   6.128906e-05  1.496315e-08
    469    439   2   0.50000     0.0600000   -0.1200000   2.494471e-04  1.671101e-07
    469    470   2   0.50000     0.0600000    0.0600000   6.128906e-05  1.496315e-08
    469    471   2   0.50000     0.0600000    0.0600000   6.128906e-05  1.496315e-08
    437    440   2   0.50000    -0.1200000   -0.1200000   1.015252e-03  1.866303e-06
    437    472   2   0.50000    -0.1200000    0.0600000   2.494471e-04  1.671101e-07
    437    473   2   0.50000    -0.1200000    0.0600000   2.494471e-04  1.671101e-07
    470    440   2   0.50000     0.0600000   -0.1200000   2.494471e-04  1.671101e-07
    470    472   2   0.50000     0.0600000    0.0600000   6.128906e-05  1.496315e-08
    470    473   2   0.50000     0.0600000    0.0600000   6.128906e-05  1.496315e-08
    471    440   2   0.50000     0.0600000   -0.1200000   2.494471e-04  1.671101e-07
    471    472   2   0.50000     0.0600000    0.0600000   6.128906e-05  1.496315e-08
    471    473   2   0.50000     0.0600000    0.0600000   6.128906e-05  1.496315e-08
    438    441   2   0.50000    -0.1200000   -0.1200000   1.015252e-03  1.866303e-06
    438    474   2   0.50000    -0.1200000    0.0600000   2.494471e-04  1.671101e-07
    438    475   2   0.50000    -0.1200000    0.0600000   2.494471e-04  1.671101e-07
    472    441   2   0.50000     0.0600000   -0.1200000   2.494471e-04  1.671101e-07
    472    474   2   0.50000     0.0600000    0.0600000   6.128906e-05  1.496315e-08
    472    475   2   0.50000     0.0600000    0.0600000   6.128906e-05  1.496315e-08
    473    441   2   0.50000     0.0600000   -0.1200000   2.494471e-04  1.671101e-07
    473    474   2   0.50000     0.0600000    0.0600000   6.128906e-05  1.496315e-08
    473    475   2   0.50000     0.0600000    0.0600000   6.128906e-05  1.496315e-08
    439    442   2   0.50000    -0.1200000   -0.1200000   1.015252e-03  1.866303e-06
    439    476   2   0.50000    -0.1200000    0.0600000   2.494471e-04  1.671101e-07
    439    477   2   0.50000    -0.1200000    0.0600000   2.494471e-04  1.671101e-07
    474    442   2   0.50000     0.0600000   -0.1200000   2.494471e-04  1.671101e-07
    474    476   2   0.50000     0.0600000    0.0600000   6.128906e-05  1.496315e-08
    474    477   2   0.50000     0.0600000    0.0600000   6.128906e-05  1.496315e-08
    475    442   2   0.50000     0.0600000   -0.1200000   2.494471e-04  1.671101e-07
    475    476   2   0.50000     0.0600000    0.0600000   6.128906e-05  1.496315e-08
    475    477   2   0.50000     0.0600000    0.0600000   6.128906e-05  1.496315e-08
    440    443   2   0.50000    -0.1200000   -0.1200000   1.015252e-03  1.866303e-06
    440    478   2   0.50000    -0.1200000    0.0600000   2.494471e-04  1.671101e-07
    440    479   2   0.50000    -0.1200000    0.0600000   2.494471e-04  1.671101e-07
    476    443   2   0.50000     0.0600000   -0.1200000   2.494471e-04  1.671101e-07
    476    478   2   0.50000     0.0600000    0.0600000   6.128906e-05  1.496315e-08
    476    479   2   0.50000     0.0600000    0.0600000   6.128906e-05  1.496315e-08
    477    443   2   0.50000     0.0600000   -0.1200000   2.494471e-04  1.671101e-07
    477    478   2   0.50000     0.0600000    0.0600000   6.128906e-05  1.496315e-08
    477    479   2   0.50000     0.0600000    0.0600000   6.128906e-05  1.496315e-08
    441    444   2   0.50000    -0.1200000    0.5100000   1.575021e-03  3.561100e-06
    441    480   2   0.50000    -0.1200000    0.0600000   1.599888e-04  9.721644e-08
    441    481   2   0.50000    -0.1200000    0.0600000   1.599888e-04  9.721644e-08
    478    444   2   0.50000     0.0600000    0.5100000   3.869820e-04  3.188634e-07
    478    480   2   0.50000     0.0600000    0.0600000   3.930919e-05  8.704828e-09
    478    481   2   0.50000     0.0600000    0.0600000   3.930919e-05  8.704828e-09
    479    444   2   0.50000     0.0600000    0.5100000   3.869820e-04  3.188634e-07
    479    480   2   0.50000     0.0600000    0.0600000   3.930919e-05  8.704828e-09
    479    481   2   0.50000     0.0600000    0.0600000   3.930919e-05  8.704828e-09
    442    445   2   0.50000    -0.1200000   -0.4300000   1.095425e-03  1.218041e-06
    442    482   2   0.50000    -0.1200000   -0.3300000   1.026091e-03  1.187829e-06
    480    445   2   0.50000     0.0600000   -0.4300000   1.726228e-04  6.344822e-08
    480    482   2   0.50000     0.0600000   -0.3300000   1.616969e-04  6.187447e-08
    481    445   2   0.50000     0.0600000   -0.4300000   1.726228e-04  6.344822e-08
    481    482   2   0.50000     0.0600000   -0.3300000   1.616969e-04  6.187447e-08
    443    483   2   0.50000    -0.1200000    0.1900000   1.015252e-03  1.866303e-06
    445    483   2   0.50000    -0.4300000    0.1900000   1.095425e-03  1.218041e-06
    444    484   2   0.50000     0.5100000   -0.1200000   1.575021e-03  3.561100e-06
    444    506   2   0.50000     0.5100000    0.0300000   2.482000e-04  1.854991e-07
    444    507   2   0.50000     0.5100000    0.0300000   2.482000e-04  1.854991e-07
    482    485   2   0.50000    -0.3300000   -0.1200000   1.026091e-03  1.187829e-06
    482    508   2   0.50000    -0.3300000    0.0600000   2.521103e-04  1.063590e-07
    482    509   2   0.50000    -0.3300000    0.0600000   2.521103e-04  1.063590e-07
    506    485   2   0.50000     0.0300000   -0.1200000   1.599888e-04  9.721644e-08
    506    508   2   0.50000     0.0300000    0.0600000   3.930919e-05  8.704828e-09
    506    509   2   0.50000     0.0300000    0.0600000   3.930919e-05  8.704828e-09
    507    485   2   0.50000     0.0300000   -0.1200000   1.599888e-04  9.721644e-08
    507    508   2   0.50000     0.0300000    0.0600000   3.930919e-05  8.704828e-09
    507    509   2   0.50000     0.0300000    0.0600000   3.930919e-05  8.704828e-09
    483    486   2   0.50000     0.1900000   -0.1200000   1.015252e-03  1.866303e-06
    483    510   2   0.50000     0.1900000    0.0600000   2.494471e-04  1.671101e-07
    483    511   2   0.50000     0.1900000    0.0600000   2.494471e-04  1.671101e-07
    508    486   2   0.50000     0.0600000   -0.1200000   2.494471e-04  1.671101e-07
    508    510   2   0.50000     0.0600000    0.0600000   6.128906e-05  1.496315e-08
    508    511   2   0.50000     0.0600000    0.0600000   6.128906e-05  1.496315e-08
    509    486   2   0.50000     0.0600000   -0.1200000   2.494471e-04  1.671101e-07
    509    510   2   0.50000     0.0600000    0.0600000   6.128906e-05  1.496315e-08
    509    511   2   0.50000     0.0600000    0.0600000   6.128906e-05  1.496315e-08
    484    487   2   0.50000    -0.1200000   -0.1200000   1.015252e-03  1.866303e-06
    484    512   2   0.50000    -0.1200000    0.0600000   2.494471e-04  1.671101e-07
    484    513   2   0.50000    -0.1200000    0.0600000   2.494471e-04  1.671101e-07
    510    487   2   0.50000     0.0600000   -0.1200000   2.494471e-04  1.671101e-07
    510    512   2   0.50000     0.0600000    0.0600000   6.128906e-05  1.496315e-08
    510    513   2   0.50000     0.0600000    0.0600000   6.128906e-05  1.496315e-08
    511    487   2   0.50000     0.0600000   -0.1200000   2.494471e-04  1.671101e-07
    511    512   2   0.50000     0.0600000    0.0600000   6.128906e-05  1.496315e-08
    511    513   2   0.50000     0.0600000    0.0600000   6.128906e-05  1.496315e-08
    485    488   2   0.50000    -0.1200000   -0.1200000   1.015252e-03  1.866303e-06
    485    514   2   0.50000    -0.1200000    0.0600000   2.494471e-04  1.671101e-07
    485    515   2   0.50000    -0.1200000    0.0600000   2.494471e-04  1.671101e-07
    512    488   2   0.50000     0.0600000   -0.1200000   2.494471e-04  1.671101e-07
    512    514   2   0.50000     0.0600000    0.0600000   6.128906e-05  1.496315e-08
    512    515   2   0.50000     0.0600000    0.0600000   6.128906e-05  1.496315e-08
    513    488   2   0.50000     0.0600000   -0.1200000   2.494471e-04  1.671101e-07
    513    514   2   0.50000     0.0600000    0.0600000   6.128906e-05  1.496315e-08
    513    515   2   0.50000     0.0600000    0.0600000   6.128906e-05  1.496315e-08
    486    489   2   0.50000    -0.1200000   -0.1200000   1.015252e-03  1.866303e-06
    486    516   2   0.50000    -0.1200000    0.0600000   2.494471e-04  1.671101e-07
    486    517   2   0.50000    -0.1200000    0.0600000   2.494471e-04  1.671101e-07
    514    489   2   0.50000     0.0600000   -0.1200000   2.494471e-04  1.671101e-07
    514    516   2   0.50000     0.0600000    0.0600000   6.128906e-05  1.496315e-08
    514    517   2   0.50000     0.0600000    0.0600000   6.128906e-05  1.496315e-08
    515    489   2   0.50000     0.0600000   -0.1200000   2.494471e-04  1.671101e-07
    515    516   2   0.50000     0.0600000    0.0600000   6.128906e-05  1.496315e-08
    515    517   2   0.50000     0.0600000    0.0600000   6.128906e-05  1.496315e-08
    487    490   2   0.50000    -0.1200000   -0.1200000   1.015252e-03  1.866303e-06
    487    518   2   0.50000    -0.1200000    0.0600000   2.494471e-04  1.671101e-07
    487    519   2   0.50000    -0.1200000    0.0600000   2.494471e-04  1.671101e-07
    516    490   2   0.50000     0.0600000   -0.1200000   2.494471e-04  1.671101e-07
    516    518   2   0.50000     0.0600000    0.0600000   6.128906e-05  1.496315e-08
    516    519   2   0.50000     0.0600000    0.0600000   6.128906e-05  1.496315e-08
    517    490   2   0.50000     0.0600000   -0.1200000   2.494471e-04  1.671101e-07
    517    518   2   0.50000     0.0600000    0.0600000   6.128906e-05  1.496315e-08
    517    519   2   0.50000     0.0600000    0.0600000   6.128906e-05  1.496315e-08
    488    491   2   0.50000    -0.1200000   -0.1200000   1.015252e-03  1.866303e-06
    488    520   2   0.50000    -0.1200000    0.0600000   2.494471e-04  1.671101e-07
    488    521   2   0.50000    -0.1200000    0.0600000   2.494471e-04  1.671101e-07
    518    491   2   0.50000     0.0600000   -0.1200000   2.494471e-04  1.671101e-07
    518    520   2   0.50000     0.0600000    0.0600000   6.128906e-05  1.496315e-08
    518    521   2   0.50000     0.0600000    0.0600000   6.128906e-05  1.496315e-08
    519    491   2   0.50000     0.0600000   -0.1200000   2.494471e-04  1.671101e-07
    519    520   2   0.50000     0.0600000    0.0600000   6.128906e-05  1.496315e-08
    519    521   2   0.50000     0.0600000    0.0600000   6.128906e-05  1.496315e-08
    489    492   2   0.50000    -0.1200000    0.1900000   1.015252e-03  1.866303e-06
    489    522   2   0.50000    -0.1200000    0.0600000   2.494471e-04  1.671101e-07
    489    523   2   0.50000    -0.1200000    0.0600000   2.494471e-04  1.671101e-07
    520    492   2   0.50000     0.0600000    0.1900000   2.494471e-04  1.671101e-07
    520    522   2   0.50000     0.0600000    0.0600000   6.128906e-05  1.496315e-08
    520    523   2   0.50000     0.0600000    0.0600000   6.128906e-05  1.496315e-08
    521    492   2   0.50000     0.0600000    0.1900000   2.494471e-04  1.671101e-07
    521    522   2   0.50000     0.0600000    0.0600000   6.128906e-05  1.496315e-08
    521    523   2   0.50000     0.0600000    0.0600000   6.128906e-05  1.496315e-08
    490    493   2   0.50000    -0.1200000   -0.3300000   1.026091e-03  1.187829e-06
    490    524   2   0.50000    -0.1200000    0.0300000   1.599888e-04  9.721644e-08
    490    525   2   0.50000    -0.1200000    0.0300000   1.599888e-04  9.721644e-08
    522    493   2   0.50000     0.0600000   -0.3300000   2.521103e-04  1.063590e-07
    522    524   2   0.50000     0.0600000    0.0300000   3.930919e-05  8.704828e-09
    522    525   2   0.50000     0.0600000    0.0300000   3.930919e-05  8.704828e-09
    523    493   2   0.50000     0.0600000   -0.3300000   2.521103e-04  1.063590e-07
    523    524   2   0.50000     0.0600000    0.0300000   3.930919e-05  8.704828e-09
    523    525   2   0.50000     0.0600000    0.0300000   3.930919e-05  8.704828e-09
    491    494   2   0.50000    -0.1200000    0.5100000   1.575021e-03  3.561100e-06
    524    494   2   0.50000     0.0300000    0.5100000   2.482000e-04  1.854991e-07
    525    494   2   0.50000     0.0300000    0.5100000   2.482000e-04  1.854991e-07
    492    495   2   0.50000     0.1900000   -0.4300000   1.095425e-03  1.218041e-06
    492    496   2   0.50000     0.1900000   -0.1200000   1.015252e-03  1.866303e-06
    493    497   2   0.50000    -0.3300000   -0.1200000   1.026091e-03  1.187829e-06
    493    526   2   0.50000    -0.3300000    0.0600000   1.616969e-04  6.187447e-08
    493    527   2   0.50000    -0.3300000    0.0600000   1.616969e-04  6.187447e-08
    495    497   2   0.50000    -0.4300000   -0.1200000   1.095425e-03  1.218041e-06
    495    526   2   0.50000    -0.4300000    0.0600000   1.726228e-04  6.344822e-08
    495    527   2   0.50000    -0.4300000    0.0600000   1.726228e-04  6.344822e-08
    494    498   2   0.50000     0.5100000   -0.1200000   1.575021e-03  3.561100e-06
    494    528   2   0.50000     0.5100000    0.0600000   3.869820e-04  3.188634e-07
    494    529   2   0.50000     0.5100000    0.0600000   3.869820e-04  3.188634e-07
    526    498   2   0.50000     0.0600000   -0.1200000   1.599888e-04  9.721644e-08
    526    528   2   0.50000     0.0600000    0.0600000   3.930919e-05  8.704828e-09
    526    529   2   0.50000     0.0600000    0.0600000   3.930919e-05  8.704828e-09
    527    498   2   0.50000     0.0600000   -0.1200000   1.599888e-04  9.721644e-08
    527    528   2   0.50000     0.0600000    0.0600000   3.930919e-05  8.704828e-09
    527    529   2   0.50000     0.0600000    0.0600000   3.930919e-05  8.704828e-09
    496    499   2   0.50000    -0.1200000   -0.1200000   1.015252e-03  1.866303e-06
    496    530   2   0.50000    -0.1200000    0.0600000   2.494471e-04  1.671101e-07
    496    531   2   0.50000    -0.1200000    0.0600000   2.494471e-04  1.671101e-07
    528    499   2   0.50000     0.0600000   -0.1200000   2.494471e-04  1.671101e-07
    528    530   2   0.50000     0.0600000    0.0600000   6.128906e-05  1.496315e-08
    528    531   2   0.50000     0.0600000    0.0600000   6.128906e-05  1.496315e-08
    529    499   2   0.50000     0.0600000   -0.1200000   2.494471e-04  1.671101e-07
    529    530   2   0.50000     0.0600000    0.0600000   6.128906e-05  1.496315e-08
    529    531   2   0.50000     0.0600000    0.0600000   6.128906e-05  1.496315e-08
    497    500   2   0.50000    -0.1200000   -0.1200000   1.015252e-03  1.866303e-06
    497    532   2   0.50000    -0.1200000    0.0600000   2.494471e-04  1.671101e-07
    497    533   2   0.50000    -0.1200000    0.0600000   2.494471e-04  1.671101e-07
    530    500   2   0.50000     0.0600000   -0.1200000   2.494471e-04  1.671101e-07
    530    532   2   0.50000     0.0600000    0.0600000   6.128906e-05  1.496315e-08
    530    533   2   0.50000     0.0600000    0.0600000   6.128906e-05  1.496315e-08
    531    500   2   0.50000     0.0600000   -0.1200000   2.494471e-04  1.671101e-07
    531    532   2   0.50000     0.0600000    0.0600000   6.128906e-05  1.496315e-08
    531    533   2   0.50000     0.0600000    0.0600000   6.128906e-05  1.496315e-08
    498    501   2   0.50000    -0.1200000   -0.1200000   1.015252e-03  1.866303e-06
    498    534   2   0.50000    -0.1200000    0.0600000   2.494471e-04  1.671101e-07
    498    535   2   0.50000    -0.1200000    0.0600000   2.494471e-04  1.671101e-07
    532    501   2   0.50000     0.0600000   -0.1200000   2.494471e-04  1.671101e-07
    532    534   2   0.50000     0.0600000    0.0600000   6.128906e-05  1.496315e-08
    532    535   2   0.50000     0.0600000    0.0600000   6.128906e-05  1.496315e-08
    533    501   2   0.50000     0.0600000   -0.1200000   2.494471e-04  1.671101e-07
    533    534   2   0.50000     0.0600000    0.0600000   6.128906e-05  1.496315e-08
    533    535   2   0.50000     0.0600000    0.0600000   6.128906e-05  1.496315e-08
    499    502   2   0.50000    -0.1200000   -0.1200000   1.015252e-03  1.866303e-06
    499    536   2   0.50000    -0.1200000    0.0600000   2.494471e-04  1.671101e-07
    499    537   2   0.50000    -0.1200000    0.0600000   2.494471e-04  1.671101e-07
    534    502   2   0.50000     0.0600000   -0.1200000   2.494471e-04  1.671101e-07
    534    536   2   0.50000     0.0600000    0.0600000   6.128906e-05  1.496315e-08
    534    537   2   0.50000     0.0600000    0.0600000   6.128906e-05  1.496315e-08
    535    502   2   0.50000     0.0600000   -0.1200000   2.494471e-04  1.671101e-07
    535    536   2   0.50000     0.0600000    0.0600000   6.128906e-05  1.496315e-08
    535    537   2   0.50000     0.0600000    0.0600000   6.128906e-05  1.496315e-08
    500    503   2   0.50000    -0.1200000   -0.1200000   1.015252e-03  1.866303e-06
    500    538   2   0.50000    -0.1200000    0.0600000   2.494471e-04  1.671101e-07
    500    539   2   0.50000    -0.1200000    0.0600000   2.494471e-04  1.671101e-07
    536    503   2   0.50000     0.0600000   -0.1200000   2.494471e-04  1.671101e-07
    536    538   2   0.50000     0.0600000    0.0600000   6.128906e-05  1.496315e-08
    536    539   2   0.50000     0.0600000    0.0600000   6.128906e-05  1.496315e-08
    537    503   2   0.50000     0.0600000   -0.1200000   2.494471e-04  1.671101e-07
    537    538   2   0.50000     0.0600000    0.0600000   6.128906e-05  1.496315e-08
    537    539   2   0.50000     0.0600000    0.0600000   6.128906e-05  1.496315e-08
    501    504   2   0.50000    -0.1200000    0.5100000   1.575021e-03  3.561100e-06
    501    540   2   0.50000    -0.1200000    0.0600000   1.599888e-04  9.721644e-08
    501    541   2   0.50000    -0.1200000    0.0600000   1.599888e-04  9.721644e-08
    538    504   2   0.50000     0.0600000    0.5100000   3.869820e-04  3.188634e-07
    538    540   2   0.50000     0.0600000    0.0600000   3.930919e-05  8.704828e-09
    538    541   2   0.50000     0.0600000    0.0600000   3.930919e-05  8.704828e-09
    539    504   2   0.50000     0.0600000    0.5100000   3.869820e-04  3.188634e-07
    539    540   2   0.50000     0.0600000    0.0600000   3.930919e-05  8.704828e-09
    539    541   2   0.50000     0.0600000    0.0600000   3.930919e-05  8.704828e-09
    502    505   2   0.50000    -0.1200000   -0.4300000   1.095425e-03  1.218041e-06
    502    542   2   0.50000    -0.1200000   -0.3300000   1.026091e-03  1.187829e-06
    540    505   2   0.50000     0.0600000   -0.4300000   1.726228e-04  6.344822e-08
    540    542   2   0.50000     0.0600000   -0.3300000   1.616969e-04  6.187447e-08
    541    505   2   0.50000     0.0600000   -0.4300000   1.726228e-04  6.344822e-08
    541    542   2   0.50000     0.0600000   -0.3300000   1.616969e-04  6.187447e-08
    503    543   2   0.50000    -0.1200000    0.1900000   1.015252e-03  1.866303e-06
    505    543   2   0.50000    -0.4300000    0.1900000   1.095425e-03  1.218041e-06
    504    544   2   0.50000     0.5100000   -0.1200000   1.575021e-03  3.561100e-06
    504    566   2   0.50000     0.5100000    0.0300000   2.482000e-04  1.854991e-07
    504    567   2   0.50000     0.5100000    0.0300000   2.482000e-04  1.854991e-07
    542    545   2   0.50000    -0.3300000   -0.1200000   1.026091e-03  1.187829e-06
    542    568   2   0.50000    -0.3300000    0.0600000   2.521103e-04  1.063590e-07
    542    569   2   0.50000    -0.3300000    0.0600000   2.521103e-04  1.063590e-07
    566    545   2   0.50000     0.0300000   -0.1200000   1.599888e-04  9.721644e-08
    566    568   2   0.50000     0.0300000    0.0600000   3.930919e-05  8.704828e-09
    566    569   2   0.50000     0.0300000    0.0600000   3.930919e-05  8.704828e-09
    567    545   2   0.50000     0.0300000   -0.1200000   1.599888e-04  9.721644e-08
    567    568   2   0.50000     0.0300000    0.0600000   3.930919e-05  8.704828e-09
    567    569   2   0.50000     0.0300000    0.0600000   3.930919e-05  8.704828e-09
    543    546   2   0.50000     0.1900000   -0.1200000   1.015252e-03  1.866303e-06
    543    570   2   0.50000     0.1900000    0.0600000   2.494471e-04  1.671101e-07
    543    571   2   0.50000     0.1900000    0.0600000   2.494471e-04  1.671101e-07
    568    546   2   0.50000     0.0600000   -0.1200000   2.494471e-04  1.671101e-07
    568    570   2   0.50000     0.0600000    0.0600000   6.128906e-05  1.496315e-08
    568    571   2   0.50000     0.0600000    0.0600000   6.128906e-05  1.496315e-08
    569    546   2   0.50000     0.0600000   -0.1200000   2.494471e-04  1.671101e-07
    569    570   2   0.50000     0.0600000    0.0600000   6.128906e-05  1.496315e-08
    569    571   2   0.50000     0.0600000    0.0600000   6.128906e-05  1.496315e-08
    544    547   2   0.50000    -0.1200000   -0.1200000   1.015252e-03  1.866303e-06
    544    572   2   0.50000    -0.1200000    0.0600000   2.494471e-04  1.671101e-07
    544    573   2   0.50000    -0.1200000    0.0600000   2.494471e-04  1.671101e-07
    570    547   2   0.50000     0.0600000   -0.1200000   2.494471e-04  1.671101e-07
    570    572   2   0.50000     0.0600000    0.0600000   6.128906e-05  1.496315e-08
    570    573   2   0.50000     0.0600000    0.0600000   6.128906e-05  1.496315e-08
    571    547   2   0.50000     0.0600000   -0.1200000   2.494471e-04  1.671101e-07
    571    572   2   0.50000     0.0600000    0.0600000   6.128906e-05  1.496315e-08
    571    573   2   0.50000     0.0600000    0.0600000   6.128906e-05  1.496315e-08
    545    548   2   0.50000    -0.1200000   -0.1200000   1.015252e-03  1.866303e-06
    545    574   2   0.50000    -0.1200000    0.0600000   2.494471e-04  1.671101e-07
    545    575   2   0.50000    -0.1200000    0.0600000   2.494471e-04  1.671101e-07
    572    548   2   0.50000     0.0600000   -0.1200000   2.494471e-04  1.671101e-07
    572    574   2   0.50000     0.0600000    0.0600000   6.128906e-05  1.496315e-08
    572    575   2   0.50000     0.0600000    0.0600000   6.128906e-05  1.496315e-08
    573    548   2   0.50000     0.0600000   -0.1200000   2.494471e-04  1.671101e-07
    573    574   2   0.50000     0.0600000    0.0600000   6.128906e-05  1.496315e-08
    573    575   2   0.50000     0.0600000    0.0600000   6.128906e-05  1.496315e-08
    546    549   2   0.50000    -0.1200000   -0.1200000   1.015252e-03  1.866303e-06
    546    576   2   0.50000    -0.1200000    0.0600000   2.494471e-04  1.671101e-07
    546    577   2   0.50000    -0.1200000    0.0600000   2.494471e-04  1.671101e-07
    574    549   2   0.50000     0.0600000   -0.1200000   2.494471e-04  1.671101e-07
    574    576   2   0.50000     0.0600000    0.0600000   6.128906e-05  1.496315e-08
    574    577   2   0.50000     0.0600000    0.0600000   6.128906e-05  1.496315e-08
    575    549   2   0.50000     0.0600000   -0.1200000   2.494471e-04  1.671101e-07
    575    576   2   0.50000     0.0600000    0.0600000   6.128906e-05  1.496315e-08
    575    577   2   0.50000     0.0600000    0.0600000   6.128906e-05  1.496315e-08
    547    550   2   0.50000    -0.1200000   -0.1200000   1.015252e-03  1.866303e-06
    547    578   2   0.50000    -0.1200000    0.0600000   2.494471e-04  1.671101e-07
    547    579   2   0.50000    -0.1200000    0.0600000   2.494471e-04  1.671101e-07
    576    550   2   0.50000     0.0600000   -0.1200000   2.494471e-04  1.671101e-07
    576    578   2   0.50000     0.0600000    0.0600000   6.128906e-05  1.496315e-08
    576    579   2   0.50000     0.0600000    0.0600000   6.128906e-05  1.496315e-08
    577    550   2   0.50000     0.0600000   -0.1200000   2.494471e-04  1.671101e-07
    577    578   2   0.50000     0.0600000    0.0600000   6.128906e-05  1.496315e-08
    577    579   2   0.50000     0.0600000    0.0600000   6.128906e-05  1.496315e-08
    548    551   2   0.50000    -0.1200000   -0.1200000   1.015252e-03  1.866303e-06
    548    580   2   0.50000    -0.1200000    0.0600000   2.494471e-04  1.671101e-07
    548    581   2   0.50000    -0.1200000    0.0600000   2.494471e-04  1.671101e-07
    578    551   2   0.50000     0.0600000   -0.1200000   2.494471e-04  1.671101e-07
    578    580   2   0.50000     0.0600000    0.0600000   6.128906e-05  1.496315e-08
    578    581   2   0.50000     0.0600000    0.0600000   6.128906e-05  1.496315e-08
    579    551   2   0.50000     0.0600000   -0.1200000   2.494471e-04  1.671101e-07
    579    580   2   0.50000     0.0600000    0.0600000   6.128906e-05  1.496315e-08
    579    581   2   0.50000     0.0600000    0.0600000   6.128906e-05  1.496315e-08
    549    552   2   0.50000    -0.1200000    0.1900000   1.015252e-03  1.866303e-06
    549    582   2   0.50000    -0.1200000    0.0600000   2.494471e-04  1.671101e-07
    549    583   2   0.50000    -0.1200000    0.0600000   2.494471e-04  1.671101e-07
    580    552   2   0.50000     0.0600000    0.1900000   2.494471e-04  1.671101e-07
    580    582   2   0.50000     0.0600000    0.0600000   6.128906e-05  1.496315e-08
    580    583   2   0.50000     0.0600000    0.0600000   6.128906e-05  1.496315e-08
    581    552   2   0.50000     0.0600000    0.1900000   2.494471e-04  1.671101e-07
    581    582   2   0.50000     0.0600000    0.0600000   6.128906e-05  1.496315e-08
    581    583   2   0.50000     0.0600000    0.0600000   6.128906e-05  1.496315e-08
    550    553   2   0.50000    -0.1200000   -0.3300000   1.026091e-03  1.187829e-06
    550    584   2   0.50000    -0.1200000    0.0300000   1.599888e-04  9.721644e-08
    550    585   2   0.50000    -0.1200000    0.0300000   1.599888e-04  9.721644e-08
    582    553   2   0.50000     0.0600000   -0.3300000   2.521103e-04  1.063590e-07
    582    584   2   0.50000     0.0600000    0.0300000   3.930919e-05  8.704828e-09
    582    585   2   0.50000     0.0600000    0.0300000   3.930919e-05  8.704828e-09
    583    553   2   0.50000     0.0600000   -0.3300000   2.521103e-04  1.063590e-07
    583    584   2   0.50000     0.0600000    0.0300000   3.930919e-05  8.704828e-09
    583    585   2   0.50000     0.0600000    0.0300000   3.930919e-05  8.704828e-09
    551    554   2   0.50000    -0.1200000    0.5100000   1.575021e-03  3.561100e-06
    584    554   2   0.50000     0.0300000    0.5100000   2.482000e-04  1.854991e-07
    585    554   2   0.50000     0.0300000    0.5100000   2.482000e-04  1.854991e-07
    552    555   2   0.50000     0.1900000   -0.4300000   1.095425e-03  1.218041e-06
    552    556   2   0.50000     0.1900000   -0.1200000   1.015252e-03  1.866303e-06
    553    557   2   0.50000    -0.3300000   -0.1200000   1.026091e-03  1.187829e-06
    553    586   2   0.50000    -0.3300000    0.0600000   1.616969e-04  6.187447e-08
    553    587   2   0.50000    -0.3300000    0.0600000   1.616969e-04  6.187447e-08
    555    557   2   0.50000    -0.4300000   -0.1200000   1.095425e-03  1.218041e-06
    555    586   2   0.50000    -0.4300000    0.0600000   1.726228e-04  6.344822e-08
    555    587   2   0.50000    -0.4300000    0.0600000   1.726228e-04  6.344822e-08
    554    558   2   0.50000     0.5100000   -0.1200000   1.575021e-03  3.561100e-06
    554    588   2   0.50000     0.5100000    0.0600000   3.869820e-04  3.188634e-07
    554    589   2   0.50000     0.5100000    0.0600000   3.869820e-04  3.188634e-07
    586    558   2   0.50000     0.0600000   -0.1200000   1.599888e-04  9.721644e-08
    586    588   2   0.50000     0.0600000    0.0600000   3.930919e-05  8.704828e-09
    586    589   2   0.50000     0.0600000    0.0600000   3.930919e-05  8.704828e-09
    587    558   2   0.50000     0.0600000   -0.1200000   1.599888e-04  9.721644e-08
    587    588   2   0.50000     0.0600000    0.0600000   3.930919e-05  8.704828e-09
    587    589   2   0.50000     0.0600000    0.0600000   3.930919e-05  8.704828e-09
    556    559   2   0.50000    -0.1200000   -0.1200000   1.015252e-03  1.866303e-06
    556    590   2   0.50000    -0.1200000    0.0600000   2.494471e-04  1.671101e-07
    556    591   2   0.50000    -0.1200000    0.0600000   2.494471e-04  1.671101e-07
    588    559   2   0.50000     0.0600000   -0.1200000   2.494471e-04  1.671101e-07
    588    590   2   0.50000     0.0600000    0.0600000   6.128906e-05  1.496315e-08
    588    591   2   0.50000     0.0600000    0.0600000   6.128906e-05  1.496315e-08
    589    559   2   0.50000     0.0600000   -0.1200000   2.494471e-04  1.671101e-07
    589    590   2   0.50000     0.0600000    0.0600000   6.128906e-05  1.496315e-08
    589    591   2   0.50000     0.0600000    0.0600000   6.128906e-05  1.496315e-08
    557    560   2   0.50000    -0.1200000   -0.1200000   1.015252e-03  1.866303e-06
    557    592   2   0.50000    -0.1200000    0.0600000   2.494471e-04  1.671101e-07
    557    593   2   0.50000    -0.1200000    0.0600000   2.494471e-04  1.671101e-07
    590    560   2   0.50000     0.0600000   -0.1200000   2.494471e-04  1.671101e-07
    590    592   2   0.50000     0.0600000    0.0600000   6.128906e-05  1.496315e-08
    590    593   2   0.50000     0.0600000    0.0600000   6.128906e-05  1.496315e-08
    591    560   2   0.50000     0.0600000   -0.1200000   2.494471e-04  1.671101e-07
    591    592   2   0.50000     0.0600000    0.0600000   6.128906e-05  1.496315e-08
    591    593   2   0.50000     0.0600000    0.0600000   6.128906e-05  1.496315e-08
    558    561   2   0.50000    -0.1200000   -0.1200000   1.015252e-03  1.866303e-06
    558    594   2   0.50000    -0.1200000    0.0600000   2.494471e-04  1.671101e-07
    558    595   2   0.50000    -0.1200000    0.0600000   2.494471e-04  1.671101e-07
    592    561   2   0.50000     0.0600000   -0.1200000   2.494471e-04  1.671101e-07
    592    594   2   0.50000     0.0600000    0.0600000   6.128906e-05  1.496315e-08
    592    595   2   0.50000     0.0600000    0.0600000   6.128906e-05  1.496315e-08
    593    561   2   0.50000     0.0600000   -0.1200000   2.494471e-04  1.671101e-07
    593    594   2   0.50000     0.0600000    0.0600000   6.128906e-05  1.496315e-08
    593    595   2   0.50000     0.0600000    0.0600000   6.128906e-05  1.496315e-08
    559    562   2   0.50000    -0.1200000   -0.1200000   1.015252e-03  1.866303e-06
    559    596   2   0.50000    -0.1200000    0.0600000   2.494471e-04  1.671101e-07
    559    597   2   0.50000    -0.1200000    0.0600000   2.494471e-04  1.671101e-07
    594    562   2   0.50000     0.0600000   -0.1200000   2.494471e-04  1.671101e-07
    594    596   2   0.50000     0.0600000    0.0600000   6.128906e-05  1.496315e-08
    594    597   2   0.50000     0.0600000    0.0600000   6.128906e-05  1.496315e-08
    595    562   2   0.50000     0.0600000   -0.1200000   2.494471e-04  1.671101e-07
    595    596   2   0.50000     0.0600000    0.0600000   6.128906e-05  1.496315e-08
    595    597   2   0.50000     0.0600000    0.0600000   6.128906e-05  1.496315e-08
    560    563   2   0.50000    -0.1200000   -0.1200000   1.015252e-03  1.866303e-06
    560    598   2   0.50000    -0.1200000    0.0600000   2.494471e-04  1.671101e-07
    560    599   2   0.50000    -0.1200000    0.0600000   2.494471e-04  1.671101e-07
    596    563   2   0.50000     0.0600000   -0.1200000   2.494471e-04  1.671101e-07
    596    598   2   0.50000     0.0600000    0.0600000   6.128906e-05  1.496315e-08
    596    599   2   0.50000     0.0600000    0.0600000   6.128906e-05  1.496315e-08
    597    563   2   0.50000     0.0600000   -0.1200000   2.494471e-04  1.671101e-07
    597    598   2   0.50000     0.0600000    0.0600000   6.128906e-05  1.496315e-08
    597    599   2   0.50000     0.0600000    0.0600000   6.128906e-05  1.496315e-08
    561    564   2   0.50000    -0.1200000    0.5100000   1.575021e-03  3.561100e-06
    561    600   2   0.50000    -0.1200000    0.0600000   1.599888e-04  9.721644e-08
    561    601   2   0.50000    -0.1200000    0.0600000   1.599888e-04  9.721644e-08
    598    564   2   0.50000     0.0600000    0.5100000   3.869820e-04  3.188634e-07
    598    600   2   0.50000     0.0600000    0.0600000   3.930919e-05  8.704828e-09
    598    601   2   0.50000     0.0600000    0.0600000   3.930919e-05  8.704828e-09
    599    564   2   0.50000     0.0600000    0.5100000   3.869820e-04  3.188634e-07
    599    600   2   0.50000     0.0600000    0.0600000   3.930919e-05  8.704828e-09
    599    601   2   0.50000     0.0600000    0.0600000   3.930919e-05  8.704828e-09
    562    565   2   0.50000    -0.1200000   -0.4300000   1.095425e-03  1.218041e-06
    562    602   2   0.50000    -0.1200000   -0.3300000   1.026091e-03  1.187829e-06
    600    565   2   0.50000     0.0600000   -0.4300000   1.726228e-04  6.344822e-08
    600    602   2   0.50000     0.0600000   -0.3300000   1.616969e-04  6.187447e-08
    601    565   2   0.50000     0.0600000   -0.4300000   1.726228e-04  6.344822e-08
    601    602   2   0.50000     0.0600000   -0.3300000   1.616969e-04  6.187447e-08
    563    603   2   0.50000    -0.1200000    0.1900000   1.015252e-03  1.866303e-06
    565    603   2   0.50000    -0.4300000    0.1900000   1.095425e-03  1.218041e-06
    564    604   2   0.50000     0.5100000   -0.1200000   1.575021e-03  3.561100e-06
    564    626   2   0.50000     0.5100000    0.0300000   2.482000e-04  1.854991e-07
    564    627   2   0.50000     0.5100000    0.0300000   2.482000e-04  1.854991e-07
    602    605   2   0.50000    -0.3300000   -0.1200000   1.026091e-03  1.187829e-06
    602    628   2   0.50000    -0.3300000    0.0600000   2.521103e-04  1.063590e-07
    602    629   2   0.50000    -0.3300000    0.0600000   2.521103e-04  1.063590e-07
    626    605   2   0.50000     0.0300000   -0.1200000   1.599888e-04  9.721644e-08
    626    628   2   0.50000     0.0300000    0.0600000   3.930919e-05  8.704828e-09
    626    629   2   0.50000     0.0300000    0.0600000   3.930919e-05  8.704828e-09
    627    605   2   0.50000     0.0300000   -0.1200000   1.599888e-04  9.721644e-08
    627    628   2   0.50000     0.0300000    0.0600000   3.930919e-05  8.704828e-09
    627    629   2   0.50000     0.0300000    0.0600000   3.930919e-05  8.704828e-09
    603    606   2   0.50000     0.1900000   -0.1200000   1.015252e-03  1.866303e-06
    603    630   2   0.50000     0.1900000    0.0600000   2.494471e-04  1.671101e-07
    603    631   2   0.50000     0.1900000    0.0600000   2.494471e-04  1.671101e-07
    628    606   2   0.50000     0.0600000   -0.1200000   2.494471e-04  1.671101e-07
    628    630   2   0.50000     0.0600000    0.0600000   6.128906e-05  1.496315e-08
    628    631   2   0.50000     0.0600000    0.0600000   6.128906e-05  1.496315e-08
    629    606   2   0.50000     0.0600000   -0.1200000   2.494471e-04  1.671101e-07
    629    630   2   0.50000     0.0600000    0.0600000   6.128906e-05  1.496315e-08
    629    631   2   0.50000     0.0600000    0.0600000   6.128906e-05  1.496315e-08
    604    607   2   0.50000    -0.1200000   -0.1200000   1.015252e-03  1.866303e-06
    604    632   2   0.50000    -0.1200000    0.0600000   2.494471e-04  1.671101e-07
    604    633   2   0.50000    -0.1200000    0.0600000   2.494471e-04  1.671101e-07
    630    607   2   0.50000     0.0600000   -0.1200000   2.494471e-04  1.671101e-07
    630    632   2   0.50000     0.0600000    0.0600000   6.128906e-05  1.496315e-08
    630    633   2   0.50000     0.0600000    0.0600000   6.128906e-05  1.496315e-08
    631    607   2   0.50000     0.0600000   -0.1200000   2.494471e-04  1.671101e-07
    631    632   2   0.50000     0.0600000    0.0600000   6.128906e-05  1.496315e-08
    631    633   2   0.50000     0.0600000    0.0600000   6.128906e-05  1.496315e-08
    605    608   2   0.50000    -0.1200000   -0.1200000   1.015252e-03  1.866303e-06
    605    634   2   0.50000    -0.1200000    0.0600000   2.494471e-04  1.671101e-07
    605    635   2   0.50000    -0.1200000    0.0600000   2.494471e-04  1.671101e-07
    632    608   2   0.50000     0.0600000   -0.1200000   2.494471e-04  1.671101e-07
    632    634   2   0.50000     0.0600000    0.0600000   6.128906e-05  1.496315e-08
    632    635   2   0.50000     0.0600000    0.0600000   6.128906e-05  1.496315e-08
    633    608   2   0.50000     0.0600000   -0.1200000   2.494471e-04  1.671101e-07
    633    634   2   0.50000     0.0600000    0.0600000   6.128906e-05  1.496315e-08
    633    635   2   0.50000     0.0600000    0.0600000   6.128906e-05  1.496315e-08
    606    609   2   0.50000    -0.1200000   -0.1200000   1.015252e-03  1.866303e-06
    606    636   2   0.50000    -0.1200000    0.0600000   2.494471e-04  1.671101e-07
    606    637   2   0.50000    -0.1200000    0.0600000   2.494471e-04  1.671101e-07
    634    609   2   0.50000     0.0600000   -0.1200000   2.494471e-04  1.671101e-07
    634    636   2   0.50000     0.0600000    0.0600000   6.128906e-05  1.496315e-08
    634    637   2   0.50000     0.0600000    0.0600000   6.128906e-05  1.496315e-08
    635    609   2   0.50000     0.0600000   -0.1200000   2.494471e-04  1.671101e-07
    635    636   2   0.50000     0.0600000    0.0600000   6.128906e-05  1.496315e-08
    635    637   2   0.50000     0.0600000    0.0600000   6.128906e-05  1.496315e-08
    607    610   2   0.50000    -0.1200000   -0.1200000   1.015252e-03  1.866303e-06
    607    638   2   0.50000    -0.1200000    0.0600000   2.494471e-04  1.671101e-07
    607    639   2   0.50000    -0.1200000    0.0600000   2.494471e-04  1.671101e-07
    636    610   2   0.50000     0.0600000   -0.1200000   2.494471e-04  1.671101e-07
    636    638   2   0.50000     0.0600000    0.0600000   6.128906e-05  1.496315e-08
    636    639   2   0.50000     0.0600000    0.0600000   6.128906e-05  1.496315e-08
    637    610   2   0.50000     0.0600000   -0.1200000   2.494471e-04  1.671101e-07
    637    638   2   0.50000     0.0600000    0.0600000   6.128906e-05  1.496315e-08
    637    639   2   0.50000     0.0600000    0.0600000   6.128906e-05  1.496315e-08
    608    611   2   0.50000    -0.1200000   -0.1200000   1.015252e-03  1.866303e-06
    608    640   2   0.50000    -0.1200000    0.0600000   2.494471e-04  1.671101e-07
    608    641   2   0.50000    -0.1200000    0.0600000   2.494471e-04  1.671101e-07
    638    611   2   0.50000     0.0600000   -0.1200000   2.494471e-04  1.671101e-07
    638    640   2   0.50000     0.0600000    0.0600000   6.128906e-05  1.496315e-08
    638    641   2   0.50000     0.0600000    0.0600000   6.128906e-05  1.496315e-08
    639    611   2   0.50000     0.0600000   -0.1200000   2.494471e-04  1.671101e-07
    639    640   2   0.50000     0.0600000    0.0600000   6.128906e-05  1.496315e-08
    639    641   2   0.50000     0.0600000    0.0600000   6.128906e-05  1.496315e-08
    609    612   2   0.50000    -0.1200000    0.1900000   1.015252e-03  1.866303e-06
    609    642   2   0.50000    -0.1200000    0.0600000   2.494471e-04  1.671101e-07
    609    643   2   0.50000    -0.1200000    0.0600000   2.494471e-04  1.671101e-07
    640    612   2   0.50000     0.0600000    0.1900000   2.494471e-04  1.671101e-07
    640    642   2   0.50000     0.0600000    0.0600000   6.128906e-05  1.496315e-08
    640    643   2   0.50000     0.0600000    0.0600000   6.128906e-05  1.496315e-08
    641    612   2   0.50000     0.0600000    0.1900000   2.494471e-04  1.671101e-07
    641    642   2   0.50000     0.0600000    0.0600000   6.128906e-05  1.496315e-08
    641    643   2   0.50000     0.0600000    0.0600000   6.128906e-05  1.496315e-08
    610    613   2   0.50000    -0.1200000   -0.3300000   1.026091e-03  1.187829e-06
    610    644   2   0.50000    -0.1200000    0.0300000   1.599888e-04  9.721644e-08
    610    645   2   0.50000    -0.1200000    0.0300000   1.599888e-04  9.721644e-08
    642    613   2   0.50000     0.0600000   -0.3300000   2.521103e-04  1.063590e-07
    642    644   2   0.50000     0.0600000    0.0300000   3.930919e-05  8.704828e-09
    642    645   2   0.50000     0.0600000    0.0300000   3.930919e-05  8.704828e-09
    643    613   2   0.50000     0.0600000   -0.3300000   2.521103e-04  1.063590e-07
    643    644   2   0.50000     0.0600000    0.0300000   3.930919e-05  8.704828e-09
    643    645   2   0.50000     0.0600000    0.0300000   3.930919e-05  8.704828e-09
    611    614   2   0.50000    -0.1200000    0.5100000   1.575021e-03  3.561100e-06
    644    614   2   0.50000     0.0300000    0.5100000   2.482000e-04  1.854991e-07
    645    614   2   0.50000     0.0300000    0.5100000   2.482000e-04  1.854991e-07
    612    615   2   0.50000     0.1900000   -0.4300000   1.095425e-03  1.218041e-06
    612    616   2   0.50000     0.1900000   -0.1200000   1.015252e-03  1.866303e-06
    613    617   2   0.50000    -0.3300000   -0.1200000   1.026091e-03  1.187829e-06
    613    646   2   0.50000    -0.3300000    0.0600000   1.616969e-04  6.187447e-08
    613    647   2   0.50000    -0.3300000    0.0600000   1.616969e-04  6.187447e-08
    615    617   2   0.50000    -0.4300000   -0.1200000   1.095425e-03  1.218041e-06
    615    646   2   0.50000    -0.4300000    0.0600000   1.726228e-04  6.344822e-08
    615    647   2   0.50000    -0.4300000    0.0600000   1.726228e-04  6.344822e-08
    614    618   2   0.50000     0.5100000   -0.1200000   1.575021e-03  3.561100e-06
    614    648   2   0.50000     0.5100000    0.0600000   3.869820e-04  3.188634e-07
    614    649   2   0.50000     0.5100000    0.0600000   3.869820e-04  3.188634e-07
    646    618   2   0.50000     0.0600000   -0.1200000   1.599888e-04  9.721644e-08
    646    648   2   0.50000     0.0600000    0.0600000   3.930919e-05  8.704828e-09
    646    649   2   0.50000     0.0600000    0.0600000   3.930919e-05  8.704828e-09
    647    618   2   0.50000     0.0600000   -0.1200000   1.599888e-04  9.721644e-08
    647    648   2   0.50000     0.0600000    0.0600000   3.930919e-05  8.704828e-09
    647    649   2   0.50000     0.0600000    0.0600000   3.930919e-05  8.704828e-09
    616    619   2   0.50000    -0.1200000   -0.1200000   1.015252e-03  1.866303e-06
    616    650   2   0.50000    -0.1200000    0.0600000   2.494471e-04  1.671101e-07
    616    651   2   0.50000    -0.1200000    0.0600000   2.494471e-04  1.671101e-07
    648    619   2   0.50000     0.0600000   -0.1200000   2.494471e-04  1.671101e-07
    648    650   2   0.50000     0.0600000    0.0600000   6.128906e-05  1.496315e-08
    648    651   2   0.50000     0.0600000    0.0600000   6.128906e-05  1.496315e-08
    649    619   2   0.50000     0.0600000   -0.1200000   2.494471e-04  1.671101e-07
    649    650   2   0.50000     0.0600000    0.0600000   6.128906e-05  1.496315e-08
    649    651   2   0.50000     0.0600000    0.0600000   6.128906e-05  1.496315e-08
    617    620   2   0.50000    -0.1200000   -0.1200000   1.015252e-03  1.866303e-06
    617    652   2   0.50000    -0.1200000    0.0600000   2.494471e-04  1.671101e-07
    617    653   2   0.50000    -0.1200000    0.0600000   2.494471e-04  1.671101e-07
    650    620   2   0.50000     0.0600000   -0.1200000   2.494471e-04  1.671101e-07
    650    652   2   0.50000     0.0600000    0.0600000   6.128906e-05  1.496315e-08
    650    653   2   0.50000     0.0600000    0.0600000   6.128906e-05  1.496315e-08
    651    620   2   0.50000     0.0600000   -0.1200000   2.494471e-04  1.671101e-07
    651    652   2   0.50000     0.0600000    0.0600000   6.128906e-05  1.496315e-08
    651    653   2   0.50000     0.0600000    0.0600000   6.128906e-05  1.496315e-08
    618    621   2   0.50000    -0.1200000   -0.1200000   1.015252e-03  1.866303e-06
    618    654   2   0.50000    -0.1200000    0.0600000   2.494471e-04  1.671101e-07
    618    655   2   0.50000    -0.1200000    0.0600000   2.494471e-04  1.671101e-07
    652    621   2   0.50000     0.0600000   -0.1200000   2.494471e-04  1.671101e-07
    652    654   2   0.50000     0.0600000    0.0600000   6.128906e-05  1.496315e-08
    652    655   2   0.50000     0.0600000    0.0600000   6.128906e-05  1.496315e-08
    653    621   2   0.50000     0.0600000   -0.1200000   2.494471e-04  1.671101e-07
    653    654   2   0.50000     0.0600000    0.0600000   6.128906e-05  1.496315e-08
    653    655   2   0.50000     0.0600000    0.0600000   6.128906e-05  1.496315e-08
    619    622   2   0.50000    -0.1200000   -0.1200000   1.015252e-03  1.866303e-06
    619    656   2   0.50000    -0.1200000    0.0600000   2.494471e-04  1.671101e-07
    619    657   2   0.50000    -0.1200000    0.0600000   2.494471e-04  1.671101e-07
    654    622   2   0.50000     0.0600000   -0.1200000   2.494471e-04  1.671101e-07
    654    656   2   0.50000     0.0600000    0.0600000   6.128906e-05  1.496315e-08
    654    657   2   0.50000     0.0600000    0.0600000   6.128906e-05  1.496315e-08
    655    622   2   0.50000     0.0600000   -0.1200000   2.494471e-04  1.671101e-07
    655    656   2   0.50000     0.0600000    0.0600000   6.128906e-05  1.496315e-08
    655    657   2   0.50000     0.0600000    0.0600000   6.128906e-05  1.496315e-08
    620    623   2   0.50000    -0.1200000   -0.1200000   1.015252e-03  1.866303e-06
    620    658   2   0.50000    -0.1200000    0.0600000   2.494471e-04  1.671101e-07
    620    659   2   0.50000    -0.1200000    0.0600000   2.494471e-04  1.671101e-07
    656    623   2   0.50000     0.0600000   -0.1200000   2.494471e-04  1.671101e-07
    656    658   2   0.50000     0.0600000    0.0600000   6.128906e-05  1.496315e-08
    656    659   2   0.50000     0.0600000    0.0600000   6.128906e-05  1.496315e-08
    657    623   2   0.50000     0.0600000   -0.1200000   2.494471e-04  1.671101e-07
    657    658   2   0.50000     0.0600000    0.0600000   6.128906e-05  1.496315e-08
    657    659   2   0.50000     0.0600000    0.0600000   6.128906e-05  1.496315e-08
    621    624   2   0.50000    -0.1200000    0.5100000   1.575021e-03  3.561100e-06
    621    660   2   0.50000    -0.1200000    0.0600000   1.599888e-04  9.721644e-08
    621    661   2   0.50000    -0.1200000    0.0600000   1.599888e-04  9.721644e-08
    658    624   2   0.50000     0.0600000    0.5100000   3.869820e-04  3.188634e-07
    658    660   2   0.50000     0.0600000    0.0600000   3.930919e-05  8.704828e-09
    658    661   2   0.50000     0.0600000    0.0600000   3.930919e-05  8.704828e-09
    659    624   2   0.50000     0.0600000    0.5100000   3.869820e-04  3.188634e-07
    659    660   2   0.50000     0.0600000    0.0600000   3.930919e-05  8.704828e-09
    659    661   2   0.50000     0.0600000    0.0600000   3.930919e-05  8.704828e-09
    622    625   2   0.50000    -0.1200000   -0.4300000   1.095425e-03  1.218041e-06
    622    662   2   0.50000    -0.1200000   -0.3300000   1.026091e-03  1.187829e-06
    660    625   2   0.50000     0.0600000   -0.4300000   1.726228e-04  6.344822e-08
    660    662   2   0.50000     0.0600000   -0.3300000   1.616969e-04  6.187447e-08
    661    625   2   0.50000     0.0600000   -0.4300000   1.726228e-04  6.344822e-08
    661    662   2   0.50000     0.0600000   -0.3300000   1.616969e-04  6.187447e-08
    623    663   2   0.50000    -0.1200000    0.1900000   1.015252e-03  1.866303e-06
    625    663   2   0.50000    -0.4300000    0.1900000   1.095425e-03  1.218041e-06
    624    664   2   0.50000     0.5100000   -0.1200000   1.575021e-03  3.561100e-06
    624    686   2   0.50000     0.5100000    0.0300000   2.482000e-04  1.854991e-07
    624    687   2   0.50000     0.5100000    0.0300000   2.482000e-04  1.854991e-07
    662    665   2   0.50000    -0.3300000   -0.1200000   1.026091e-03  1.187829e-06
    662    688   2   0.50000    -0.3300000    0.0600000   2.521103e-04  1.063590e-07
    662    689   2   0.50000    -0.3300000    0.0600000   2.521103e-04  1.063590e-07
    686    665   2   0.50000     0.0300000   -0.1200000   1.599888e-04  9.721644e-08
    686    688   2   0.50000     0.0300000    0.0600000   3.930919e-05  8.704828e-09
    686    689   2   0.50000     0.0300000    0.0600000   3.930919e-05  8.704828e-09
    687    665   2   0.50000     0.0300000   -0.1200000   1.599888e-04  9.721644e-08
    687    688   2   0.50000     0.0300000    0.0600000   3.930919e-05  8.704828e-09
    687    689   2   0.50000     0.0300000    0.0600000   3.930919e-05  8.704828e-09
    663    666   2   0.50000     0.1900000   -0.1200000   1.015252e-03  1.866303e-06
    663    690   2   0.50000     0.1900000    0.0600000   2.494471e-04  1.671101e-07
    663    691   2   0.50000     0.1900000    0.0600000   2.494471e-04  1.671101e-07
    688    666   2   0.50000     0.0600000   -0.1200000   2.494471e-04  1.671101e-07
    688    690   2   0.50000     0.0600000    0.0600000   6.128906e-05  1.496315e-08
    688    691   2   0.50000     0.0600000    0.0600000   6.128906e-05  1.496315e-08
    689    666   2   0.50000     0.0600000   -0.1200000   2.494471e-04  1.671101e-07
    689    690   2   0.50000     0.0600000    0.0600000   6.128906e-05  1.496315e-08
    689    691   2   0.50000     0.0600000    0.0600000   6.128906e-05  1.496315e-08
    664    667   2   0.50000    -0.1200000   -0.1200000   1.015252e-03  1.866303e-06
    664    692   2   0.50000    -0.1200000    0.0600000   2.494471e-04  1.671101e-07
    664    693   2   0.50000    -0.1200000    0.0600000   2.494471e-04  1.671101e-07
    690    667   2   0.50000     0.0600000   -0.1200000   2.494471e-04  1.671101e-07
    690    692   2   0.50000     0.0600000    0.0600000   6.128906e-05  1.496315e-08
    690    693   2   0.50000     0.0600000    0.0600000   6.128906e-05  1.496315e-08
    691    667   2   0.50000     0.0600000   -0.1200000   2.494471e-04  1.671101e-07
    691    692   2   0.50000     0.0600000    0.0600000   6.128906e-05  1.496315e-08
    691    693   2   0.50000     0.0600000    0.0600000   6.128906e-05  1.496315e-08
    665    668   2   0.50000    -0.1200000   -0.1200000   1.015252e-03  1.866303e-06
    665    694   2   0.50000    -0.1200000    0.0600000   2.494471e-04  1.671101e-07
    665    695   2   0.50000    -0.1200000    0.0600000   2.494471e-04  1.671101e-07
    692    668   2   0.50000     0.0600000   -0.1200000   2.494471e-04  1.671101e-07
    692    694   2   0.50000     0.0600000    0.0600000   6.128906e-05  1.496315e-08
    692    695   2   0.50000     0.0600000    0.0600000   6.128906e-05  1.496315e-08
    693    668   2   0.50000     0.0600000   -0.1200000   2.494471e-04  1.671101e-07
    693    694   2   0.50000     0.0600000    0.0600000   6.128906e-05  1.496315e-08
    693    695   2   0.50000     0.0600000    0.0600000   6.128906e-05  1.496315e-08
    666    669   2   0.50000    -0.1200000   -0.1200000   1.015252e-03  1.866303e-06
    666    696   2   0.50000    -0.1200000    0.0600000   2.494471e-04  1.671101e-07
    666    697   2   0.50000    -0.1200000    0.0600000   2.494471e-04  1.671101e-07
    694    669   2   0.50000     0.0600000   -0.1200000   2.494471e-04  1.671101e-07
    694    696   2   0.50000     0.0600000    0.0600000   6.128906e-05  1.496315e-08
    694    697   2   0.50000     0.0600000    0.0600000   6.128906e-05  1.496315e-08
    695    669   2   0.50000     0.0600000   -0.1200000   2.494471e-04  1.671101e-07
    695    696   2   0.50000     0.0600000    0.0600000   6.128906e-05  1.496315e-08
    695    697   2   0.50000     0.0600000    0.0600000   6.128906e-05  1.496315e-08
    667    670   2   0.50000    -0.1200000   -0.1200000   1.015252e-03  1.866303e-06
    667    698   2   0.50000    -0.1200000    0.0600000   2.494471e-04  1.671101e-07
    667    699   2   0.50000    -0.1200000    0.0600000   2.494471e-04  1.671101e-07
    696    670   2   0.50000     0.0600000   -0.1200000   2.494471e-04  1.671101e-07
    696    698   2   0.50000     0.0600000    0.0600000   6.128906e-05  1.496315e-08
    696    699   2   0.50000     0.0600000    0.0600000   6.128906e-05  1.496315e-08
    697    670   2   0.50000     0.0600000   -0.1200000   2.494471e-04  1.671101e-07
    697    698   2   0.50000     0.0600000    0.0600000   6.128906e-05  1.496315e-08
    697    699   2   0.50000     0.0600000    0.0600000   6.128906e-05  1.496315e-08
    668    671   2   0.50000    -0.1200000   -0.1200000   1.015252e-03  1.866303e-06
    668    700   2   0.50000    -0.1200000    0.0600000   2.494471e-04  1.671101e-07
    668    701   2   0.50000    -0.1200000    0.0600000   2.494471e-04  1.671101e-07
    698    671   2   0.50000     0.0600000   -0.1200000   2.494471e-04  1.671101e-07
    698    700   2   0.50000     0.0600000    0.0600000   6.128906e-05  1.496315e-08
    698    701   2   0.50000     0.0600000    0.0600000   6.128906e-05  1.496315e-08
    699    671   2   0.50000     0.0600000   -0.1200000   2.494471e-04  1.671101e-07
    699    700   2   0.50000     0.0600000    0.0600000   6.128906e-05  1.496315e-08
    699    701   2   0.50000     0.0600000    0.0600000   6.128906e-05  1.496315e-08
    669    672   2   0.50000    -0.1200000    0.1900000   1.015252e-03  1.866303e-06
    669    702   2   0.50000    -0.1200000    0.0600000   2.494471e-04  1.671101e-07
    669    703   2   0.50000    -0.1200000    0.0600000   2.494471e-04  1.671101e-07
    700    672   2   0.50000     0.0600000    0.1900000   2.494471e-04  1.671101e-07
    700    702   2   0.50000     0.0600000    0.0600000   6.128906e-05  1.496315e-08
    700    703   2   0.50000     0.0600000    0.0600000   6.128906e-05  1.496315e-08
    701    672   2   0.50000     0.0600000    0.1900000   2.494471e-04  1.671101e-07
    701    702   2   0.50000     0.0600000    0.0600000   6.128906e-05  1.496315e-08
    701    703   2   0.50000     0.0600000    0.0600000   6.128906e-05  1.496315e-08
    670    673   2   0.50000    -0.1200000   -0.3300000   1.026091e-03  1.187829e-06
    670    704   2   0.50000    -0.1200000    0.0300000   1.599888e-04  9.721644e-08
    670    705   2   0.50000    -0.1200000    0.0300000   1.599888e-04  9.721644e-08
    702    673   2   0.50000     0.0600000   -0.3300000   2.521103e-04  1.063590e-07
    702    704   2   0.50000     0.0600000    0.0300000   3.930919e-05  8.704828e-09
    702    705   2   0.50000     0.0600000    0.0300000   3.930919e-05  8.704828e-09
    703    673   2   0.50000     0.0600000   -0.3300000   2.521103e-04  1.063590e-07
    703    704   2   0.50000     0.0600000    0.0300000   3.930919e-05  8.704828e-09
    703    705   2   0.50000     0.0600000    0.0300000   3.930919e-05  8.704828e-09
    671    674   2   0.50000    -0.1200000    0.5100000   1.575021e-03  3.561100e-06
    704    674   2   0.50000     0.0300000    0.5100000   2.482000e-04  1.854991e-07
    705    674   2   0.50000     0.0300000    0.5100000   2.482000e-04  1.854991e-07
    672    675   2   0.50000     0.1900000   -0.4300000   1.095425e-03  1.218041e-06
    672    676   2   0.50000     0.1900000   -0.1200000   1.015252e-03  1.866303e-06
    673    677   2   0.50000    -0.3300000   -0.1200000   1.026091e-03  1.187829e-06
    673    706   2   0.50000    -0.3300000    0.0600000   1.616969e-04  6.187447e-08
    673    707   2   0.50000    -0.3300000    0.0600000   1.616969e-04  6.187447e-08
    675    677   2   0.50000    -0.4300000   -0.1200000   1.095425e-03  1.218041e-06
    675    706   2   0.50000    -0.4300000    0.0600000   1.726228e-04  6.344822e-08
    675    707   2   0.50000    -0.4300000    0.0600000   1.726228e-04  6.344822e-08
    674    678   2   0.50000     0.5100000   -0.1200000   1.575021e-03  3.561100e-06
    674    708   2   0.50000     0.5100000    0.0600000   3.869820e-04  3.188634e-07
    674    709   2   0.50000     0.5100000    0.0600000   3.869820e-04  3.188634e-07
    706    678   2   0.50000     0.0600000   -0.1200000   1.599888e-04  9.721644e-08
    706    708   2   0.50000     0.0600000    0.0600000   3.930919e-05  8.704828e-09
    706    709   2   0.50000     0.0600000    0.0600000   3.930919e-05  8.704828e-09
    707    678   2   0.50000     0.0600000   -0.1200000   1.599888e-04  9.721644e-08
    707    708   2   0.50000     0.0600000    0.0600000   3.930919e-05  8.704828e-09
    707    709   2   0.50000     0.0600000    0.0600000   3.930919e-05  8.704828e-09
    676    679   2   0.50000    -0.1200000   -0.1200000   1.015252e-03  1.866303e-06
    676    710   2   0.50000    -0.1200000    0.0600000   2.494471e-04  1.671101e-07
    676    711   2   0.50000    -0.1200000    0.0600000   2.494471e-04  1.671101e-07
    708    679   2   0.50000     0.0600000   -0.1200000   2.494471e-04  1.671101e-07
    708    710   2   0.50000     0.0600000    0.0600000   6.128906e-05  1.496315e-08
    708    711   2   0.50000     0.0600000    0.0600000   6.128906e-05  1.496315e-08
    709    679   2   0.50000     0.0600000   -0.1200000   2.494471e-04  1.671101e-07
    709    710   2   0.50000     0.0600000    0.0600000   6.128906e-05  1.496315e-08
    709    711   2   0.50000     0.0600000    0.0600000   6.128906e-05  1.496315e-08
    677    680   2   0.50000    -0.1200000   -0.1200000   1.015252e-03  1.866303e-06
    677    712   2   0.50000    -0.1200000    0.0600000   2.494471e-04  1.671101e-07
    677    713   2   0.50000    -0.1200000    0.0600000   2.494471e-04  1.671101e-07
    710    680   2   0.50000     0.0600000   -0.1200000   2.494471e-04  1.671101e-07
    710    712   2   0.50000     0.0600000    0.0600000   6.128906e-05  1.496315e-08
    710    713   2   0.50000     0.0600000    0.0600000   6.128906e-05  1.496315e-08
    711    680   2   0.50000     0.0600000   -0.1200000   2.494471e-04  1.671101e-07
    711    712   2   0.50000     0.0600000    0.0600000   6.128906e-05  1.496315e-08
    711    713   2   0.50000     0.0600000    0.0600000   6.128906e-05  1.496315e-08
    678    681   2   0.50000    -0.1200000   -0.1200000   1.015252e-03  1.866303e-06
    678    714   2   0.50000    -0.1200000    0.0600000   2.494471e-04  1.671101e-07
    678    715   2   0.50000    -0.1200000    0.0600000   2.494471e-04  1.671101e-07
    712    681   2   0.50000     0.0600000   -0.1200000   2.494471e-04  1.671101e-07
    712    714   2   0.50000     0.0600000    0.0600000   6.128906e-05  1.496315e-08
    712    715   2   0.50000     0.0600000    0.0600000   6.128906e-05  1.496315e-08
    713    681   2   0.50000     0.0600000   -0.1200000   2.494471e-04  1.671101e-07
    713    714   2   0.50000     0.0600000    0.0600000   6.128906e-05  1.496315e-08
    713    715   2   0.50000     0.0600000    0.0600000   6.128906e-05  1.496315e-08
    679    682   2   0.50000    -0.1200000   -0.1200000   1.015252e-03  1.866303e-06
    679    716   2   0.50000    -0.1200000    0.0600000   2.494471e-04  1.671101e-07
    679    717   2   0.50000    -0.1200000    0.0600000   2.494471e-04  1.671101e-07
    714    682   2   0.50000     0.0600000   -0.1200000   2.494471e-04  1.671101e-07
    714    716   2   0.50000     0.0600000    0.0600000   6.128906e-05  1.496315e-08
    714    717   2   0.50000     0.0600000    0.0600000   6.128906e-05  1.496315e-08
    715    682   2   0.50000     0.0600000   -0.1200000   2.494471e-04  1.671101e-07
    715    716   2   0.50000     0.0600000    0.0600000   6.128906e-05  1.496315e-08
    715    717   2   0.50000     0.0600000    0.0600000   6.128906e-05  1.496315e-08
    680    683   2   0.50000    -0.1200000   -0.1200000   1.015252e-03  1.866303e-06
    680    718   2   0.50000    -0.1200000    0.0600000   2.494471e-04  1.671101e-07
    680    719   2   0.50000    -0.1200000    0.0600000   2.494471e-04  1.671101e-07
    716    683   2   0.50000     0.0600000   -0.1200000   2.494471e-04  1.671101e-07
    716    718   2   0.50000     0.0600000    0.0600000   6.128906e-05  1.496315e-08
    716    719   2   0.50000     0.0600000    0.0600000   6.128906e-05  1.496315e-08
    717    683   2   0.50000     0.0600000   -0.1200000   2.494471e-04  1.671101e-07
    717    718   2   0.50000     0.0600000    0.0600000   6.128906e-05  1.496315e-08
    717    719   2   0.50000     0.0600000    0.0600000   6.128906e-05  1.496315e-08
    681    684   2   0.50000    -0.1200000    0.5100000   1.575021e-03  3.561100e-06
    681    720   2   0.50000    -0.1200000    0.0600000   1.599888e-04  9.721644e-08
    681    721   2   0.50000    -0.1200000    0.0600000   1.599888e-04  9.721644e-08
    718    684   2   0.50000     0.0600000    0.5100000   3.869820e-04  3.188634e-07
    718    720   2   0.50000     0.0600000    0.0600000   3.930919e-05  8.704828e-09
    718    721   2   0.50000     0.0600000    0.0600000   3.930919e-05  8.704828e-09
    719    684   2   0.50000     0.0600000    0.5100000   3.869820e-04  3.188634e-07
    719    720   2   0.50000     0.0600000    0.0600000   3.930919e-05  8.704828e-09
    719    721   2   0.50000     0.0600000    0.0600000   3.930919e-05  8.704828e-09
    682    685   2   0.50000    -0.1200000   -0.4300000   1.095425e-03  1.218041e-06
    682    722   2   0.50000    -0.1200000   -0.3300000   1.026091e-03  1.187829e-06
    720    685   2   0.50000     0.0600000   -0.4300000   1.726228e-04  6.344822e-08
    720    722   2   0.50000     0.0600000   -0.3300000   1.616969e-04  6.187447e-08
    721    685   2   0.50000     0.0600000   -0.4300000   1.726228e-04  6.344822e-08
    721    722   2   0.50000     0.0600000   -0.3300000   1.616969e-04  6.187447e-08
    683    723   2   0.50000    -0.1200000    0.1900000   1.015252e-03  1.866303e-06
    685    723   2   0.50000    -0.4300000    0.1900000   1.095425e-03  1.218041e-06
    684    724   2   0.50000     0.5100000   -0.1200000   1.575021e-03  3.561100e-06
    684    746   2   0.50000     0.5100000    0.0300000   2.482000e-04  1.854991e-07
    684    747   2   0.50000     0.5100000    0.0300000   2.482000e-04  1.854991e-07
    722    725   2   0.50000    -0.3300000   -0.1200000   1.026091e-03  1.187829e-06
    722    748   2   0.50000    -0.3300000    0.0600000   2.521103e-04  1.063590e-07
    722    749   2   0.50000    -0.3300000    0.0600000   2.521103e-04  1.063590e-07
    746    725   2   0.50000     0.0300000   -0.1200000   1.599888e-04  9.721644e-08
    746    748   2   0.50000     0.0300000    0.0600000   3.930919e-05  8.704828e-09
    746    749   2   0.50000     0.0300000    0.0600000   3.930919e-05  8.704828e-09
    747    725   2   0.50000     0.0300000   -0.1200000   1.599888e-04  9.721644e-08
    747    748   2   0.50000     0.0300000    0.0600000   3.930919e-05  8.704828e-09
    747    749   2   0.50000     0.0300000    0.0600000   3.930919e-05  8.704828e-09
    723    726   2   0.50000     0.1900000   -0.1200000   1.015252e-03  1.866303e-06
    723    750   2   0.50000     0.1900000    0.0600000   2.494471e-04  1.671101e-07
    723    751   2   0.50000     0.1900000    0.0600000   2.494471e-04  1.671101e-07
    748    726   2   0.50000     0.0600000   -0.1200000   2.494471e-04  1.671101e-07
    748    750   2   0.50000     0.0600000    0.0600000   6.128906e-05  1.496315e-08
    748    751   2   0.50000     0.0600000    0.0600000   6.128906e-05  1.496315e-08
    749    726   2   0.50000     0.0600000   -0.1200000   2.494471e-04  1.671101e-07
    749    750   2   0.50000     0.0600000    0.0600000   6.128906e-05  1.496315e-08
    749    751   2   0.50000     0.0600000    0.0600000   6.128906e-05  1.496315e-08
    724    727   2   0.50000    -0.1200000   -0.1200000   1.015252e-03  1.866303e-06
    724    752   2   0.50000    -0.1200000    0.0600000   2.494471e-04  1.671101e-07
    724    753   2   0.50000    -0.1200000    0.0600000   2.494471e-04  1.671101e-07
    750    727   2   0.50000     0.0600000   -0.1200000   2.494471e-04  1.671101e-07
    750    752   2   0.50000     0.0600000    0.0600000   6.128906e-05  1.496315e-08
    750    753   2   0.50000     0.0600000    0.0600000   6.128906e-05  1.496315e-08
    751    727   2   0.50000     0.0600000   -0.1200000   2.494471e-04  1.671101e-07
    751    752   2   0.50000     0.0600000    0.0600000   6.128906e-05  1.496315e-08
    751    753   2   0.50000     0.0600000    0.0600000   6.128906e-05  1.496315e-08
    725    728   2   0.50000    -0.1200000   -0.1200000   1.015252e-03  1.866303e-06
    725    754   2   0.50000    -0.1200000    0.0600000   2.494471e-04  1.671101e-07
    725    755   2   0.50000    -0.1200000    0.0600000   2.494471e-04  1.671101e-07
    752    728   2   0.50000     0.0600000   -0.1200000   2.494471e-04  1.671101e-07
    752    754   2   0.50000     0.0600000    0.0600000   6.128906e-05  1.496315e-08
    752    755   2   0.50000     0.0600000    0.0600000   6.128906e-05  1.496315e-08
    753    728   2   0.50000     0.0600000   -0.1200000   2.494471e-04  1.671101e-07
    753    754   2   0.50000     0.0600000    0.0600000   6.128906e-05  1.496315e-08
    753    755   2   0.50000     0.0600000    0.0600000   6.128906e-05  1.496315e-08
    726    729   2   0.50000    -0.1200000   -0.1200000   1.015252e-03  1.866303e-06
    726    756   2   0.50000    -0.1200000    0.0600000   2.494471e-04  1.671101e-07
    726    757   2   0.50000    -0.1200000    0.0600000   2.494471e-04  1.671101e-07
    754    729   2   0.50000     0.0600000   -0.1200000   2.494471e-04  1.671101e-07
    754    756   2   0.50000     0.0600000    0.0600000   6.128906e-05  1.496315e-08
    754    757   2   0.50000     0.0600000    0.0600000   6.128906e-05  1.496315e-08
    755    729   2   0.50000     0.0600000   -0.1200000   2.494471e-04  1.671101e-07
    755    756   2   0.50000     0.0600000    0.0600000   6.128906e-05  1.496315e-08
    755    757   2   0.50000     0.0600000    0.0600000   6.128906e-05  1.496315e-08
    727    730   2   0.50000    -0.1200000   -0.1200000   1.015252e-03  1.866303e-06
    727    758   2   0.50000    -0.1200000    0.0600000   2.494471e-04  1.671101e-07
    727    759   2   0.50000    -0.1200000    0.0600000   2.494471e-04  1.671101e-07
    756    730   2   0.50000     0.0600000   -0.1200000   2.494471e-04  1.671101e-07
    756    758   2   0.50000     0.0600000    0.0600000   6.128906e-05  1.496315e-08
    756    759   2   0.50000     0.0600000    0.0600000   6.128906e-05  1.496315e-08
    757    730   2   0.50000     0.0600000   -0.1200000   2.494471e-04  1.671101e-07
    757    758   2   0.50000     0.0600000    0.0600000   6.128906e-05  1.496315e-08
    757    759   2   0.50000     0.0600000    0.0600000   6.128906e-05  1.496315e-08
    728    731   2   0.50000    -0.1200000   -0.1200000   1.015252e-03  1.866303e-06
    728    760   2   0.50000    -0.1200000    0.0600000   2.494471e-04  1.671101e-07
    728    761   2   0.50000    -0.1200000    0.0600000   2.494471e-04  1.671101e-07
    758    731   2   0.50000     0.0600000   -0.1200000   2.494471e-04  1.671101e-07
    758    760   2   0.50000     0.0600000    0.0600000   6.128906e-05  1.496315e-08
    758    761   2   0.50000     0.0600000    0.0600000   6.128906e-05  1.496315e-08
    759    731   2   0.50000     0.0600000   -0.1200000   2.494471e-04  1.671101e-07
    759    760   2   0.50000     0.0600000    0.0600000   6.128906e-05  1.496315e-08
    759    761   2   0.50000     0.0600000    0.0600000   6.128906e-05  1.496315e-08
    729    732   2   0.50000    -0.1200000    0.1900000   1.015252e-03  1.866303e-06
    729    762   2   0.50000    -0.1200000    0.0600000   2.494471e-04  1.671101e-07
    729    763   2   0.50000    -0.1200000    0.0600000   2.494471e-04  1.671101e-07
    760    732   2   0.50000     0.0600000    0.1900000   2.494471e-04  1.671101e-07
    760    762   2   0.50000     0.0600000    0.0600000   6.128906e-05  1.496315e-08
    760    763   2   0.50000     0.0600000    0.0600000   6.128906e-05  1.496315e-08
    761    732   2   0.50000     0.0600000    0.1900000   2.494471e-04  1.671101e-07
    761    762   2   0.50000     0.0600000    0.0600000   6.128906e-05  1.496315e-08
    761    763   2   0.50000     0.0600000    0.0600000   6.128906e-05  1.496315e-08
    730    733   2   0.50000    -0.1200000   -0.3300000   1.026091e-03  1.187829e-06
    730    764   2   0.50000    -0.1200000    0.0300000   1.599888e-04  9.721644e-08
    730    765   2   0.50000    -0.1200000    0.0300000   1.599888e-04  9.721644e-08
    762    733   2   0.50000     0.0600000   -0.3300000   2.521103e-04  1.063590e-07
    762    764   2   0.50000     0.0600000    0.0300000   3.930919e-05  8.704828e-09
    762    765   2   0.50000     0.0600000    0.0300000   3.930919e-05  8.704828e-09
    763    733   2   0.50000     0.0600000   -0.3300000   2.521103e-04  1.063590e-07
    763    764   2   0.50000     0.0600000    0.0300000   3.930919e-05  8.704828e-09
    763    765   2   0.50000     0.0600000    0.0300000   3.930919e-05  8.704828e-09
    731    734   2   0.50000    -0.1200000    0.5100000   1.575021e-03  3.561100e-06
    764    734   2   0.50000     0.0300000    0.5100000   2.482000e-04  1.854991e-07
    765    734   2   0.50000     0.0300000    0.5100000   2.482000e-04  1.854991e-07
    732    735   2   0.50000     0.1900000   -0.4300000   1.095425e-03  1.218041e-06
    732    736   2   0.50000     0.1900000   -0.1200000   1.015252e-03  1.866303e-06
    733    737   2   0.50000    -0.3300000   -0.1200000   1.026091e-03  1.187829e-06
    733    766   2   0.50000    -0.3300000    0.0600000   1.616969e-04  6.187447e-08
    733    767   2   0.50000    -0.3300000    0.0600000   1.616969e-04  6.187447e-08
    735    737   2   0.50000    -0.4300000   -0.1200000   1.095425e-03  1.218041e-06
    735    766   2   0.50000    -0.4300000    0.0600000   1.726228e-04  6.344822e-08
    735    767   2   0.50000    -0.4300000    0.0600000   1.726228e-04  6.344822e-08
    734    738   2   0.50000     0.5100000   -0.1200000   1.575021e-03  3.561100e-06
    734    768   2   0.50000     0.5100000    0.0600000   3.869820e-04  3.188634e-07
    734    769   2   0.50000     0.5100000    0.0600000   3.869820e-04  3.188634e-07
    766    738   2   0.50000     0.0600000   -0.1200000   1.599888e-04  9.721644e-08
    766    768   2   0.50000     0.0600000    0.0600000   3.930919e-05  8.704828e-09
    766    769   2   0.50000     0.0600000    0.0600000   3.930919e-05  8.704828e-09
    767    738   2   0.50000     0.0600000   -0.1200000   1.599888e-04  9.721644e-08
    767    768   2   0.50000     0.0600000    0.0600000   3.930919e-05  8.704828e-09
    767    769   2   0.50000     0.0600000    0.0600000   3.930919e-05  8.704828e-09
    736    739   2   0.50000    -0.1200000   -0.1200000   1.015252e-03  1.866303e-06
    736    770   2   0.50000    -0.1200000    0.0600000   2.494471e-04  1.671101e-07
    736    771   2   0.50000    -0.1200000    0.0600000   2.494471e-04  1.671101e-07
    768    739   2   0.50000     0.0600000   -0.1200000   2.494471e-04  1.671101e-07
    768    770   2   0.50000     0.0600000    0.0600000   6.128906e-05  1.496315e-08
    768    771   2   0.50000     0.0600000    0.0600000   6.128906e-05  1.496315e-08
    769    739   2   0.50000     0.0600000   -0.1200000   2.494471e-04  1.671101e-07
    769    770   2   0.50000     0.0600000    0.0600000   6.128906e-05  1.496315e-08
    769    771   2   0.50000     0.0600000    0.0600000   6.128906e-05  1.496315e-08
    737    740   2   0.50000    -0.1200000   -0.1200000   1.015252e-03  1.866303e-06
    737    772   2   0.50000    -0.1200000    0.0600000   2.494471e-04  1.671101e-07
    737    773   2   0.50000    -0.1200000    0.0600000   2.494471e-04  1.671101e-07
    770    740   2   0.50000     0.0600000   -0.1200000   2.494471e-04  1.671101e-07
    770    772   2   0.50000     0.0600000    0.0600000   6.128906e-05  1.496315e-08
    770    773   2   0.50000     0.0600000    0.0600000   6.128906e-05  1.496315e-08
    771    740   2   0.50000     0.0600000   -0.1200000   2.494471e-04  1.671101e-07
    771    772   2   0.50000     0.0600000    0.0600000   6.128906e-05  1.496315e-08
    771    773   2   0.50000     0.0600000    0.0600000   6.128906e-05  1.496315e-08
    738    741   2   0.50000    -0.1200000   -0.1200000   1.015252e-03  1.866303e-06
    738    774   2   0.50000    -0.1200000    0.0600000   2.494471e-04  1.671101e-07
    738    775   2   0.50000    -0.1200000    0.0600000   2.494471e-04  1.671101e-07
    772    741   2   0.50000     0.0600000   -0.1200000   2.494471e-04  1.671101e-07
    772    774   2   0.50000     0.0600000    0.0600000   6.128906e-05  1.496315e-08
    772    775   2   0.50000     0.0600000    0.0600000   6.128906e-05  1.496315e-08
    773    741   2   0.50000     0.0600000   -0.1200000   2.494471e-04  1.671101e-07
    773    774   2   0.50000     0.0600000    0.0600000   6.128906e-05  1.496315e-08
    773    775   2   0.50000     0.0600000    0.0600000   6.128906e-05  1.496315e-08
    739    742   2   0.50000    -0.1200000   -0.1200000   1.015252e-03  1.866303e-06
    739    776   2   0.50000    -0.1200000    0.0600000   2.494471e-04  1.671101e-07
    739    777   2   0.50000    -0.1200000    0.0600000   2.494471e-04  1.671101e-07
    774    742   2   0.50000     0.0600000   -0.1200000   2.494471e-04  1.671101e-07
    774    776   2   0.50000     0.0600000    0.0600000   6.128906e-05  1.496315e-08
    774    777   2   0.50000     0.0600000    0.0600000   6.128906e-05  1.496315e-08
    775    742   2   0.50000     0.0600000   -0.1200000   2.494471e-04  1.671101e-07
    775    776   2   0.50000     0.0600000    0.0600000   6.128906e-05  1.496315e-08
    775    777   2   0.50000     0.0600000    0.0600000   6.128906e-05  1.496315e-08
    740    743   2   0.50000    -0.1200000   -0.1200000   1.015252e-03  1.866303e-06
    740    778   2   0.50000    -0.1200000    0.0600000   2.494471e-04  1.671101e-07
    740    779   2   0.50000    -0.1200000    0.0600000   2.494471e-04  1.671101e-07
    776    743   2   0.50000     0.0600000   -0.1200000   2.494471e-04  1.671101e-07
    776    778   2   0.50000     0.0600000    0.0600000   6.128906e-05  1.496315e-08
    776    779   2   0.50000     0.0600000    0.0600000   6.128906e-05  1.496315e-08
    777    743   2   0.50000     0.0600000   -0.1200000   2.494471e-04  1.671101e-07
    777    778   2   0.50000     0.0600000    0.0600000   6.128906e-05  1.496315e-08
    777    779   2   0.50000     0.0600000    0.0600000   6.128906e-05  1.496315e-08
    741    744   2   0.50000    -0.1200000    0.5100000   1.575021e-03  3.561100e-06
    741    780   2   0.50000    -0.1200000    0.0600000   1.599888e-04  9.721644e-08
    741    781   2   0.50000    -0.1200000    0.0600000   1.599888e-04  9.721644e-08
    778    744   2   0.50000     0.0600000    0.5100000   3.869820e-04  3.188634e-07
    778    780   2   0.50000     0.0600000    0.0600000   3.930919e-05  8.704828e-09
    778    781   2   0.50000     0.0600000    0.0600000   3.930919e-05  8.704828e-09
    779    744   2   0.50000     0.0600000    0.5100000   3.869820e-04  3.188634e-07
    779    780   2   0.50000     0.0600000    0.0600000   3.930919e-05  8.704828e-09
    779    781   2   0.50000     0.0600000    0.0600000   3.930919e-05  8.704828e-09
    742    745   2   0.50000    -0.1200000   -0.4300000   1.095425e-03  1.218041e-06
    742    782   2   0.50000    -0.1200000   -0.3300000   1.026091e-03  1.187829e-06
    780    745   2   0.50000     0.0600000   -0.4300000   1.726228e-04  6.344822e-08
    780    782   2   0.50000     0.0600000   -0.3300000   1.616969e-04  6.187447e-08
    781    745   2   0.50000     0.0600000   -0.4300000   1.726228e-04  6.344822e-08
    781    782   2   0.50000     0.0600000   -0.3300000   1.616969e-04  6.187447e-08
    743    783   2   0.50000    -0.1200000    0.1900000   1.015252e-03  1.866303e-06
    745    783   2   0.50000    -0.4300000    0.1900000   1.095425e-03  1.218041e-06
    744    784   2   0.50000     0.5100000   -0.1200000   1.575021e-03  3.561100e-06
    744    806   2   0.50000     0.5100000    0.0300000   2.482000e-04  1.854991e-07
    744    807   2   0.50000     0.5100000    0.0300000   2.482000e-04  1.854991e-07
    782    785   2   0.50000    -0.3300000   -0.1200000   1.026091e-03  1.187829e-06
    782    808   2   0.50000    -0.3300000    0.0600000   2.521103e-04  1.063590e-07
    782    809   2   0.50000    -0.3300000    0.0600000   2.521103e-04  1.063590e-07
    806    785   2   0.50000     0.0300000   -0.1200000   1.599888e-04  9.721644e-08
    806    808   2   0.50000     0.0300000    0.0600000   3.930919e-05  8.704828e-09
    806    809   2   0.50000     0.0300000    0.0600000   3.930919e-05  8.704828e-09
    807    785   2   0.50000     0.0300000   -0.1200000   1.599888e-04  9.721644e-08
    807    808   2   0.50000     0.0300000    0.0600000   3.930919e-05  8.704828e-09
    807    809   2   0.50000     0.0300000    0.0600000   3.930919e-05  8.704828e-09
    783    786   2   0.50000     0.1900000   -0.1200000   1.015252e-03  1.866303e-06
    783    810   2   0.50000     0.1900000    0.0600000   2.494471e-04  1.671101e-07
    783    811   2   0.50000     0.1900000    0.0600000   2.494471e-04  1.671101e-07
    808    786   2   0.50000     0.0600000   -0.1200000   2.494471e-04  1.671101e-07
    808    810   2   0.50000     0.0600000    0.0600000   6.128906e-05  1.496315e-08
    808    811   2   0.50000     0.0600000    0.0600000   6.128906e-05  1.496315e-08
    809    786   2   0.50000     0.0600000   -0.1200000   2.494471e-04  1.671101e-07
    809    810   2   0.50000     0.0600000    0.0600000   6.128906e-05  1.496315e-08
    809    811   2   0.50000     0.0600000    0.0600000   6.128906e-05  1.496315e-08
    784    787   2   0.50000    -0.1200000   -0.1200000   1.015252e-03  1.866303e-06
    784    812   2   0.50000    -0.1200000    0.0600000   2.494471e-04  1.671101e-07
    784    813   2   0.50000    -0.1200000    0.0600000   2.494471e-04  1.671101e-07
    810    787   2   0.50000     0.0600000   -0.1200000   2.494471e-04  1.671101e-07
    810    812   2   0.50000     0.0600000    0.0600000   6.128906e-05  1.496315e-08
    810    813   2   0.50000     0.0600000    0.0600000   6.128906e-05  1.496315e-08
    811    787   2   0.50000     0.0600000   -0.1200000   2.494471e-04  1.671101e-07
    811    812   2   0.50000     0.0600000    0.0600000   6.128906e-05  1.496315e-08
    811    813   2   0.50000     0.0600000    0.0600000   6.128906e-05  1.496315e-08
    785    788   2   0.50000    -0.1200000   -0.1200000   1.015252e-03  1.866303e-06
    785    814   2   0.50000    -0.1200000    0.0600000   2.494471e-04  1.671101e-07
    785    815   2   0.50000    -0.1200000    0.0600000   2.494471e-04  1.671101e-07
    812    788   2   0.50000     0.0600000   -0.1200000   2.494471e-04  1.671101e-07
    812    814   2   0.50000     0.0600000    0.0600000   6.128906e-05  1.496315e-08
    812    815   2   0.50000     0.0600000    0.0600000   6.128906e-05  1.496315e-08
    813    788   2   0.50000     0.0600000   -0.1200000   2.494471e-04  1.671101e-07
    813    814   2   0.50000     0.0600000    0.0600000   6.128906e-05  1.496315e-08
    813    815   2   0.50000     0.0600000    0.0600000   6.128906e-05  1.496315e-08
    786    789   2   0.50000    -0.1200000   -0.1200000   1.015252e-03  1.866303e-06
    786    816   2   0.50000    -0.1200000    0.0600000   2.494471e-04  1.671101e-07
    786    817   2   0.50000    -0.1200000    0.0600000   2.494471e-04  1.671101e-07
    814    789   2   0.50000     0.0600000   -0.1200000   2.494471e-04  1.671101e-07
    814    816   2   0.50000     0.0600000    0.0600000   6.128906e-05  1.496315e-08
    814    817   2   0.50000     0.0600000    0.0600000   6.128906e-05  1.496315e-08
    815    789   2   0.50000     0.0600000   -0.1200000   2.494471e-04  1.671101e-07
    815    816   2   0.50000     0.0600000    0.0600000   6.128906e-05  1.496315e-08
    815    817   2   0.50000     0.0600000    0.0600000   6.128906e-05  1.496315e-08
    787    790   2   0.50000    -0.1200000   -0.1200000   1.015252e-03  1.866303e-06
    787    818   2   0.50000    -0.1200000    0.0600000   2.494471e-04  1.671101e-07
    787    819   2   0.50000    -0.1200000    0.0600000   2.494471e-04  1.671101e-07
    816    790   2   0.50000     0.0600000   -0.1200000   2.494471e-04  1.671101e-07
    816    818   2   0.50000     0.0600000    0.0600000   6.128906e-05  1.496315e-08
    816    819   2   0.50000     0.0600000    0.0600000   6.128906e-05  1.496315e-08
    817    790   2   0.50000     0.0600000   -0.1200000   2.494471e-04  1.671101e-07
    817    818   2   0.50000     0.0600000    0.0600000   6.128906e-05  1.496315e-08
    817    819   2   0.50000     0.0600000    0.0600000   6.128906e-05  1.496315e-08
    788    791   2   0.50000    -0.1200000   -0.1200000   1.015252e-03  1.866303e-06
    788    820   2   0.50000    -0.1200000    0.0600000   2.494471e-04  1.671101e-07
    788    821   2   0.50000    -0.1200000    0.0600000   2.494471e-04  1.671101e-07
    818    791   2   0.50000     0.0600000   -0.1200000   2.494471e-04  1.671101e-07
    818    820   2   0.50000     0.0600000    0.0600000   6.128906e-05  1.496315e-08
    818    821   2   0.50000     0.0600000    0.0600000   6.128906e-05  1.496315e-08
    819    791   2   0.50000     0.0600000   -0.1200000   2.494471e-04  1.671101e-07
    819    820   2   0.50000     0.0600000    0.0600000   6.128906e-05  1.496315e-08
    819    821   2   0.50000     0.0600000    0.0600000   6.128906e-05  1.496315e-08
    789    792   2   0.50000    -0.1200000    0.1900000   1.015252e-03  1.866303e-06
    789    822   2   0.50000    -0.1200000    0.0600000   2.494471e-04  1.671101e-07
    789    823   2   0.50000    -0.1200000    0.0600000   2.494471e-04  1.671101e-07
    820    792   2   0.50000     0.0600000    0.1900000   2.494471e-04  1.671101e-07
    820    822   2   0.50000     0.0600000    0.0600000   6.128906e-05  1.496315e-08
    820    823   2   0.50000     0.0600000    0.0600000   6.128906e-05  1.496315e-08
    821    792   2   0.50000     0.0600000    0.1900000   2.494471e-04  1.671101e-07
    821    822   2   0.50000     0.0600000    0.0600000   6.128906e-05  1.496315e-08
    821    823   2   0.50000     0.0600000    0.0600000   6.128906e-05  1.496315e-08
    790    793   2   0.50000    -0.1200000   -0.3300000   1.026091e-03  1.187829e-06
    790    824   2   0.50000    -0.1200000    0.0300000   1.599888e-04  9.721644e-08
    790    825   2   0.50000    -0.1200000    0.0300000   1.599888e-04  9.721644e-08
    822    793   2   0.50000     0.0600000   -0.3300000   2.521103e-04  1.063590e-07
    822    824   2   0.50000     0.0600000    0.0300000   3.930919e-05  8.704828e-09
    822    825   2   0.50000     0.0600000    0.0300000   3.930919e-05  8.704828e-09
    823    793   2   0.50000     0.0600000   -0.3300000   2.521103e-04  1.063590e-07
    823    824   2   0.50000     0.0600000    0.0300000   3.930919e-05  8.704828e-09
    823    825   2   0.50000     0.0600000    0.0300000   3.930919e-05  8.704828e-09
    791    794   2   0.50000    -0.1200000    0.5100000   1.575021e-03  3.561100e-06
    824    794   2   0.50000     0.0300000    0.5100000   2.482000e-04  1.854991e-07
    825    794   2   0.50000     0.0300000    0.5100000   2.482000e-04  1.854991e-07
    792    795   2   0.50000     0.1900000   -0.4300000   1.095425e-03  1.218041e-06
    792    796   2   0.50000     0.1900000   -0.1200000   1.015252e-03  1.866303e-06
    793    797   2   0.50000    -0.3300000   -0.1200000   1.026091e-03  1.187829e-06
    793    826   2   0.50000    -0.3300000    0.0600000   1.616969e-04  6.187447e-08
    793    827   2   0.50000    -0.3300000    0.0600000   1.616969e-04  6.187447e-08
    795    797   2   0.50000    -0.4300000   -0.1200000   1.095425e-03  1.218041e-06
    795    826   2   0.50000    -0.4300000    0.0600000   1.726228e-04  6.344822e-08
    795    827   2   0.50000    -0.4300000    0.0600000   1.726228e-04  6.344822e-08
    794    798   2   0.50000     0.5100000   -0.1200000   1.575021e-03  3.561100e-06
    794    828   2   0.50000     0.5100000    0.0600000   3.869820e-04  3.188634e-07
    794    829   2   0.50000     0.5100000    0.0600000   3.869820e-04  3.188634e-07
    826    798   2   0.50000     0.0600000   -0.1200000   1.599888e-04  9.721644e-08
    826    828   2   0.50000     0.0600000    0.0600000   3.930919e-05  8.704828e-09
    826    829   2   0.50000     0.0600000    0.0600000   3.930919e-05  8.704828e-09
    827    798   2   0.50000     0.0600000   -0.1200000   1.599888e-04  9.721644e-08
    827    828   2   0.50000     0.0600000    0.0600000   3.930919e-05  8.704828e-09
    827    829   2   0.50000     0.0600000    0.0600000   3.930919e-05  8.704828e-09
    796    799   2   0.50000    -0.1200000   -0.1200000   1.015252e-03  1.866303e-06
    796    830   2   0.50000    -0.1200000    0.0600000   2.494471e-04  1.671101e-07
    796    831   2   0.50000    -0.1200000    0.0600000   2.494471e-04  1.671101e-07
    828    799   2   0.50000     0.0600000   -0.1200000   2.494471e-04  1.671101e-07
    828    830   2   0.50000     0.0600000    0.0600000   6.128906e-05  1.496315e-08
    828    831   2   0.50000     0.0600000    0.0600000   6.128906e-05  1.496315e-08
    829    799   2   0.50000     0.0600000   -0.1200000   2.494471e-04  1.671101e-07
    829    830   2   0.50000     0.0600000    0.0600000   6.128906e-05  1.496315e-08
    829    831   2   0.50000     0.0600000    0.0600000   6.128906e-05  1.496315e-08
    797    800   2   0.50000    -0.1200000   -0.1200000   1.015252e-03  1.866303e-06
    797    832   2   0.50000    -0.1200000    0.0600000   2.494471e-04  1.671101e-07
    797    833   2   0.50000    -0.1200000    0.0600000   2.494471e-04  1.671101e-07
    830    800   2   0.50000     0.0600000   -0.1200000   2.494471e-04  1.671101e-07
    830    832   2   0.50000     0.0600000    0.0600000   6.128906e-05  1.496315e-08
    830    833   2   0.50000     0.0600000    0.0600000   6.128906e-05  1.496315e-08
    831    800   2   0.50000     0.0600000   -0.1200000   2.494471e-04  1.671101e-07
    831    832   2   0.50000     0.0600000    0.0600000   6.128906e-05  1.496315e-08
    831    833   2   0.50000     0.0600000    0.0600000   6.128906e-05  1.496315e-08
    798    801   2   0.50000    -0.1200000   -0.1200000   1.015252e-03  1.866303e-06
    798    834   2   0.50000    -0.1200000    0.0600000   2.494471e-04  1.671101e-07
    798    835   2   0.50000    -0.1200000    0.0600000   2.494471e-04  1.671101e-07
    832    801   2   0.50000     0.0600000   -0.1200000   2.494471e-04  1.671101e-07
    832    834   2   0.50000     0.0600000    0.0600000   6.128906e-05  1.496315e-08
    832    835   2   0.50000     0.0600000    0.0600000   6.128906e-05  1.496315e-08
    833    801   2   0.50000     0.0600000   -0.1200000   2.494471e-04  1.671101e-07
    833    834   2   0.50000     0.0600000    0.0600000   6.128906e-05  1.496315e-08
    833    835   2   0.50000     0.0600000    0.0600000   6.128906e-05  1.496315e-08
    799    802   2   0.50000    -0.1200000   -0.1200000   1.015252e-03  1.866303e-06
    799    836   2   0.50000    -0.1200000    0.0600000   2.494471e-04  1.671101e-07
    799    837   2   0.50000    -0.1200000    0.0600000   2.494471e-04  1.671101e-07
    834    802   2   0.50000     0.0600000   -0.1200000   2.494471e-04  1.671101e-07
    834    836   2   0.50000     0.0600000    0.0600000   6.128906e-05  1.496315e-08
    834    837   2   0.50000     0.0600000    0.0600000   6.128906e-05  1.496315e-08
    835    802   2   0.50000     0.0600000   -0.1200000   2.494471e-04  1.671101e-07
    835    836   2   0.50000     0.0600000    0.0600000   6.128906e-05  1.496315e-08
    835    837   2   0.50000     0.0600000    0.0600000   6.128906e-05  1.496315e-08
    800    803   2   0.50000    -0.1200000   -0.1200000   1.015252e-03  1.866303e-06
    800    838   2   0.50000    -0.1200000    0.0600000   2.494471e-04  1.671101e-07
    800    839   2   0.50000    -0.1200000    0.0600000   2.494471e-04  1.671101e-07
    836    803   2   0.50000     0.0600000   -0.1200000   2.494471e-04  1.671101e-07
    836    838   2   0.50000     0.0600000    0.0600000   6.128906e-05  1.496315e-08
    836    839   2   0.50000     0.0600000    0.0600000   6.128906e-05  1.496315e-08
    837    803   2   0.50000     0.0600000   -0.1200000   2.494471e-04  1.671101e-07
    837    838   2   0.50000     0.0600000    0.0600000   6.128906e-05  1.496315e-08
    837    839   2   0.50000     0.0600000    0.0600000   6.128906e-05  1.496315e-08
    801    804   2   0.50000    -0.1200000    0.5100000   1.575021e-03  3.561100e-06
    801    840   2   0.50000    -0.1200000    0.0600000   1.599888e-04  9.721644e-08
    801    841   2   0.50000    -0.1200000    0.0600000   1.599888e-04  9.721644e-08
    838    804   2   0.50000     0.0600000    0.5100000   3.869820e-04  3.188634e-07
    838    840   2   0.50000     0.0600000    0.0600000   3.930919e-05  8.704828e-09
    838    841   2   0.50000     0.0600000    0.0600000   3.930919e-05  8.704828e-09
    839    804   2   0.50000     0.0600000    0.5100000   3.869820e-04  3.188634e-07
    839    840   2   0.50000     0.0600000    0.0600000   3.930919e-05  8.704828e-09
    839    841   2   0.50000     0.0600000    0.0600000   3.930919e-05  8.704828e-09
    802    805   2   0.50000    -0.1200000   -0.4300000   1.095425e-03  1.218041e-06
    802    842   2   0.50000    -0.1200000   -0.3300000   1.026091e-03  1.187829e-06
    840    805   2   0.50000     0.0600000   -0.4300000   1.726228e-04  6.344822e-08
    840    842   2   0.50000     0.0600000   -0.3300000   1.616969e-04  6.187447e-08
    841    805   2   0.50000     0.0600000   -0.4300000   1.726228e-04  6.344822e-08
    841    842   2   0.50000     0.0600000   -0.3300000   1.616969e-04  6.187447e-08
    803    843   2   0.50000    -0.1200000    0.1900000   1.015252e-03  1.866303e-06
    805    843   2   0.50000    -0.4300000    0.1900000   1.095425e-03  1.218041e-06
    804    844   2   0.50000     0.5100000   -0.1200000   1.575021e-03  3.561100e-06
    804    866   2   0.50000     0.5100000    0.0300000   2.482000e-04  1.854991e-07
    804    867   2   0.50000     0.5100000    0.0300000   2.482000e-04  1.854991e-07
    842    845   2   0.50000    -0.3300000   -0.1200000   1.026091e-03  1.187829e-06
    842    868   2   0.50000    -0.3300000    0.0600000   2.521103e-04  1.063590e-07
    842    869   2   0.50000    -0.3300000    0.0600000   2.521103e-04  1.063590e-07
    866    845   2   0.50000     0.0300000   -0.1200000   1.599888e-04  9.721644e-08
    866    868   2   0.50000     0.0300000    0.0600000   3.930919e-05  8.704828e-09
    866    869   2   0.50000     0.0300000    0.0600000   3.930919e-05  8.704828e-09
    867    845   2   0.50000     0.0300000   -0.1200000   1.599888e-04  9.721644e-08
    867    868   2   0.50000     0.0300000    0.0600000   3.930919e-05  8.704828e-09
    867    869   2   0.50000     0.0300000    0.0600000   3.930919e-05  8.704828e-09
    843    846   2   0.50000     0.1900000   -0.1200000   1.015252e-03  1.866303e-06
    843    870   2   0.50000     0.1900000    0.0600000   2.494471e-04  1.671101e-07
    843    871   2   0.50000     0.1900000    0.0600000   2.494471e-04  1.671101e-07
    868    846   2   0.50000     0.0600000   -0.1200000   2.494471e-04  1.671101e-07
    868    870   2   0.50000     0.0600000    0.0600000   6.128906e-05  1.496315e-08
    868    871   2   0.50000     0.0600000    0.0600000   6.128906e-05  1.496315e-08
    869    846   2   0.50000     0.0600000   -0.1200000   2.494471e-04  1.671101e-07
    869    870   2   0.50000     0.0600000    0.0600000   6.128906e-05  1.496315e-08
    869    871   2   0.50000     0.0600000    0.0600000   6.128906e-05  1.496315e-08
    844    847   2   0.50000    -0.1200000   -0.1200000   1.015252e-03  1.866303e-06
    844    872   2   0.50000    -0.1200000    0.0600000   2.494471e-04  1.671101e-07
    844    873   2   0.50000    -0.1200000    0.0600000   2.494471e-04  1.671101e-07
    870    847   2   0.50000     0.0600000   -0.1200000   2.494471e-04  1.671101e-07
    870    872   2   0.50000     0.0600000    0.0600000   6.128906e-05  1.496315e-08
    870    873   2   0.50000     0.0600000    0.0600000   6.128906e-05  1.496315e-08
    871    847   2   0.50000     0.0600000   -0.1200000   2.494471e-04  1.671101e-07
    871    872   2   0.50000     0.0600000    0.0600000   6.128906e-05  1.496315e-08
    871    873   2   0.50000     0.0600000    0.0600000   6.128906e-05  1.496315e-08
    845    848   2   0.50000    -0.1200000   -0.1200000   1.015252e-03  1.866303e-06
    845    874   2   0.50000    -0.1200000    0.0600000   2.494471e-04  1.671101e-07
    845    875   2   0.50000    -0.1200000    0.0600000   2.494471e-04  1.671101e-07
    872    848   2   0.50000     0.0600000   -0.1200000   2.494471e-04  1.671101e-07
    872    874   2   0.50000     0.0600000    0.0600000   6.128906e-05  1.496315e-08
    872    875   2   0.50000     0.0600000    0.0600000   6.128906e-05  1.496315e-08
    873    848   2   0.50000     0.0600000   -0.1200000   2.494471e-04  1.671101e-07
    873    874   2   0.50000     0.0600000    0.0600000   6.128906e-05  1.496315e-08
    873    875   2   0.50000     0.0600000    0.0600000   6.128906e-05  1.496315e-08
    846    849   2   0.50000    -0.1200000   -0.1200000   1.015252e-03  1.866303e-06
    846    876   2   0.50000    -0.1200000    0.0600000   2.494471e-04  1.671101e-07
    846    877   2   0.50000    -0.1200000    0.0600000   2.494471e-04  1.671101e-07
    874    849   2   0.50000     0.0600000   -0.1200000   2.494471e-04  1.671101e-07
    874    876   2   0.50000     0.0600000    0.0600000   6.128906e-05  1.496315e-08
    874    877   2   0.50000     0.0600000    0.0600000   6.128906e-05  1.496315e-08
    875    849   2   0.50000     0.0600000   -0.1200000   2.494471e-04  1.671101e-07
    875    876   2   0.50000     0.0600000    0.0600000   6.128906e-05  1.496315e-08
    875    877   2   0.50000     0.0600000    0.0600000   6.128906e-05  1.496315e-08
    847    850   2   0.50000    -0.1200000   -0.1200000   1.015252e-03  1.866303e-06
    847    878   2   0.50000    -0.1200000    0.0600000   2.494471e-04  1.671101e-07
    847    879   2   0.50000    -0.1200000    0.0600000   2.494471e-04  1.671101e-07
    876    850   2   0.50000     0.0600000   -0.1200000   2.494471e-04  1.671101e-07
    876    878   2   0.50000     0.0600000    0.0600000   6.128906e-05  1.496315e-08
    876    879   2   0.50000     0.0600000    0.0600000   6.128906e-05  1.496315e-08
    877    850   2   0.50000     0.0600000   -0.1200000   2.494471e-04  1.671101e-07
    877    878   2   0.50000     0.0600000    0.0600000   6.128906e-05  1.496315e-08
    877    879   2   0.50000     0.0600000    0.0600000   6.128906e-05  1.496315e-08
    848    851   2   0.50000    -0.1200000   -0.1200000   1.015252e-03  1.866303e-06
    848    880   2   0.50000    -0.1200000    0.0600000   2.494471e-04  1.671101e-07
    848    881   2   0.50000    -0.1200000    0.0600000   2.494471e-04  1.671101e-07
    878    851   2   0.50000     0.0600000   -0.1200000   2.494471e-04  1.671101e-07
    878    880   2   0.50000     0.0600000    0.0600000   6.128906e-05  1.496315e-08
    878    881   2   0.50000     0.0600000    0.0600000   6.128906e-05  1.496315e-08
    879    851   2   0.50000     0.0600000   -0.1200000   2.494471e-04  1.671101e-07
    879    880   2   0.50000     0.0600000    0.0600000   6.128906e-05  1.496315e-08
    879    881   2   0.50000     0.0600000    0.0600000   6.128906e-05  1.496315e-08
    849    852   2   0.50000    -0.1200000    0.1900000   1.015252e-03  1.866303e-06
    849    882   2   0.50000    -0.1200000    0.0600000   2.494471e-04  1.671101e-07
    849    883   2   0.50000    -0.1200000    0.0600000   2.494471e-04  1.671101e-07
    880    852   2   0.50000     0.0600000    0.1900000   2.494471e-04  1.671101e-07
    880    882   2   0.50000     0.0600000    0.0600000   6.128906e-05  1.496315e-08
    880    883   2   0.50000     0.0600000    0.0600000   6.128906e-05  1.496315e-08
    881    852   2   0.50000     0.0600000    0.1900000   2.494471e-04  1.671101e-07
    881    882   2   0.50000     0.0600000    0.0600000   6.128906e-05  1.496315e-08
    881    883   2   0.50000     0.0600000    0.0600000   6.128906e-05  1.496315e-08
    850    853   2   0.50000    -0.1200000   -0.3300000   1.026091e-03  1.187829e-06
    850    884   2   0.50000    -0.1200000    0.0300000   1.599888e-04  9.721644e-08
    850    885   2   0.50000    -0.1200000    0.0300000   1.599888e-04  9.721644e-08
    882    853   2   0.50000     0.0600000   -0.3300000   2.521103e-04  1.063590e-07
    882    884   2   0.50000     0.0600000    0.0300000   3.930919e-05  8.704828e-09
    882    885   2   0.50000     0.0600000    0.0300000   3.930919e-05  8.704828e-09
    883    853   2   0.50000     0.0600000   -0.3300000   2.521103e-04  1.063590e-07
    883    884   2   0.50000     0.0600000    0.0300000   3.930919e-05  8.704828e-09
    883    885   2   0.50000     0.0600000    0.0300000   3.930919e-05  8.704828e-09
    851    854   2   0.50000    -0.1200000    0.5100000   1.575021e-03  3.561100e-06
    884    854   2   0.50000     0.0300000    0.5100000   2.482000e-04  1.854991e-07
    885    854   2   0.50000     0.0300000    0.5100000   2.482000e-04  1.854991e-07
    852    855   2   0.50000     0.1900000   -0.4300000   1.095425e-03  1.218041e-06
    852    856   2   0.50000     0.1900000   -0.1200000   1.015252e-03  1.866303e-06
    853    857   2   0.50000    -0.3300000   -0.1200000   1.026091e-03  1.187829e-06
    853    886   2   0.50000    -0.3300000    0.0600000   1.616969e-04  6.187447e-08
    853    887   2   0.50000    -0.3300000    0.0600000   1.616969e-04  6.187447e-08
    855    857   2   0.50000    -0.4300000   -0.1200000   1.095425e-03  1.218041e-06
    855    886   2   0.50000    -0.4300000    0.0600000   1.726228e-04  6.344822e-08
    855    887   2   0.50000    -0.4300000    0.0600000   1.726228e-04  6.344822e-08
    854    858   2   0.50000     0.5100000   -0.1200000   1.575021e-03  3.561100e-06
    854    888   2   0.50000     0.5100000    0.0600000   3.869820e-04  3.188634e-07
    854    889   2   0.50000     0.5100000    0.0600000   3.869820e-04  3.188634e-07
    886    858   2   0.50000     0.0600000   -0.1200000   1.599888e-04  9.721644e-08
    886    888   2   0.50000     0.0600000    0.0600000   3.930919e-05  8.704828e-09
    886    889   2   0.50000     0.0600000    0.0600000   3.930919e-05  8.704828e-09
    887    858   2   0.50000     0.0600000   -0.1200000   1.599888e-04  9.721644e-08
    887    888   2   0.50000     0.0600000    0.0600000   3.930919e-05  8.704828e-09
    887    889   2   0.50000     0.0600000    0.0600000   3.930919e-05  8.704828e-09
    856    859   2   0.50000    -0.1200000   -0.1200000   1.015252e-03  1.866303e-06
    856    890   2   0.50000    -0.1200000    0.0600000   2.494471e-04  1.671101e-07
    856    891   2   0.50000    -0.1200000    0.0600000   2.494471e-04  1.671101e-07
    888    859   2   0.50000     0.0600000   -0.1200000   2.494471e-04  1.671101e-07
    888    890   2   0.50000     0.0600000    0.0600000   6.128906e-05  1.496315e-08
    888    891   2   0.50000     0.0600000    0.0600000   6.128906e-05  1.496315e-08
    889    859   2   0.50000     0.0600000   -0.1200000   2.494471e-04  1.671101e-07
    889    890   2   0.50000     0.0600000    0.0600000   6.128906e-05  1.496315e-08
    889    891   2   0.50000     0.0600000    0.0600000   6.128906e-05  1.496315e-08
    857    860   2   0.50000    -0.1200000   -0.1200000   1.015252e-03  1.866303e-06
    857    892   2   0.50000    -0.1200000    0.0600000   2.494471e-04  1.671101e-07
    857    893   2   0.50000    -0.1200000    0.0600000   2.494471e-04  1.671101e-07
    890    860   2   0.50000     0.0600000   -0.1200000   2.494471e-04  1.671101e-07
    890    892   2   0.50000     0.0600000    0.0600000   6.128906e-05  1.496315e-08
    890    893   2   0.50000     0.0600000    0.0600000   6.128906e-05  1.496315e-08
    891    860   2   0.50000     0.0600000   -0.1200000   2.494471e-04  1.671101e-07
    891    892   2   0.50000     0.0600000    0.0600000   6.128906e-05  1.496315e-08
    891    893   2   0.50000     0.0600000    0.0600000   6.128906e-05  1.496315e-08
    858    861   2   0.50000    -0.1200000   -0.1200000   1.015252e-03  1.866303e-06
    858    894   2   0.50000    -0.1200000    0.0600000   2.494471e-04  1.671101e-07
    858    895   2   0.50000    -0.1200000    0.0600000   2.494471e-04  1.671101e-07
    892    861   2   0.50000     0.0600000   -0.1200000   2.494471e-04  1.671101e-07
    892    894   2   0.50000     0.0600000    0.0600000   6.128906e-05  1.496315e-08
    892    895   2   0.50000     0.0600000    0.0600000   6.128906e-05  1.496315e-08
    893    861   2   0.50000     0.0600000   -0.1200000   2.494471e-04  1.671101e-07
    893    894   2   0.50000     0.0600000    0.0600000   6.128906e-05  1.496315e-08
    893    895   2   0.50000     0.0600000    0.0600000   6.128906e-05  1.496315e-08
    859    862   2   0.50000    -0.1200000   -0.1200000   1.015252e-03  1.866303e-06
    859    896   2   0.50000    -0.1200000    0.0600000   2.494471e-04  1.671101e-07
    859    897   2   0.50000    -0.1200000    0.0600000   2.494471e-04  1.671101e-07
    894    862   2   0.50000     0.0600000   -0.1200000   2.494471e-04  1.671101e-07
    894    896   2   0.50000     0.0600000    0.0600000   6.128906e-05  1.496315e-08
    894    897   2   0.50000     0.0600000    0.0600000   6.128906e-05  1.496315e-08
    895    862   2   0.50000     0.0600000   -0.1200000   2.494471e-04  1.671101e-07
    895    896   2   0.50000     0.0600000    0.0600000   6.128906e-05  1.496315e-08
    895    897   2   0.50000     0.0600000    0.0600000   6.128906e-05  1.496315e-08
    860    863   2   0.50000    -0.1200000   -0.1200000   1.015252e-03  1.866303e-06
    860    898   2   0.50000    -0.1200000    0.0600000   2.494471e-04  1.671101e-07
    860    899   2   0.50000    -0.1200000    0.0600000   2.494471e-04  1.671101e-07
    896    863   2   0.50000     0.0600000   -0.1200000   2.494471e-04  1.671101e-07
    896    898   2   0.50000     0.0600000    0.0600000   6.128906e-05  1.496315e-08
    896    899   2   0.50000     0.0600000    0.0600000   6.128906e-05  1.496315e-08
    897    863   2   0.50000     0.0600000   -0.1200000   2.494471e-04  1.671101e-07
    897    898   2   0.50000     0.0600000    0.0600000   6.128906e-05  1.496315e-08
    897    899   2   0.50000     0.0600000    0.0600000   6.128906e-05  1.496315e-08
    861    864   2   0.50000    -0.1200000    0.5100000   1.575021e-03  3.561100e-06
    861    900   2   0.50000    -0.1200000    0.0600000   1.599888e-04  9.721644e-08
    861    901   2   0.50000    -0.1200000    0.0600000   1.599888e-04  9.721644e-08
    898    864   2   0.50000     0.0600000    0.5100000   3.869820e-04  3.188634e-07
    898    900   2   0.50000     0.0600000    0.0600000   3.930919e-05  8.704828e-09
    898    901   2   0.50000     0.0600000    0.0600000   3.930919e-05  8.704828e-09
    899    864   2   0.50000     0.0600000    0.5100000   3.869820e-04  3.188634e-07
    899    900   2   0.50000     0.0600000    0.0600000   3.930919e-05  8.704828e-09
    899    901   2   0.50000     0.0600000    0.0600000   3.930919e-05  8.704828e-09
    862    865   2   0.50000    -0.1200000   -0.4300000   1.095425e-03  1.218041e-06
    862    902   2   0.50000    -0.1200000   -0.3300000   1.026091e-03  1.187829e-06
    900    865   2   0.50000     0.0600000   -0.4300000   1.726228e-04  6.344822e-08
    900    902   2   0.50000     0.0600000   -0.3300000   1.616969e-04  6.187447e-08
    901    865   2   0.50000     0.0600000   -0.4300000   1.726228e-04  6.344822e-08
    901    902   2   0.50000     0.0600000   -0.3300000   1.616969e-04  6.187447e-08
    863    903   2   0.50000    -0.1200000    0.1900000   1.015252e-03  1.866303e-06
    865    903   2   0.50000    -0.4300000    0.1900000   1.095425e-03  1.218041e-06
    864    904   2   0.50000     0.5100000   -0.1200000   1.575021e-03  3.561100e-06
    864    926   2   0.50000     0.5100000    0.0300000   2.482000e-04  1.854991e-07
    864    927   2   0.50000     0.5100000    0.0300000   2.482000e-04  1.854991e-07
    902    905   2   0.50000    -0.3300000   -0.1200000   1.026091e-03  1.187829e-06
    902    928   2   0.50000    -0.3300000    0.0600000   2.521103e-04  1.063590e-07
    902    929   2   0.50000    -0.3300000    0.0600000   2.521103e-04  1.063590e-07
    926    905   2   0.50000     0.0300000   -0.1200000   1.599888e-04  9.721644e-08
    926    928   2   0.50000     0.0300000    0.0600000   3.930919e-05  8.704828e-09
    926    929   2   0.50000     0.0300000    0.0600000   3.930919e-05  8.704828e-09
    927    905   2   0.50000     0.0300000   -0.1200000   1.599888e-04  9.721644e-08
    927    928   2   0.50000     0.0300000    0.0600000   3.930919e-05  8.704828e-09
    927    929   2   0.50000     0.0300000    0.0600000   3.930919e-05  8.704828e-09
    903    906   2   0.50000     0.1900000   -0.1200000   1.015252e-03  1.866303e-06
    903    930   2   0.50000     0.1900000    0.0600000   2.494471e-04  1.671101e-07
    903    931   2   0.50000     0.1900000    0.0600000   2.494471e-04  1.671101e-07
    928    906   2   0.50000     0.0600000   -0.1200000   2.494471e-04  1.671101e-07
    928    930   2   0.50000     0.0600000    0.0600000   6.128906e-05  1.496315e-08
    928    931   2   0.50000     0.0600000    0.0600000   6.128906e-05  1.496315e-08
    929    906   2   0.50000     0.0600000   -0.1200000   2.494471e-04  1.671101e-07
    929    930   2   0.50000     0.0600000    0.0600000   6.128906e-05  1.496315e-08
    929    931   2   0.50000     0.0600000    0.0600000   6.128906e-05  1.496315e-08
    904    907   2   0.50000    -0.1200000   -0.1200000   1.015252e-03  1.866303e-06
    904    932   2   0.50000    -0.1200000    0.0600000   2.494471e-04  1.671101e-07
    904    933   2   0.50000    -0.1200000    0.0600000   2.494471e-04  1.671101e-07
    930    907   2   0.50000     0.0600000   -0.1200000   2.494471e-04  1.671101e-07
    930    932   2   0.50000     0.0600000    0.0600000   6.128906e-05  1.496315e-08
    930    933   2   0.50000     0.0600000    0.0600000   6.128906e-05  1.496315e-08
    931    907   2   0.50000     0.0600000   -0.1200000   2.494471e-04  1.671101e-07
    931    932   2   0.50000     0.0600000    0.0600000   6.128906e-05  1.496315e-08
    931    933   2   0.50000     0.0600000    0.0600000   6.128906e-05  1.496315e-08
    905    908   2   0.50000    -0.1200000   -0.1200000   1.015252e-03  1.866303e-06
    905    934   2   0.50000    -0.1200000    0.0600000   2.494471e-04  1.671101e-07
    905    935   2   0.50000    -0.1200000    0.0600000   2.494471e-04  1.671101e-07
    932    908   2   0.50000     0.0600000   -0.1200000   2.494471e-04  1.671101e-07
    932    934   2   0.50000     0.0600000    0.0600000   6.128906e-05  1.496315e-08
    932    935   2   0.50000     0.0600000    0.0600000   6.128906e-05  1.496315e-08
    933    908   2   0.50000     0.0600000   -0.1200000   2.494471e-04  1.671101e-07
    933    934   2   0.50000     0.0600000    0.0600000   6.128906e-05  1.496315e-08
    933    935   2   0.50000     0.0600000    0.0600000   6.128906e-05  1.496315e-08
    906    909   2   0.50000    -0.1200000   -0.1200000   1.015252e-03  1.866303e-06
    906    936   2   0.50000    -0.1200000    0.0600000   2.494471e-04  1.671101e-07
    906    937   2   0.50000    -0.1200000    0.0600000   2.494471e-04  1.671101e-07
    934    909   2   0.50000     0.0600000   -0.1200000   2.494471e-04  1.671101e-07
    934    936   2   0.50000     0.0600000    0.0600000   6.128906e-05  1.496315e-08
    934    937   2   0.50000     0.0600000    0.0600000   6.128906e-05  1.496315e-08
    935    909   2   0.50000     0.0600000   -0.1200000   2.494471e-04  1.671101e-07
    935    936   2   0.50000     0.0600000    0.0600000   6.128906e-05  1.496315e-08
    935    937   2   0.50000     0.0600000    0.0600000   6.128906e-05  1.496315e-08
    907    910   2   0.50000    -0.1200000   -0.1200000   1.015252e-03  1.866303e-06
    907    938   2   0.50000    -0.1200000    0.0600000   2.494471e-04  1.671101e-07
    907    939   2   0.50000    -0.1200000    0.0600000   2.494471e-04  1.671101e-07
    936    910   2   0.50000     0.0600000   -0.1200000   2.494471e-04  1.671101e-07
    936    938   2   0.50000     0.0600000    0.0600000   6.128906e-05  1.496315e-08
    936    939   2   0.50000     0.0600000    0.0600000   6.128906e-05  1.496315e-08
    937    910   2   0.50000     0.0600000   -0.1200000   2.494471e-04  1.671101e-07
    937    938   2   0.50000     0.0600000    0.0600000   6.128906e-05  1.496315e-08
    937    939   2   0.50000     0.0600000    0.0600000   6.128906e-05  1.496315e-08
    908    911   2   0.50000    -0.1200000   -0.1200000   1.015252e-03  1.866303e-06
    908    940   2   0.50000    -0.1200000    0.0600000   2.494471e-04  1.671101e-07
    908    941   2   0.50000    -0.1200000    0.0600000   2.494471e-04  1.671101e-07
    938    911   2   0.50000     0.0600000   -0.1200000   2.494471e-04  1.671101e-07
    938    940   2   0.50000     0.0600000    0.0600000   6.128906e-05  1.496315e-08
    938    941   2   0.50000     0.0600000    0.0600000   6.128906e-05  1.496315e-08
    939    911   2   0.50000     0.0600000   -0.1200000   2.494471e-04  1.671101e-07
    939    940   2   0.50000     0.0600000    0.0600000   6.128906e-05  1.496315e-08
    939    941   2   0.50000     0.0600000    0.0600000   6.128906e-05  1.496315e-08
    909    912   2   0.50000    -0.1200000    0.1900000   1.015252e-03  1.866303e-06
    909    942   2   0.50000    -0.1200000    0.0600000   2.494471e-04  1.671101e-07
    909    943   2   0.50000    -0.1200000    0.0600000   2.494471e-04  1.671101e-07
    940    912   2   0.50000     0.0600000    0.1900000   2.494471e-04  1.671101e-07
    940    942   2   0.50000     0.0600000    0.0600000   6.128906e-05  1.496315e-08
    940    943   2   0.50000     0.0600000    0.0600000   6.128906e-05  1.496315e-08
    941    912   2   0.50000     0.0600000    0.1900000   2.494471e-04  1.671101e-07
    941    942   2   0.50000     0.0600000    0.0600000   6.128906e-05  1.496315e-08
    941    943   2   0.50000     0.0600000    0.0600000   6.128906e-05  1.496315e-08
    910    913   2   0.50000    -0.1200000   -0.3300000   1.026091e-03  1.187829e-06
    910    944   2   0.50000    -0.1200000    0.0300000   1.599888e-04  9.721644e-08
    910    945   2   0.50000    -0.1200000    0.0300000   1.599888e-04  9.721644e-08
    942    913   2   0.50000     0.0600000   -0.3300000   2.521103e-04  1.063590e-07
    942    944   2   0.50000     0.0600000    0.0300000   3.930919e-05  8.704828e-09
    942    945   2   0.50000     0.0600000    0.0300000   3.930919e-05  8.704828e-09
    943    913   2   0.50000     0.0600000   -0.3300000   2.521103e-04  1.063590e-07
    943    944   2   0.50000     0.0600000    0.0300000   3.930919e-05  8.704828e-09
    943    945   2   0.50000     0.0600000    0.0300000   3.930919e-05  8.704828e-09
    911    914   2   0.50000    -0.1200000    0.5100000   1.575021e-03  3.561100e-06
    944    914   2   0.50000     0.0300000    0.5100000   2.482000e-04  1.854991e-07
    945    914   2   0.50000     0.0300000    0.5100000   2.482000e-04  1.854991e-07
    912    915   2   0.50000     0.1900000   -0.4300000   1.095425e-03  1.218041e-06
    912    916   2   0.50000     0.1900000   -0.1200000   1.015252e-03  1.866303e-06
    913    917   2   0.50000    -0.3300000   -0.1200000   1.026091e-03  1.187829e-06
    913    946   2   0.50000    -0.3300000    0.0600000   1.616969e-04  6.187447e-08
    913    947   2   0.50000    -0.3300000    0.0600000   1.616969e-04  6.187447e-08
    915    917   2   0.50000    -0.4300000   -0.1200000   1.095425e-03  1.218041e-06
    915    946   2   0.50000    -0.4300000    0.0600000   1.726228e-04  6.344822e-08
    915    947   2   0.50000    -0.4300000    0.0600000   1.726228e-04  6.344822e-08
    914    918   2   0.50000     0.5100000   -0.1200000   1.575021e-03  3.561100e-06
    914    948   2   0.50000     0.5100000    0.0600000   3.869820e-04  3.188634e-07
    914    949   2   0.50000     0.5100000    0.0600000   3.869820e-04  3.188634e-07
    946    918   2   0.50000     0.0600000   -0.1200000   1.599888e-04  9.721644e-08
    946    948   2   0.50000     0.0600000    0.0600000   3.930919e-05  8.704828e-09
    946    949   2   0.50000     0.0600000    0.0600000   3.930919e-05  8.704828e-09
    947    918   2   0.50000     0.0600000   -0.1200000   1.599888e-04  9.721644e-08
    947    948   2   0.50000     0.0600000    0.0600000   3.930919e-05  8.704828e-09
    947    949   2   0.50000     0.0600000    0.0600000   3.930919e-05  8.704828e-09
    916    919   2   0.50000    -0.1200000   -0.1200000   1.015252e-03  1.866303e-06
    916    950   2   0.50000    -0.1200000    0.0600000   2.494471e-04  1.671101e-07
    916    951   2   0.50000    -0.1200000    0.0600000   2.494471e-04  1.671101e-07
    948    919   2   0.50000     0.0600000   -0.1200000   2.494471e-04  1.671101e-07
    948    950   2   0.50000     0.0600000    0.0600000   6.128906e-05  1.496315e-08
    948    951   2   0.50000     0.0600000    0.0600000   6.128906e-05  1.496315e-08
    949    919   2   0.50000     0.0600000   -0.1200000   2.494471e-04  1.671101e-07
    949    950   2   0.50000     0.0600000    0.0600000   6.128906e-05  1.496315e-08
    949    951   2   0.50000     0.0600000    0.0600000   6.128906e-05  1.496315e-08
    917    920   2   0.50000    -0.1200000   -0.1200000   1.015252e-03  1.866303e-06
    917    952   2   0.50000    -0.1200000    0.0600000   2.494471e-04  1.671101e-07
    917    953   2   0.50000    -0.1200000    0.0600000   2.494471e-04  1.671101e-07
    950    920   2   0.50000     0.0600000   -0.1200000   2.494471e-04  1.671101e-07
    950    952   2   0.50000     0.0600000    0.0600000   6.128906e-05  1.496315e-08
    950    953   2   0.50000     0.0600000    0.0600000   6.128906e-05  1.496315e-08
    951    920   2   0.50000     0.0600000   -0.1200000   2.494471e-04  1.671101e-07
    951    952   2   0.50000     0.0600000    0.0600000   6.128906e-05  1.496315e-08
    951    953   2   0.50000     0.0600000    0.0600000   6.128906e-05  1.496315e-08
    918    921   2   0.50000    -0.1200000   -0.1200000   1.015252e-03  1.866303e-06
    918    954   2   0.50000    -0.1200000    0.0600000   2.494471e-04  1.671101e-07
    918    955   2   0.50000    -0.1200000    0.0600000   2.494471e-04  1.671101e-07
    952    921   2   0.50000     0.0600000   -0.1200000   2.494471e-04  1.671101e-07
    952    954   2   0.50000     0.0600000    0.0600000   6.128906e-05  1.496315e-08
    952    955   2   0.50000     0.0600000    0.0600000   6.128906e-05  1.496315e-08
    953    921   2   0.50000     0.0600000   -0.1200000   2.494471e-04  1.671101e-07
    953    954   2   0.50000     0.0600000    0.0600000   6.128906e-05  1.496315e-08
    953    955   2   0.50000     0.0600000    0.0600000   6.128906e-05  1.496315e-08
    919    922   2   0.50000    -0.1200000   -0.1200000   1.015252e-03  1.866303e-06
    919    956   2   0.50000    -0.1200000    0.0600000   2.494471e-04  1.671101e-07
    919    957   2   0.50000    -0.1200000    0.0600000   2.494471e-04  1.671101e-07
    954    922   2   0.50000     0.0600000   -0.1200000   2.494471e-04  1.671101e-07
    954    956   2   0.50000     0.0600000    0.0600000   6.128906e-05  1.496315e-08
    954    957   2   0.50000     0.0600000    0.0600000   6.128906e-05  1.496315e-08
    955    922   2   0.50000     0.0600000   -0.1200000   2.494471e-04  1.671101e-07
    955    956   2   0.50000     0.0600000    0.0600000   6.128906e-05  1.496315e-08
    955    957   2   0.50000     0.0600000    0.0600000   6.128906e-05  1.496315e-08
    920    923   2   0.50000    -0.1200000   -0.1200000   1.015252e-03  1.866303e-06
    920    958   2   0.50000    -0.1200000    0.0600000   2.494471e-04  1.671101e-07
    920    959   2   0.50000    -0.1200000    0.0600000   2.494471e-04  1.671101e-07
    956    923   2   0.50000     0.0600000   -0.1200000   2.494471e-04  1.671101e-07
    956    958   2   0.50000     0.0600000    0.0600000   6.128906e-05  1.496315e-08
    956    959   2   0.50000     0.0600000    0.0600000   6.128906e-05  1.496315e-08
    957    923   2   0.50000     0.0600000   -0.1200000   2.494471e-04  1.671101e-07
    957    958   2   0.50000     0.0600000    0.0600000   6.128906e-05  1.496315e-08
    957    959   2   0.50000     0.0600000    0.0600000   6.128906e-05  1.496315e-08
    921    924   2   0.50000    -0.1200000    0.5100000   1.575021e-03  3.561100e-06
    921    960   2   0.50000    -0.1200000    0.0600000   1.599888e-04  9.721644e-08
    921    961   2   0.50000    -0.1200000    0.0600000   1.599888e-04  9.721644e-08
    958    924   2   0.50000     0.0600000    0.5100000   3.869820e-04  3.188634e-07
    958    960   2   0.50000     0.0600000    0.0600000   3.930919e-05  8.704828e-09
    958    961   2   0.50000     0.0600000    0.0600000   3.930919e-05  8.704828e-09
    959    924   2   0.50000     0.0600000    0.5100000   3.869820e-04  3.188634e-07
    959    960   2   0.50000     0.0600000    0.0600000   3.930919e-05  8.704828e-09
    959    961   2   0.50000     0.0600000    0.0600000   3.930919e-05  8.704828e-09
    922    925   2   0.50000    -0.1200000   -0.4300000   1.095425e-03  1.218041e-06
    922    962   2   0.50000    -0.1200000   -0.3300000   1.026091e-03  1.187829e-06
    960    925   2   0.50000     0.0600000   -0.4300000   1.726228e-04  6.344822e-08
    960    962   2   0.50000     0.0600000   -0.3300000   1.616969e-04  6.187447e-08
    961    925   2   0.50000     0.0600000   -0.4300000   1.726228e-04  6.344822e-08
    961    962   2   0.50000     0.0600000   -0.3300000   1.616969e-04  6.187447e-08
    923    963   2   0.50000    -0.1200000    0.1900000   1.015252e-03  1.866303e-06
    925    963   2   0.50000    -0.4300000    0.1900000   1.095425e-03  1.218041e-06
    924    964   2   0.50000     0.5100000   -0.1200000   1.575021e-03  3.561100e-06
    924    986   2   0.50000     0.5100000    0.0300000   2.482000e-04  1.854991e-07
    924    987   2   0.50000     0.5100000    0.0300000   2.482000e-04  1.854991e-07
    962    965   2   0.50000    -0.3300000   -0.1200000   1.026091e-03  1.187829e-06
    962    988   2   0.50000    -0.3300000    0.0600000   2.521103e-04  1.063590e-07
    962    989   2   0.50000    -0.3300000    0.0600000   2.521103e-04  1.063590e-07
    986    965   2   0.50000     0.0300000   -0.1200000   1.599888e-04  9.721644e-08
    986    988   2   0.50000     0.0300000    0.0600000   3.930919e-05  8.704828e-09
    986    989   2   0.50000     0.0300000    0.0600000   3.930919e-05  8.704828e-09
    987    965   2   0.50000     0.0300000   -0.1200000   1.599888e-04  9.721644e-08
    987    988   2   0.50000     0.0300000    0.0600000   3.930919e-05  8.704828e-09
    987    989   2   0.50000     0.0300000    0.0600000   3.930919e-05  8.704828e-09
    963    966   2   0.50000     0.1900000   -0.1200000   1.015252e-03  1.866303e-06
    963    990   2   0.50000     0.1900000    0.0600000   2.494471e-04  1.671101e-07
    963    991   2   0.50000     0.1900000    0.0600000   2.494471e-04  1.671101e-07
    988    966   2   0.50000     0.0600000   -0.1200000   2.494471e-04  1.671101e-07
    988    990   2   0.50000     0.0600000    0.0600000   6.128906e-05  1.496315e-08
    988    991   2   0.50000     0.0600000    0.0600000   6.128906e-05  1.496315e-08
    989    966   2   0.50000     0.0600000   -0.1200000   2.494471e-04  1.671101e-07
    989    990   2   0.50000     0.0600000    0.0600000   6.128906e-05  1.496315e-08
    989    991   2   0.50000     0.0600000    0.0600000   6.128906e-05  1.496315e-08
    964    967   2   0.50000    -0.1200000   -0.1200000   1.015252e-03  1.866303e-06
    964    992   2   0.50000    -0.1200000    0.0600000   2.494471e-04  1.671101e-07
    964    993   2   0.50000    -0.1200000    0.0600000   2.494471e-04  1.671101e-07
    990    967   2   0.50000     0.0600000   -0.1200000   2.494471e-04  1.671101e-07
    990    992   2   0.50000     0.0600000    0.0600000   6.128906e-05  1.496315e-08
    990    993   2   0.50000     0.0600000    0.0600000   6.128906e-05  1.496315e-08
    991    967   2   0.50000     0.0600000   -0.1200000   2.494471e-04  1.671101e-07
    991    992   2   0.50000     0.0600000    0.0600000   6.128906e-05  1.496315e-08
    991    993   2   0.50000     0.0600000    0.0600000   6.128906e-05  1.496315e-08
    965    968   2   0.50000    -0.1200000   -0.1200000   1.015252e-03  1.866303e-06
    965    994   2   0.50000    -0.1200000    0.0600000   2.494471e-04  1.671101e-07
    965    995   2   0.50000    -0.1200000    0.0600000   2.494471e-04  1.671101e-07
    992    968   2   0.50000     0.0600000   -0.1200000   2.494471e-04  1.671101e-07
    992    994   2   0.50000     0.0600000    0.0600000   6.128906e-05  1.496315e-08
    992    995   2   0.50000     0.0600000    0.0600000   6.128906e-05  1.496315e-08
    993    968   2   0.50000     0.0600000   -0.1200000   2.494471e-04  1.671101e-07
    993    994   2   0.50000     0.0600000    0.0600000   6.128906e-05  1.496315e-08
    993    995   2   0.50000     0.0600000    0.0600000   6.128906e-05  1.496315e-08
    966    969   2   0.50000    -0.1200000   -0.1200000   1.015252e-03  1.866303e-06
    966    996   2   0.50000    -0.1200000    0.0600000   2.494471e-04  1.671101e-07
    966    997   2   0.50000    -0.1200000    0.0600000   2.494471e-04  1.671101e-07
    994    969   2   0.50000     0.0600000   -0.1200000   2.494471e-04  1.671101e-07
    994    996   2   0.50000     0.0600000    0.0600000   6.128906e-05  1.496315e-08
    994    997   2   0.50000     0.0600000    0.0600000   6.128906e-05  1.496315e-08
    995    969   2   0.50000     0.0600000   -0.1200000   2.494471e-04  1.671101e-07
    995    996   2   0.50000     0.0600000    0.0600000   6.128906e-05  1.496315e-08
    995    997   2   0.50000     0.0600000    0.0600000   6.128906e-05  1.496315e-08
    967    970   2   0.50000    -0.1200000   -0.1200000   1.015252e-03  1.866303e-06
    967    998   2   0.50000    -0.1200000    0.0600000   2.494471e-04  1.671101e-07
    967    999   2   0.50000    -0.1200000    0.0600000   2.494471e-04  1.671101e-07
    996    970   2   0.50000     0.0600000   -0.1200000   2.494471e-04  1.671101e-07
    996    998   2   0.50000     0.0600000    0.0600000   6.128906e-05  1.496315e-08
    996    999   2   0.50000     0.0600000    0.0600000   6.128906e-05  1.496315e-08
    997    970   2   0.50000     0.0600000   -0.1200000   2.494471e-04  1.671101e-07
    997    998   2   0.50000     0.0600000    0.0600000   6.128906e-05  1.496315e-08
    997    999   2   0.50000     0.0600000    0.0600000   6.128906e-05  1.496315e-08
    968    971   2   0.50000    -0.1200000   -0.1200000   1.015252e-03  1.866303e-06
    968   1000   2   0.50000    -0.1200000    0.0600000   2.494471e-04  1.671101e-07
    968   1001   2   0.50000    -0.1200000    0.0600000   2.494471e-04  1.671101e-07
    998    971   2   0.50000     0.0600000   -0.1200000   2.494471e-04  1.671101e-07
    998   1000   2   0.50000     0.0600000    0.0600000   6.128906e-05  1.496315e-08
    998   1001   2   0.50000     0.0600000    0.0600000   6.128906e-05  1.496315e-08
    999    971   2   0.50000     0.0600000   -0.1200000   2.494471e-04  1.671101e-07
    999   1000   2   0.50000     0.0600000    0.0600000   6.128906e-05  1.496315e-08
    999   1001   2   0.50000     0.0600000    0.0600000   6.128906e-05  1.496315e-08
    969    972   2   0.50000    -0.1200000    0.1900000   1.015252e-03  1.866303e-06
    969   1002   2   0.50000    -0.1200000    0.0600000   2.494471e-04  1.671101e-07
    969   1003   2   0.50000    -0.1200000    0.0600000   2.494471e-04  1.671101e-07
   1000    972   2   0.50000     0.0600000    0.1900000   2.494471e-04  1.671101e-07
   1000   1002   2   0.50000     0.0600000    0.0600000   6.128906e-05  1.496315e-08
   1000   1003   2   0.50000     0.0600000    0.0600000   6.128906e-05  1.496315e-08
   1001    972   2   0.50000     0.0600000    0.1900000   2.494471e-04  1.671101e-07
   1001   1002   2   0.50000     0.0600000    0.0600000   6.128906e-05  1.496315e-08
   1001   1003   2   0.50000     0.0600000    0.0600000   6.128906e-05  1.496315e-08
    970    973   2   0.50000    -0.1200000   -0.3300000   1.026091e-03  1.187829e-06
    970   1004   2   0.50000    -0.1200000    0.0300000   1.599888e-04  9.721644e-08
    970   1005   2   0.50000    -0.1200000    0.0300000   1.599888e-04  9.721644e-08
   1002    973   2   0.50000     0.0600000   -0.3300000   2.521103e-04  1.063590e-07
   1002   1004   2   0.50000     0.0600000    0.0300000   3.930919e-05  8.704828e-09
   1002   1005   2   0.50000     0.0600000    0.0300000   3.930919e-05  8.704828e-09
   1003    973   2   0.50000     0.0600000   -0.3300000   2.521103e-04  1.063590e-07
   1003   1004   2   0.50000     0.0600000    0.0300000   3.930919e-05  8.704828e-09
   1003   1005   2   0.50000     0.0600000    0.0300000   3.930919e-05  8.704828e-09
    971    974   2   0.50000    -0.1200000    0.5100000   1.575021e-03  3.561100e-06
   1004    974   2   0.50000     0.0300000    0.5100000   2.482000e-04  1.854991e-07
   1005    974   2   0.50000     0.0300000    0.5100000   2.482000e-04  1.854991e-07
    972    975   2   0.50000     0.1900000   -0.4300000   1.095425e-03  1.218041e-06
    972    976   2   0.50000     0.1900000   -0.1200000   1.015252e-03  1.866303e-06
    973    977   2   0.50000    -0.3300000   -0.1200000   1.026091e-03  1.187829e-06
    973   1006   2   0.50000    -0.3300000    0.0600000   1.616969e-04  6.187447e-08
    973   1007   2   0.50000    -0.3300000    0.0600000   1.616969e-04  6.187447e-08
    975    977   2   0.50000    -0.4300000   -0.1200000   1.095425e-03  1.218041e-06
    975   1006   2   0.50000    -0.4300000    0.0600000   1.726228e-04  6.344822e-08
    975   1007   2   0.50000    -0.4300000    0.0600000   1.726228e-04  6.344822e-08
    974    978   2   0.50000     0.5100000   -0.1200000   1.575021e-03  3.561100e-06
    974   1008   2   0.50000     0.5100000    0.0600000   3.869820e-04  3.188634e-07
    974   1009   2   0.50000     0.5100000    0.0600000   3.869820e-04  3.188634e-07
   1006    978   2   0.50000     0.0600000   -0.1200000   1.599888e-04  9.721644e-08
   1006   1008   2   0.50000     0.0600000    0.0600000   3.930919e-05  8.704828e-09
   1006   1009   2   0.50000     0.0600000    0.0600000   3.930919e-05  8.704828e-09
   1007    978   2   0.50000     0.0600000   -0.1200000   1.599888e-04  9.721644e-08
   1007   1008   2   0.50000     0.0600000    0.0600000   3.930919e-05  8.704828e-09
   1007   1009   2   0.50000     0.0600000    0.0600000   3.930919e-05  8.704828e-09
    976    979   2   0.50000    -0.1200000   -0.1200000   1.015252e-03  1.866303e-06
    976   1010   2   0.50000    -0.1200000    0.0600000   2.494471e-04  1.671101e-07
    976   1011   2   0.50000    -0.1200000    0.0600000   2.494471e-04  1.671101e-07
   1008    979   2   0.50000     0.0600000   -0.1200000   2.494471e-04  1.671101e-07
   1008   1010   2   0.50000     0.0600000    0.0600000   6.128906e-05  1.496315e-08
   1008   1011   2   0.50000     0.0600000    0.0600000   6.128906e-05  1.496315e-08
   1009    979   2   0.50000     0.0600000   -0.1200000   2.494471e-04  1.671101e-07
   1009   1010   2   0.50000     0.0600000    0.0600000   6.128906e-05  1.496315e-08
   1009   1011   2   0.50000     0.0600000    0.0600000   6.128906e-05  1.496315e-08
    977    980   2   0.50000    -0.1200000   -0.1200000   1.015252e-03  1.866303e-06
    977   1012   2   0.50000    -0.1200000    0.0600000   2.494471e-04  1.671101e-07
    977   1013   2   0.50000    -0.1200000    0.0600000   2.494471e-04  1.671101e-07
   1010    980   2   0.50000     0.0600000   -0.1200000   2.494471e-04  1.671101e-07
   1010   1012   2   0.50000     0.0600000    0.0600000   6.128906e-05  1.496315e-08
   1010   1013   2   0.50000     0.0600000    0.0600000   6.128906e-05  1.496315e-08
   1011    980   2   0.50000     0.0600000   -0.1200000   2.494471e-04  1.671101e-07
   1011   1012   2   0.50000     0.0600000    0.0600000   6.128906e-05  1.496315e-08
   1011   1013   2   0.50000     0.0600000    0.0600000   6.128906e-05  1.496315e-08
    978    981   2   0.50000    -0.1200000   -0.1200000   1.015252e-03  1.866303e-06
    978   1014   2   0.50000    -0.1200000    0.0600000   2.494471e-04  1.671101e-07
    978   1015   2   0.50000    -0.1200000    0.0600000   2.494471e-04  1.671101e-07
   1012    981   2   0.50000     0.0600000   -0.1200000   2.494471e-04  1.671101e-07
   1012   1014   2   0.50000     0.0600000    0.0600000   6.128906e-05  1.496315e-08
   1012   1015   2   0.50000     0.0600000    0.0600000   6.128906e-05  1.496315e-08
   1013    981   2   0.50000     0.0600000   -0.1200000   2.494471e-04  1.671101e-07
   1013   1014   2   0.50000     0.0600000    0.0600000   6.128906e-05  1.496315e-08
   1013   1015   2   0.50000     0.0600000    0.0600000   6.128906e-05  1.496315e-08
    979    982   2   0.50000    -0.1200000   -0.1200000   1.015252e-03  1.866303e-06
    979   1016   2   0.50000    -0.1200000    0.0600000   2.494471e-04  1.671101e-07
    979   1017   2   0.50000    -0.1200000    0.0600000   2.494471e-04  1.671101e-07
   1014    982   2   0.50000     0.0600000   -0.1200000   2.494471e-04  1.671101e-07
   1014   1016   2   0.50000     0.0600000    0.0600000   6.128906e-05  1.496315e-08
   1014   1017   2   0.50000     0.0600000    0.0600000   6.128906e-05  1.496315e-08
   1015    982   2   0.50000     0.0600000   -0.1200000   2.494471e-04  1.671101e-07
   1015   1016   2   0.50000     0.0600000    0.0600000   6.128906e-05  1.496315e-08
   1015   1017   2   0.50000     0.0600000    0.0600000   6.128906e-05  1.496315e-08
    980    983   2   0.50000    -0.1200000   -0.1200000   1.015252e-03  1.866303e-06
    980   1018   2   0.50000    -0.1200000    0.0600000   2.494471e-04  1.671101e-07
    980   1019   2   0.50000    -0.1200000    0.0600000   2.494471e-04  1.671101e-07
   1016    983   2   0.50000     0.0600000   -0.1200000   2.494471e-04  1.671101e-07
   1016   1018   2   0.50000     0.0600000    0.0600000   6.128906e-05  1.496315e-08
   1016   1019   2   0.50000     0.0600000    0.0600000   6.128906e-05  1.496315e-08
   1017    983   2   0.50000     0.0600000   -0.1200000   2.494471e-04  1.671101e-07
   1017   1018   2   0.50000     0.0600000    0.0600000   6.128906e-05  1.496315e-08
   1017   1019   2   0.50000     0.0600000    0.0600000   6.128906e-05  1.496315e-08
    981    984   2   0.50000    -0.1200000    0.5100000   1.575021e-03  3.561100e-06
    981   1020   2   0.50000    -0.1200000    0.0600000   1.599888e-04  9.721644e-08
    981   1021   2   0.50000    -0.1200000    0.0600000   1.599888e-04  9.721644e-08
   1018    984   2   0.50000     0.0600000    0.5100000   3.869820e-04  3.188634e-07
   1018   1020   2   0.50000     0.0600000    0.0600000   3.930919e-05  8.704828e-09
   1018   1021   2   0.50000     0.0600000    0.0600000   3.930919e-05  8.704828e-09
   1019    984   2   0.50000     0.0600000    0.5100000   3.869820e-04  3.188634e-07
   1019   1020   2   0.50000     0.0600000    0.0600000   3.930919e-05  8.704828e-09
   1019   1021   2   0.50000     0.0600000    0.0600000   3.930919e-05  8.704828e-09
    982    985   2   0.50000    -0.1200000   -0.4300000   1.095425e-03  1.218041e-06
    982   1022   2   0.50000    -0.1200000   -0.3300000   1.026091e-03  1.187829e-06
   1020    985   2   0.50000     0.0600000   -0.4300000   1.726228e-04  6.344822e-08
   1020   1022   2   0.50000     0.0600000   -0.3300000   1.616969e-04  6.187447e-08
   1021    985   2   0.50000     0.0600000   -0.4300000   1.726228e-04  6.344822e-08
   1021   1022   2   0.50000     0.0600000   -0.3300000   1.616969e-04  6.187447e-08
    983   1023   2   0.50000    -0.1200000    0.1900000   1.015252e-03  1.866303e-06
    985   1023   2   0.50000    -0.4300000    0.1900000   1.095425e-03  1.218041e-06
    984   1024   2   0.50000     0.5100000   -0.1200000   1.575021e-03  3.561100e-06
    984   1046   2   0.50000     0.5100000    0.0300000   2.482000e-04  1.854991e-07
    984   1047   2   0.50000     0.5100000    0.0300000   2.482000e-04  1.854991e-07
   1022   1025   2   0.50000    -0.3300000   -0.1200000   1.026091e-03  1.187829e-06
   1022   1048   2   0.50000    -0.3300000    0.0600000   2.521103e-04  1.063590e-07
   1022   1049   2   0.50000    -0.3300000    0.0600000   2.521103e-04  1.063590e-07
   1046   1025   2   0.50000     0.0300000   -0.1200000   1.599888e-04  9.721644e-08
   1046   1048   2   0.50000     0.0300000    0.0600000   3.930919e-05  8.704828e-09
   1046   1049   2   0.50000     0.0300000    0.0600000   3.930919e-05  8.704828e-09
   1047   1025   2   0.50000     0.0300000   -0.1200000   1.599888e-04  9.721644e-08
   1047   1048   2   0.50000     0.0300000    0.0600000   3.930919e-05  8.704828e-09
   1047   1049   2   0.50000     0.0300000    0.0600000   3.930919e-05  8.704828e-09
   1023   1026   2   0.50000     0.1900000   -0.1200000   1.015252e-03  1.866303e-06
   1023   1050   2   0.50000     0.1900000    0.0600000   2.494471e-04  1.671101e-07
   1023   1051   2   0.50000     0.1900000    0.0600000   2.494471e-04  1.671101e-07
   1048   1026   2   0.50000     0.0600000   -0.1200000   2.494471e-04  1.671101e-07
   1048   1050   2   0.50000     0.0600000    0.0600000   6.128906e-05  1.496315e-08
   1048   1051   2   0.50000     0.0600000    0.0600000   6.128906e-05  1.496315e-08
   1049   1026   2   0.50000     0.0600000   -0.1200000   2.494471e-04  1.671101e-07
   1049   1050   2   0.50000     0.0600000    0.0600000   6.128906e-05  1.496315e-08
   1049   1051   2   0.50000     0.0600000    0.0600000   6.128906e-05  1.496315e-08
   1024   1027   2   0.50000    -0.1200000   -0.1200000   1.015252e-03  1.866303e-06
   1024   1052   2   0.50000    -0.1200000    0.0600000   2.494471e-04  1.671101e-07
   1024   1053   2   0.50000    -0.1200000    0.0600000   2.494471e-04  1.671101e-07
   1050   1027   2   0.50000     0.0600000   -0.1200000   2.494471e-04  1.671101e-07
   1050   1052   2   0.50000     0.0600000    0.0600000   6.128906e-05  1.496315e-08
   1050   1053   2   0.50000     0.0600000    0.0600000   6.128906e-05  1.496315e-08
   1051   1027   2   0.50000     0.0600000   -0.1200000   2.494471e-04  1.671101e-07
   1051   1052   2   0.50000     0.0600000    0.0600000   6.128906e-05  1.496315e-08
   1051   1053   2   0.50000     0.0600000    0.0600000   6.128906e-05  1.496315e-08
   1025   1028   2   0.50000    -0.1200000   -0.1200000   1.015252e-03  1.866303e-06
   1025   1054   2   0.50000    -0.1200000    0.0600000   2.494471e-04  1.671101e-07
   1025   1055   2   0.50000    -0.1200000    0.0600000   2.494471e-04  1.671101e-07
   1052   1028   2   0.50000     0.0600000   -0.1200000   2.494471e-04  1.671101e-07
   1052   1054   2   0.50000     0.0600000    0.0600000   6.128906e-05  1.496315e-08
   1052   1055   2   0.50000     0.0600000    0.0600000   6.128906e-05  1.496315e-08
   1053   1028   2   0.50000     0.0600000   -0.1200000   2.494471e-04  1.671101e-07
   1053   1054   2   0.50000     0.0600000    0.0600000   6.128906e-05  1.496315e-08
   1053   1055   2   0.50000     0.0600000    0.0600000   6.128906e-05  1.496315e-08
   1026   1029   2   0.50000    -0.1200000   -0.1200000   1.015252e-03  1.866303e-06
   1026   1056   2   0.50000    -0.1200000    0.0600000   2.494471e-04  1.671101e-07
   1026   1057   2   0.50000    -0.1200000    0.0600000   2.494471e-04  1.671101e-07
   1054   1029   2   0.50000     0.0600000   -0.1200000   2.494471e-04  1.671101e-07
   1054   1056   2   0.50000     0.0600000    0.0600000   6.128906e-05  1.496315e-08
   1054   1057   2   0.50000     0.0600000    0.0600000   6.128906e-05  1.496315e-08
   1055   1029   2   0.50000     0.0600000   -0.1200000   2.494471e-04  1.671101e-07
   1055   1056   2   0.50000     0.0600000    0.0600000   6.128906e-05  1.496315e-08
   1055   1057   2   0.50000     0.0600000    0.0600000   6.128906e-05  1.496315e-08
   1027   1030   2   0.50000    -0.1200000   -0.1200000   1.015252e-03  1.866303e-06
   1027   1058   2   0.50000    -0.1200000    0.0600000   2.494471e-04  1.671101e-07
   1027   1059   2   0.50000    -0.1200000    0.0600000   2.494471e-04  1.671101e-07
   1056   1030   2   0.50000     0.0600000   -0.1200000   2.494471e-04  1.671101e-07
   1056   1058   2   0.50000     0.0600000    0.0600000   6.128906e-05  1.496315e-08
   1056   1059   2   0.50000     0.0600000    0.0600000   6.128906e-05  1.496315e-08
   1057   1030   2   0.50000     0.0600000   -0.1200000   2.494471e-04  1.671101e-07
   1057   1058   2   0.50000     0.0600000    0.0600000   6.128906e-05  1.496315e-08
   1057   1059   2   0.50000     0.0600000    0.0600000   6.128906e-05  1.496315e-08
   1028   1031   2   0.50000    -0.1200000   -0.1200000   1.015252e-03  1.866303e-06
   1028   1060   2   0.50000    -0.1200000    0.0600000   2.494471e-04  1.671101e-07
   1028   1061   2   0.50000    -0.1200000    0.0600000   2.494471e-04  1.671101e-07
   1058   1031   2   0.50000     0.0600000   -0.1200000   2.494471e-04  1.671101e-07
   1058   1060   2   0.50000     0.0600000    0.0600000   6.128906e-05  1.496315e-08
   1058   1061   2   0.50000     0.0600000    0.0600000   6.128906e-05  1.496315e-08
   1059   1031   2   0.50000     0.0600000   -0.1200000   2.494471e-04  1.671101e-07
   1059   1060   2   0.50000     0.0600000    0.0600000   6.128906e-05  1.496315e-08
   1059   1061   2   0.50000     0.0600000    0.0600000   6.128906e-05  1.496315e-08
   1029   1032   2   0.50000    -0.1200000    0.1900000   1.015252e-03  1.866303e-06
   1029   1062   2   0.50000    -0.1200000    0.0600000   2.494471e-04  1.671101e-07
   1029   1063   2   0.50000    -0.1200000    0.0600000   2.494471e-04  1.671101e-07
   1060   1032   2   0.50000     0.0600000    0.1900000   2.494471e-04  1.671101e-07
   1060   1062   2   0.50000     0.0600000    0.0600000   6.128906e-05  1.496315e-08
   1060   1063   2   0.50000     0.0600000    0.0600000   6.128906e-05  1.496315e-08
   1061   1032   2   0.50000     0.0600000    0.1900000   2.494471e-04  1.671101e-07
   1061   1062   2   0.50000     0.0600000    0.0600000   6.128906e-05  1.496315e-08
   1061   1063   2   0.50000     0.0600000    0.0600000   6.128906e-05  1.496315e-08
   1030   1033   2   0.50000    -0.1200000   -0.3300000   1.026091e-03  1.187829e-06
   1030   1064   2   0.50000    -0.1200000    0.0300000   1.599888e-04  9.721644e-08
   1030   1065   2   0.50000    -0.1200000    0.0300000   1.599888e-04  9.721644e-08
   1062   1033   2   0.50000     0.0600000   -0.3300000   2.521103e-04  1.063590e-07
   1062   1064   2   0.50000     0.0600000    0.0300000   3.930919e-05  8.704828e-09
   1062   1065   2   0.50000     0.0600000    0.0300000   3.930919e-05  8.704828e-09
   1063   1033   2   0.50000     0.0600000   -0.3300000   2.521103e-04  1.063590e-07
   1063   1064   2   0.50000     0.0600000    0.0300000   3.930919e-05  8.704828e-09
   1063   1065   2   0.50000     0.0600000    0.0300000   3.930919e-05  8.704828e-09
   1031   1034   2   0.50000    -0.1200000    0.5100000   1.575021e-03  3.561100e-06
   1064   1034   2   0.50000     0.0300000    0.5100000   2.482000e-04  1.854991e-07
   1065   1034   2   0.50000     0.0300000    0.5100000   2.482000e-04  1.854991e-07
   1032   1035   2   0.50000     0.1900000   -0.4300000   1.095425e-03  1.218041e-06
   1032   1036   2   0.50000     0.1900000   -0.1200000   1.015252e-03  1.866303e-06
   1033   1037   2   0.50000    -0.3300000   -0.1200000   1.026091e-03  1.187829e-06
   1033   1066   2   0.50000    -0.3300000    0.0600000   1.616969e-04  6.187447e-08
   1033   1067   2   0.50000    -0.3300000    0.0600000   1.616969e-04  6.187447e-08
   1035   1037   2   0.50000    -0.4300000   -0.1200000   1.095425e-03  1.218041e-06
   1035   1066   2   0.50000    -0.4300000    0.0600000   1.726228e-04  6.344822e-08
   1035   1067   2   0.50000    -0.4300000    0.0600000   1.726228e-04  6.344822e-08
   1034   1038   2   0.50000     0.5100000   -0.1200000   1.575021e-03  3.561100e-06
   1034   1068   2   0.50000     0.5100000    0.0600000   3.869820e-04  3.188634e-07
   1034   1069   2   0.50000     0.5100000    0.0600000   3.869820e-04  3.188634e-07
   1066   1038   2   0.50000     0.0600000   -0.1200000   1.599888e-04  9.721644e-08
   1066   1068   2   0.50000     0.0600000    0.0600000   3.930919e-05  8.704828e-09
   1066   1069   2   0.50000     0.0600000    0.0600000   3.930919e-05  8.704828e-09
   1067   1038   2   0.50000     0.0600000   -0.1200000   1.599888e-04  9.721644e-08
   1067   1068   2   0.50000     0.0600000    0.0600000   3.930919e-05  8.704828e-09
   1067   1069   2   0.50000     0.0600000    0.0600000   3.930919e-05  8.704828e-09
   1036   1039   2   0.50000    -0.1200000   -0.1200000   1.015252e-03  1.866303e-06
   1036   1070   2   0.50000    -0.1200000    0.0600000   2.494471e-04  1.671101e-07
   1036   1071   2   0.50000    -0.1200000    0.0600000   2.494471e-04  1.671101e-07
   1068   1039   2   0.50000     0.0600000   -0.1200000   2.494471e-04  1.671101e-07
   1068   1070   2   0.50000     0.0600000    0.0600000   6.128906e-05  1.496315e-08
   1068   1071   2   0.50000     0.0600000    0.0600000   6.128906e-05  1.496315e-08
   1069   1039   2   0.50000     0.0600000   -0.1200000   2.494471e-04  1.671101e-07
   1069   1070   2   0.50000     0.0600000    0.0600000   6.128906e-05  1.496315e-08
   1069   1071   2   0.50000     0.0600000    0.0600000   6.128906e-05  1.496315e-08
   1037   1040   2   0.50000    -0.1200000   -0.1200000   1.015252e-03  1.866303e-06
   1037   1072   2   0.50000    -0.1200000    0.0600000   2.494471e-04  1.671101e-07
   1037   1073   2   0.50000    -0.1200000    0.0600000   2.494471e-04  1.671101e-07
   1070   1040   2   0.50000     0.0600000   -0.1200000   2.494471e-04  1.671101e-07
   1070   1072   2   0.50000     0.0600000    0.0600000   6.128906e-05  1.496315e-08
   1070   1073   2   0.50000     0.0600000    0.0600000   6.128906e-05  1.496315e-08
   1071   1040   2   0.50000     0.0600000   -0.1200000   2.494471e-04  1.671101e-07
   1071   1072   2   0.50000     0.0600000    0.0600000   6.128906e-05  1.496315e-08
   1071   1073   2   0.50000     0.0600000    0.0600000   6.128906e-05  1.496315e-08
   1038   1041   2   0.50000    -0.1200000   -0.1200000   1.015252e-03  1.866303e-06
   1038   1074   2   0.50000    -0.1200000    0.0600000   2.494471e-04  1.671101e-07
   1038   1075   2   0.50000    -0.1200000    0.0600000   2.494471e-04  1.671101e-07
   1072   1041   2   0.50000     0.0600000   -0.1200000   2.494471e-04  1.671101e-07
   1072   1074   2   0.50000     0.0600000    0.0600000   6.128906e-05  1.496315e-08
   1072   1075   2   0.50000     0.0600000    0.0600000   6.128906e-05  1.496315e-08
   1073   1041   2   0.50000     0.0600000   -0.1200000   2.494471e-04  1.671101e-07
   1073   1074   2   0.50000     0.0600000    0.0600000   6.128906e-05  1.496315e-08
   1073   1075   2   0.50000     0.0600000    0.0600000   6.128906e-05  1.496315e-08
   1039   1042   2   0.50000    -0.1200000   -0.1200000   1.015252e-03  1.866303e-06
   1039   1076   2   0.50000    -0.1200000    0.0600000   2.494471e-04  1.671101e-07
   1039   1077   2   0.50000    -0.1200000    0.0600000   2.494471e-04  1.671101e-07
   1074   1042   2   0.50000     0.0600000   -0.1200000   2.494471e-04  1.671101e-07
   1074   1076   2   0.50000     0.0600000    0.0600000   6.128906e-05  1.496315e-08
   1074   1077   2   0.50000     0.0600000    0.0600000   6.128906e-05  1.496315e-08
   1075   1042   2   0.50000     0.0600000   -0.1200000   2.494471e-04  1.671101e-07
   1075   1076   2   0.50000     0.0600000    0.0600000   6.128906e-05  1.496315e-08
   1075   1077   2   0.50000     0.0600000    0.0600000   6.128906e-05  1.496315e-08
   1040   1043   2   0.50000    -0.1200000   -0.1200000   1.015252e-03  1.866303e-06
   1040   1078   2   0.50000    -0.1200000    0.0600000   2.494471e-04  1.671101e-07
   1040   1079   2   0.50000    -0.1200000    0.0600000   2.494471e-04  1.671101e-07
   1076   1043   2   0.50000     0.0600000   -0.1200000   2.494471e-04  1.671101e-07
   1076   1078   2   0.50000     0.0600000    0.0600000   6.128906e-05  1.496315e-08
   1076   1079   2   0.50000     0.0600000    0.0600000   6.128906e-05  1.496315e-08
   1077   1043   2   0.50000     0.0600000   -0.1200000   2.494471e-04  1.671101e-07
   1077   1078   2   0.50000     0.0600000    0.0600000   6.128906e-05  1.496315e-08
   1077   1079   2   0.50000     0.0600000    0.0600000   6.128906e-05  1.496315e-08
   1041   1044   2   0.50000    -0.1200000    0.5100000   1.575021e-03  3.561100e-06
   1041   1080   2   0.50000    -0.1200000    0.0600000   1.599888e-04  9.721644e-08
   1041   1081   2   0.50000    -0.1200000    0.0600000   1.599888e-04  9.721644e-08
   1078   1044   2   0.50000     0.0600000    0.5100000   3.869820e-04  3.188634e-07
   1078   1080   2   0.50000     0.0600000    0.0600000   3.930919e-05  8.704828e-09
   1078   1081   2   0.50000     0.0600000    0.0600000   3.930919e-05  8.704828e-09
   1079   1044   2   0.50000     0.0600000    0.5100000   3.869820e-04  3.188634e-07
   1079   1080   2   0.50000     0.0600000    0.0600000   3.930919e-05  8.704828e-09
   1079   1081   2   0.50000     0.0600000    0.0600000   3.930919e-05  8.704828e-09
   1042   1045   2   0.50000    -0.1200000   -0.4300000   1.095425e-03  1.218041e-06
   1042   1082   2   0.50000    -0.1200000   -0.3300000   1.026091e-03  1.187829e-06
   1080   1045   2   0.50000     0.0600000   -0.4300000   1.726228e-04  6.344822e-08
   1080   1082   2   0.50000     0.0600000   -0.3300000   1.616969e-04  6.187447e-08
   1081   1045   2   0.50000     0.0600000   -0.4300000   1.726228e-04  6.344822e-08
   1081   1082   2   0.50000     0.0600000   -0.3300000   1.616969e-04  6.187447e-08
   1043   1083   2   0.50000    -0.1200000    0.1900000   1.015252e-03  1.866303e-06
   1045   1083   2   0.50000    -0.4300000    0.1900000   1.095425e-03  1.218041e-06
   1044   1084   2   0.50000     0.5100000   -0.1200000   1.575021e-03  3.561100e-06
   1044   1106   2   0.50000     0.5100000    0.0300000   2.482000e-04  1.854991e-07
   1044   1107   2   0.50000     0.5100000    0.0300000   2.482000e-04  1.854991e-07
   1082   1085   2   0.50000    -0.3300000   -0.1200000   1.026091e-03  1.187829e-06
   1082   1108   2   0.50000    -0.3300000    0.0600000   2.521103e-04  1.063590e-07
   1082   1109   2   0.50000    -0.3300000    0.0600000   2.521103e-04  1.063590e-07
   1106   1085   2   0.50000     0.0300000   -0.1200000   1.599888e-04  9.721644e-08
   1106   1108   2   0.50000     0.0300000    0.0600000   3.930919e-05  8.704828e-09
   1106   1109   2   0.50000     0.0300000    0.0600000   3.930919e-05  8.704828e-09
   1107   1085   2   0.50000     0.0300000   -0.1200000   1.599888e-04  9.721644e-08
   1107   1108   2   0.50000     0.0300000    0.0600000   3.930919e-05  8.704828e-09
   1107   1109   2   0.50000     0.0300000    0.0600000   3.930919e-05  8.704828e-09
   1083   1086   2   0.50000     0.1900000   -0.1200000   1.015252e-03  1.866303e-06
   1083   1110   2   0.50000     0.1900000    0.0600000   2.494471e-04  1.671101e-07
   1083   1111   2   0.50000     0.1900000    0.0600000   2.494471e-04  1.671101e-07
   1108   1086   2   0.50000     0.0600000   -0.1200000   2.494471e-04  1.671101e-07
   1108   1110   2   0.50000     0.0600000    0.0600000   6.128906e-05  1.496315e-08
   1108   1111   2   0.50000     0.0600000    0.0600000   6.128906e-05  1.496315e-08
   1109   1086   2   0.50000     0.0600000   -0.1200000   2.494471e-04  1.671101e-07
   1109   1110   2   0.50000     0.0600000    0.0600000   6.128906e-05  1.496315e-08
   1109   1111   2   0.50000     0.0600000    0.0600000   6.128906e-05  1.496315e-08
   1084   1087   2   0.50000    -0.1200000   -0.1200000   1.015252e-03  1.866303e-06
   1084   1112   2   0.50000    -0.1200000    0.0600000   2.494471e-04  1.671101e-07
   1084   1113   2   0.50000    -0.1200000    0.0600000   2.494471e-04  1.671101e-07
   1110   1087   2   0.50000     0.0600000   -0.1200000   2.494471e-04  1.671101e-07
   1110   1112   2   0.50000     0.0600000    0.0600000   6.128906e-05  1.496315e-08
   1110   1113   2   0.50000     0.0600000    0.0600000   6.128906e-05  1.496315e-08
   1111   1087   2   0.50000     0.0600000   -0.1200000   2.494471e-04  1.671101e-07
   1111   1112   2   0.50000     0.0600000    0.0600000   6.128906e-05  1.496315e-08
   1111   1113   2   0.50000     0.0600000    0.0600000   6.128906e-05  1.496315e-08
   1085   1088   2   0.50000    -0.1200000   -0.1200000   1.015252e-03  1.866303e-06
   1085   1114   2   0.50000    -0.1200000    0.0600000   2.494471e-04  1.671101e-07
   1085   1115   2   0.50000    -0.1200000    0.0600000   2.494471e-04  1.671101e-07
   1112   1088   2   0.50000     0.0600000   -0.1200000   2.494471e-04  1.671101e-07
   1112   1114   2   0.50000     0.0600000    0.0600000   6.128906e-05  1.496315e-08
   1112   1115   2   0.50000     0.0600000    0.0600000   6.128906e-05  1.496315e-08
   1113   1088   2   0.50000     0.0600000   -0.1200000   2.494471e-04  1.671101e-07
   1113   1114   2   0.50000     0.0600000    0.0600000   6.128906e-05  1.496315e-08
   1113   1115   2   0.50000     0.0600000    0.0600000   6.128906e-05  1.496315e-08
   1086   1089   2   0.50000    -0.1200000   -0.1200000   1.015252e-03  1.866303e-06
   1086   1116   2   0.50000    -0.1200000    0.0600000   2.494471e-04  1.671101e-07
   1086   1117   2   0.50000    -0.1200000    0.0600000   2.494471e-04  1.671101e-07
   1114   1089   2   0.50000     0.0600000   -0.1200000   2.494471e-04  1.671101e-07
   1114   1116   2   0.50000     0.0600000    0.0600000   6.128906e-05  1.496315e-08
   1114   1117   2   0.50000     0.0600000    0.0600000   6.128906e-05  1.496315e-08
   1115   1089   2   0.50000     0.0600000   -0.1200000   2.494471e-04  1.671101e-07
   1115   1116   2   0.50000     0.0600000    0.0600000   6.128906e-05  1.496315e-08
   1115   1117   2   0.50000     0.0600000    0.0600000   6.128906e-05  1.496315e-08
   1087   1090   2   0.50000    -0.1200000   -0.1200000   1.015252e-03  1.866303e-06
   1087   1118   2   0.50000    -0.1200000    0.0600000   2.494471e-04  1.671101e-07
   1087   1119   2   0.50000    -0.1200000    0.0600000   2.494471e-04  1.671101e-07
   1116   1090   2   0.50000     0.0600000   -0.1200000   2.494471e-04  1.671101e-07
   1116   1118   2   0.50000     0.0600000    0.0600000   6.128906e-05  1.496315e-08
   1116   1119   2   0.50000     0.0600000    0.0600000   6.128906e-05  1.496315e-08
   1117   1090   2   0.50000     0.0600000   -0.1200000   2.494471e-04  1.671101e-07
   1117   1118   2   0.50000     0.0600000    0.0600000   6.128906e-05  1.496315e-08
   1117   1119   2   0.50000     0.0600000    0.0600000   6.128906e-05  1.496315e-08
   1088   1091   2   0.50000    -0.1200000   -0.1200000   1.015252e-03  1.866303e-06
   1088   1120   2   0.50000    -0.1200000    0.0600000   2.494471e-04  1.671101e-07
   1088   1121   2   0.50000    -0.1200000    0.0600000   2.494471e-04  1.671101e-07
   1118   1091   2   0.50000     0.0600000   -0.1200000   2.494471e-04  1.671101e-07
   1118   1120   2   0.50000     0.0600000    0.0600000   6.128906e-05  1.496315e-08
   1118   1121   2   0.50000     0.0600000    0.0600000   6.128906e-05  1.496315e-08
   1119   1091   2   0.50000     0.0600000   -0.1200000   2.494471e-04  1.671101e-07
   1119   1120   2   0.50000     0.0600000    0.0600000   6.128906e-05  1.496315e-08
   1119   1121   2   0.50000     0.0600000    0.0600000   6.128906e-05  1.496315e-08
   1089   1092   2   0.50000    -0.1200000    0.1900000   1.015252e-03  1.866303e-06
   1089   1122   2   0.50000    -0.1200000    0.0600000   2.494471e-04  1.671101e-07
   1089   1123   2   0.50000    -0.1200000    0.0600000   2.494471e-04  1.671101e-07
   1120   1092   2   0.50000     0.0600000    0.1900000   2.494471e-04  1.671101e-07
   1120   1122   2   0.50000     0.0600000    0.0600000   6.128906e-05  1.496315e-08
   1120   1123   2   0.50000     0.0600000    0.0600000   6.128906e-05  1.496315e-08
   1121   1092   2   0.50000     0.0600000    0.1900000   2.494471e-04  1.671101e-07
   1121   1122   2   0.50000     0.0600000    0.0600000   6.128906e-05  1.496315e-08
   1121   1123   2   0.50000     0.0600000    0.0600000   6.128906e-05  1.496315e-08
   1090   1093   2   0.50000    -0.1200000   -0.3300000   1.026091e-03  1.187829e-06
   1090   1124   2   0.50000    -0.1200000    0.0300000   1.599888e-04  9.721644e-08
   1090   1125   2   0.50000    -0.1200000    0.0300000   1.599888e-04  9.721644e-08
   1122   1093   2   0.50000     0.0600000   -0.3300000   2.521103e-04  1.063590e-07
   1122   1124   2   0.50000     0.0600000    0.0300000   3.930919e-05  8.704828e-09
   1122   1125   2   0.50000     0.0600000    0.0300000   3.930919e-05  8.704828e-09
   1123   1093   2   0.50000     0.0600000   -0.3300000   2.521103e-04  1.063590e-07
   1123   1124   2   0.50000     0.0600000    0.0300000   3.930919e-05  8.704828e-09
   1123   1125   2   0.50000     0.0600000    0.0300000   3.930919e-05  8.704828e-09
   1091   1094   2   0.50000    -0.1200000    0.5100000   1.575021e-03  3.561100e-06
   1124   1094   2   0.50000     0.0300000    0.5100000   2.482000e-04  1.854991e-07
   1125   1094   2   0.50000     0.0300000    0.5100000   2.482000e-04  1.854991e-07
   1092   1095   2   0.50000     0.1900000   -0.4300000   1.095425e-03  1.218041e-06
   1092   1096   2   0.50000     0.1900000   -0.1200000   1.015252e-03  1.866303e-06
   1093   1097   2   0.50000    -0.3300000   -0.1200000   1.026091e-03  1.187829e-06
   1093   1126   2   0.50000    -0.3300000    0.0600000   1.616969e-04  6.187447e-08
   1093   1127   2   0.50000    -0.3300000    0.0600000   1.616969e-04  6.187447e-08
   1095   1097   2   0.50000    -0.4300000   -0.1200000   1.095425e-03  1.218041e-06
   1095   1126   2   0.50000    -0.4300000    0.0600000   1.726228e-04  6.344822e-08
   1095   1127   2   0.50000    -0.4300000    0.0600000   1.726228e-04  6.344822e-08
   1094   1098   2   0.50000     0.5100000   -0.1200000   1.575021e-03  3.561100e-06
   1094   1128   2   0.50000     0.5100000    0.0600000   3.869820e-04  3.188634e-07
   1094   1129   2   0.50000     0.5100000    0.0600000   3.869820e-04  3.188634e-07
   1126   1098   2   0.50000     0.0600000   -0.1200000   1.599888e-04  9.721644e-08
   1126   1128   2   0.50000     0.0600000    0.0600000   3.930919e-05  8.704828e-09
   1126   1129   2   0.50000     0.0600000    0.0600000   3.930919e-05  8.704828e-09
   1127   1098   2   0.50000     0.0600000   -0.1200000   1.599888e-04  9.721644e-08
   1127   1128   2   0.50000     0.0600000    0.0600000   3.930919e-05  8.704828e-09
   1127   1129   2   0.50000     0.0600000    0.0600000   3.930919e-05  8.704828e-09
   1096   1099   2   0.50000    -0.1200000   -0.1200000   1.015252e-03  1.866303e-06
   1096   1130   2   0.50000    -0.1200000    0.0600000   2.494471e-04  1.671101e-07
   1096   1131   2   0.50000    -0.1200000    0.0600000   2.494471e-04  1.671101e-07
   1128   1099   2   0.50000     0.0600000   -0.1200000   2.494471e-04  1.671101e-07
   1128   1130   2   0.50000     0.0600000    0.0600000   6.128906e-05  1.496315e-08
   1128   1131   2   0.50000     0.0600000    0.0600000   6.128906e-05  1.496315e-08
   1129   1099   2   0.50000     0.0600000   -0.1200000   2.494471e-04  1.671101e-07
   1129   1130   2   0.50000     0.0600000    0.0600000   6.128906e-05  1.496315e-08
   1129   1131   2   0.50000     0.0600000    0.0600000   6.128906e-05  1.496315e-08
   1097   1100   2   0.50000    -0.1200000   -0.1200000   1.015252e-03  1.866303e-06
   1097   1132   2   0.50000    -0.1200000    0.0600000   2.494471e-04  1.671101e-07
   1097   1133   2   0.50000    -0.1200000    0.0600000   2.494471e-04  1.671101e-07
   1130   1100   2   0.50000     0.0600000   -0.1200000   2.494471e-04  1.671101e-07
   1130   1132   2   0.50000     0.0600000    0.0600000   6.128906e-05  1.496315e-08
   1130   1133   2   0.50000     0.0600000    0.0600000   6.128906e-05  1.496315e-08
   1131   1100   2   0.50000     0.0600000   -0.1200000   2.494471e-04  1.671101e-07
   1131   1132   2   0.50000     0.0600000    0.0600000   6.128906e-05  1.496315e-08
   1131   1133   2   0.50000     0.0600000    0.0600000   6.128906e-05  1.496315e-08
   1098   1101   2   0.50000    -0.1200000   -0.1200000   1.015252e-03  1.866303e-06
   1098   1134   2   0.50000    -0.1200000    0.0600000   2.494471e-04  1.671101e-07
   1098   1135   2   0.50000    -0.1200000    0.0600000   2.494471e-04  1.671101e-07
   1132   1101   2   0.50000     0.0600000   -0.1200000   2.494471e-04  1.671101e-07
   1132   1134   2   0.50000     0.0600000    0.0600000   6.128906e-05  1.496315e-08
   1132   1135   2   0.50000     0.0600000    0.0600000   6.128906e-05  1.496315e-08
   1133   1101   2   0.50000     0.0600000   -0.1200000   2.494471e-04  1.671101e-07
   1133   1134   2   0.50000     0.0600000    0.0600000   6.128906e-05  1.496315e-08
   1133   1135   2   0.50000     0.0600000    0.0600000   6.128906e-05  1.496315e-08
   1099   1102   2   0.50000    -0.1200000   -0.1200000   1.015252e-03  1.866303e-06
   1099   1136   2   0.50000    -0.1200000    0.0600000   2.494471e-04  1.671101e-07
   1099   1137   2   0.50000    -0.1200000    0.0600000   2.494471e-04  1.671101e-07
   1134   1102   2   0.50000     0.0600000   -0.1200000   2.494471e-04  1.671101e-07
   1134   1136   2   0.50000     0.0600000    0.0600000   6.128906e-05  1.496315e-08
   1134   1137   2   0.50000     0.0600000    0.0600000   6.128906e-05  1.496315e-08
   1135   1102   2   0.50000     0.0600000   -0.1200000   2.494471e-04  1.671101e-07
   1135   1136   2   0.50000     0.0600000    0.0600000   6.128906e-05  1.496315e-08
   1135   1137   2   0.50000     0.0600000    0.0600000   6.128906e-05  1.496315e-08
   1100   1103   2   0.50000    -0.1200000   -0.1200000   1.015252e-03  1.866303e-06
   1100   1138   2   0.50000    -0.1200000    0.0600000   2.494471e-04  1.671101e-07
   1100   1139   2   0.50000    -0.1200000    0.0600000   2.494471e-04  1.671101e-07
   1136   1103   2   0.50000     0.0600000   -0.1200000   2.494471e-04  1.671101e-07
   1136   1138   2   0.50000     0.0600000    0.0600000   6.128906e-05  1.496315e-08
   1136   1139   2   0.50000     0.0600000    0.0600000   6.128906e-05  1.496315e-08
   1137   1103   2   0.50000     0.0600000   -0.1200000   2.494471e-04  1.671101e-07
   1137   1138   2   0.50000     0.0600000    0.0600000   6.128906e-05  1.496315e-08
   1137   1139   2   0.50000     0.0600000    0.0600000   6.128906e-05  1.496315e-08
   1101   1104   2   0.50000    -0.1200000    0.5100000   1.575021e-03  3.561100e-06
   1101   1140   2   0.50000    -0.1200000    0.0600000   1.599888e-04  9.721644e-08
   1101   1141   2   0.50000    -0.1200000    0.0600000   1.599888e-04  9.721644e-08
   1138   1104   2   0.50000     0.0600000    0.5100000   3.869820e-04  3.188634e-07
   1138   1140   2   0.50000     0.0600000    0.0600000   3.930919e-05  8.704828e-09
   1138   1141   2   0.50000     0.0600000    0.0600000   3.930919e-05  8.704828e-09
   1139   1104   2   0.50000     0.0600000    0.5100000   3.869820e-04  3.188634e-07
   1139   1140   2   0.50000     0.0600000    0.0600000   3.930919e-05  8.704828e-09
   1139   1141   2   0.50000     0.0600000    0.0600000   3.930919e-05  8.704828e-09
   1102   1105   2   0.50000    -0.1200000   -0.4300000   1.095425e-03  1.218041e-06
   1102   1142   2   0.50000    -0.1200000   -0.3300000   1.026091e-03  1.187829e-06
   1140   1105   2   0.50000     0.0600000   -0.4300000   1.726228e-04  6.344822e-08
   1140   1142   2   0.50000     0.0600000   -0.3300000   1.616969e-04  6.187447e-08
   1141   1105   2   0.50000     0.0600000   -0.4300000   1.726228e-04  6.344822e-08
   1141   1142   2   0.50000     0.0600000   -0.3300000   1.616969e-04  6.187447e-08
   1103   1143   2   0.50000    -0.1200000    0.1900000   1.015252e-03  1.866303e-06
   1105   1143   2   0.50000    -0.4300000    0.1900000   1.095425e-03  1.218041e-06
   1104   1144   2   0.50000     0.5100000   -0.1200000   1.575021e-03  3.561100e-06
   1104   1166   2   0.50000     0.5100000    0.0300000   2.482000e-04  1.854991e-07
   1104   1167   2   0.50000     0.5100000    0.0300000   2.482000e-04  1.854991e-07
   1142   1145   2   0.50000    -0.3300000   -0.1200000   1.026091e-03  1.187829e-06
   1142   1168   2   0.50000    -0.3300000    0.0600000   2.521103e-04  1.063590e-07
   1142   1169   2   0.50000    -0.3300000    0.0600000   2.521103e-04  1.063590e-07
   1166   1145   2   0.50000     0.0300000   -0.1200000   1.599888e-04  9.721644e-08
   1166   1168   2   0.50000     0.0300000    0.0600000   3.930919e-05  8.704828e-09
   1166   1169   2   0.50000     0.0300000    0.0600000   3.930919e-05  8.704828e-09
   1167   1145   2   0.50000     0.0300000   -0.1200000   1.599888e-04  9.721644e-08
   1167   1168   2   0.50000     0.0300000    0.0600000   3.930919e-05  8.704828e-09
   1167   1169   2   0.50000     0.0300000    0.0600000   3.930919e-05  8.704828e-09
   1143   1146   2   0.50000     0.1900000   -0.1200000   1.015252e-03  1.866303e-06
   1143   1170   2   0.50000     0.1900000    0.0600000   2.494471e-04  1.671101e-07
   1143   1171   2   0.50000     0.1900000    0.0600000   2.494471e-04  1.671101e-07
   1168   1146   2   0.50000     0.0600000   -0.1200000   2.494471e-04  1.671101e-07
   1168   1170   2   0.50000     0.0600000    0.0600000   6.128906e-05  1.496315e-08
   1168   1171   2   0.50000     0.0600000    0.0600000   6.128906e-05  1.496315e-08
   1169   1146   2   0.50000     0.0600000   -0.1200000   2.494471e-04  1.671101e-07
   1169   1170   2   0.50000     0.0600000    0.0600000   6.128906e-05  1.496315e-08
   1169   1171   2   0.50000     0.0600000    0.0600000   6.128906e-05  1.496315e-08
   1144   1147   2   0.50000    -0.1200000   -0.1200000   1.015252e-03  1.866303e-06
   1144   1172   2   0.50000    -0.1200000    0.0600000   2.494471e-04  1.671101e-07
   1144   1173   2   0.50000    -0.1200000    0.0600000   2.494471e-04  1.671101e-07
   1170   1147   2   0.50000     0.0600000   -0.1200000   2.494471e-04  1.671101e-07
   1170   1172   2   0.50000     0.0600000    0.0600000   6.128906e-05  1.496315e-08
   1170   1173   2   0.50000     0.0600000    0.0600000   6.128906e-05  1.496315e-08
   1171   1147   2   0.50000     0.0600000   -0.1200000   2.494471e-04  1.671101e-07
   1171   1172   2   0.50000     0.0600000    0.0600000   6.128906e-05  1.496315e-08
   1171   1173   2   0.50000     0.0600000    0.0600000   6.128906e-05  1.496315e-08
   1145   1148   2   0.50000    -0.1200000   -0.1200000   1.015252e-03  1.866303e-06
   1145   1174   2   0.50000    -0.1200000    0.0600000   2.494471e-04  1.671101e-07
   1145   1175   2   0.50000    -0.1200000    0.0600000   2.494471e-04  1.671101e-07
   1172   1148   2   0.50000     0.0600000   -0.1200000   2.494471e-04  1.671101e-07
   1172   1174   2   0.50000     0.0600000    0.0600000   6.128906e-05  1.496315e-08
   1172   1175   2   0.50000     0.0600000    0.0600000   6.128906e-05  1.496315e-08
   1173   1148   2   0.50000     0.0600000   -0.1200000   2.494471e-04  1.671101e-07
   1173   1174   2   0.50000     0.0600000    0.0600000   6.128906e-05  1.496315e-08
   1173   1175   2   0.50000     0.0600000    0.0600000   6.128906e-05  1.496315e-08
   1146   1149   2   0.50000    -0.1200000   -0.1200000   1.015252e-03  1.866303e-06
   1146   1176   2   0.50000    -0.1200000    0.0600000   2.494471e-04  1.671101e-07
   1146   1177   2   0.50000    -0.1200000    0.0600000   2.494471e-04  1.671101e-07
   1174   1149   2   0.50000     0.0600000   -0.1200000   2.494471e-04  1.671101e-07
   1174   1176   2   0.50000     0.0600000    0.0600000   6.128906e-05  1.496315e-08
   1174   1177   2   0.50000     0.0600000    0.0600000   6.128906e-05  1.496315e-08
   1175   1149   2   0.50000     0.0600000   -0.1200000   2.494471e-04  1.671101e-07
   1175   1176   2   0.50000     0.0600000    0.0600000   6.128906e-05  1.496315e-08
   1175   1177   2   0.50000     0.0600000    0.0600000   6.128906e-05  1.496315e-08
   1147   1150   2   0.50000    -0.1200000   -0.1200000   1.015252e-03  1.866303e-06
   1147   1178   2   0.50000    -0.1200000    0.0600000   2.494471e-04  1.671101e-07
   1147   1179   2   0.50000    -0.1200000    0.0600000   2.494471e-04  1.671101e-07
   1176   1150   2   0.50000     0.0600000   -0.1200000   2.494471e-04  1.671101e-07
   1176   1178   2   0.50000     0.0600000    0.0600000   6.128906e-05  1.496315e-08
   1176   1179   2   0.50000     0.0600000    0.0600000   6.128906e-05  1.496315e-08
   1177   1150   2   0.50000     0.0600000   -0.1200000   2.494471e-04  1.671101e-07
   1177   1178   2   0.50000     0.0600000    0.0600000   6.128906e-05  1.496315e-08
   1177   1179   2   0.50000     0.0600000    0.0600000   6.128906e-05  1.496315e-08
   1148   1151   2   0.50000    -0.1200000   -0.1200000   1.015252e-03  1.866303e-06
   1148   1180   2   0.50000    -0.1200000    0.0600000   2.494471e-04  1.671101e-07
   1148   1181   2   0.50000    -0.1200000    0.0600000   2.494471e-04  1.671101e-07
   1178   1151   2   0.50000     0.0600000   -0.1200000   2.494471e-04  1.671101e-07
   1178   1180   2   0.50000     0.0600000    0.0600000   6.128906e-05  1.496315e-08
   1178   1181   2   0.50000     0.0600000    0.0600000   6.128906e-05  1.496315e-08
   1179   1151   2   0.50000     0.0600000   -0.1200000   2.494471e-04  1.671101e-07
   1179   1180   2   0.50000     0.0600000    0.0600000   6.128906e-05  1.496315e-08
   1179   1181   2   0.50000     0.0600000    0.0600000   6.128906e-05  1.496315e-08
   1149   1152   2   0.50000    -0.1200000    0.1900000   1.015252e-03  1.866303e-06
   1149   1182   2   0.50000    -0.1200000    0.0600000   2.494471e-04  1.671101e-07
   1149   1183   2   0.50000    -0.1200000    0.0600000   2.494471e-04  1.671101e-07
   1180   1152   2   0.50000     0.0600000    0.1900000   2.494471e-04  1.671101e-07
   1180   1182   2   0.50000     0.0600000    0.0600000   6.128906e-05  1.496315e-08
   1180   1183   2   0.50000     0.0600000    0.0600000   6.128906e-05  1.496315e-08
   1181   1152   2   0.50000     0.0600000    0.1900000   2.494471e-04  1.671101e-07
   1181   1182   2   0.50000     0.0600000    0.0600000   6.128906e-05  1.496315e-08
   1181   1183   2   0.50000     0.0600000    0.0600000   6.128906e-05  1.496315e-08
   1150   1153   2   0.50000    -0.1200000   -0.3300000   1.026091e-03  1.187829e-06
   1150   1184   2   0.50000    -0.1200000    0.0300000   1.599888e-04  9.721644e-08
   1150   1185   2   0.50000    -0.1200000    0.0300000   1.599888e-04  9.721644e-08
   1182   1153   2   0.50000     0.0600000   -0.3300000   2.521103e-04  1.063590e-07
   1182   1184   2   0.50000     0.0600000    0.0300000   3.930919e-05  8.704828e-09
   1182   1185   2   0.50000     0.0600000    0.0300000   3.930919e-05  8.704828e-09
   1183   1153   2   0.50000     0.0600000   -0.3300000   2.521103e-04  1.063590e-07
   1183   1184   2   0.50000     0.0600000    0.0300000   3.930919e-05  8.704828e-09
   1183   1185   2   0.50000     0.0600000    0.0300000   3.930919e-05  8.704828e-09
   1151   1154   2   0.50000    -0.1200000    0.5100000   1.575021e-03  3.561100e-06
   1184   1154   2   0.50000     0.0300000    0.5100000   2.482000e-04  1.854991e-07
   1185   1154   2   0.50000     0.0300000    0.5100000   2.482000e-04  1.854991e-07
   1152   1155   2   0.50000     0.1900000   -0.4300000   1.095425e-03  1.218041e-06
   1152   1156   2   0.50000     0.1900000   -0.1200000   1.015252e-03  1.866303e-06
   1153   1157   2   0.50000    -0.3300000   -0.1200000   1.026091e-03  1.187829e-06
   1153   1186   2   0.50000    -0.3300000    0.0600000   1.616969e-04  6.187447e-08
   1153   1187   2   0.50000    -0.3300000    0.0600000   1.616969e-04  6.187447e-08
   1155   1157   2   0.50000    -0.4300000   -0.1200000   1.095425e-03  1.218041e-06
   1155   1186   2   0.50000    -0.4300000    0.0600000   1.726228e-04  6.344822e-08
   1155   1187   2   0.50000    -0.4300000    0.0600000   1.726228e-04  6.344822e-08
   1154   1158   2   0.50000     0.5100000   -0.1200000   1.575021e-03  3.561100e-06
   1154   1188   2   0.50000     0.5100000    0.0600000   3.869820e-04  3.188634e-07
   1154   1189   2   0.50000     0.5100000    0.0600000   3.869820e-04  3.188634e-07
   1186   1158   2   0.50000     0.0600000   -0.1200000   1.599888e-04  9.721644e-08
   1186   1188   2   0.50000     0.0600000    0.0600000   3.930919e-05  8.704828e-09
   1186   1189   2   0.50000     0.0600000    0.0600000   3.930919e-05  8.704828e-09
   1187   1158   2   0.50000     0.0600000   -0.1200000   1.599888e-04  9.721644e-08
   1187   1188   2   0.50000     0.0600000    0.0600000   3.930919e-05  8.704828e-09
   1187   1189   2   0.50000     0.0600000    0.0600000   3.930919e-05  8.704828e-09
   1156   1159   2   0.50000    -0.1200000   -0.1200000   1.015252e-03  1.866303e-06
   1156   1190   2   0.50000    -0.1200000    0.0600000   2.494471e-04  1.671101e-07
   1156   1191   2   0.50000    -0.1200000    0.0600000   2.494471e-04  1.671101e-07
   1188   1159   2   0.50000     0.0600000   -0.1200000   2.494471e-04  1.671101e-07
   1188   1190   2   0.50000     0.0600000    0.0600000   6.128906e-05  1.496315e-08
   1188   1191   2   0.50000     0.0600000    0.0600000   6.128906e-05  1.496315e-08
   1189   1159   2   0.50000     0.0600000   -0.1200000   2.494471e-04  1.671101e-07
   1189   1190   2   0.50000     0.0600000    0.0600000   6.128906e-05  1.496315e-08
   1189   1191   2   0.50000     0.0600000    0.0600000   6.128906e-05  1.496315e-08
   1157   1160   2   0.50000    -0.1200000   -0.1200000   1.015252e-03  1.866303e-06
   1157   1192   2   0.50000    -0.1200000    0.0600000   2.494471e-04  1.671101e-07
   1157   1193   2   0.50000    -0.1200000    0.0600000   2.494471e-04  1.671101e-07
   1190   1160   2   0.50000     0.0600000   -0.1200000   2.494471e-04  1.671101e-07
   1190   1192   2   0.50000     0.0600000    0.0600000   6.128906e-05  1.496315e-08
   1190   1193   2   0.50000     0.0600000    0.0600000   6.128906e-05  1.496315e-08
   1191   1160   2   0.50000     0.0600000   -0.1200000   2.494471e-04  1.671101e-07
   1191   1192   2   0.50000     0.0600000    0.0600000   6.128906e-05  1.496315e-08
   1191   1193   2   0.50000     0.0600000    0.0600000   6.128906e-05  1.496315e-08
   1158   1161   2   0.50000    -0.1200000   -0.1200000   1.015252e-03  1.866303e-06
   1158   1194   2   0.50000    -0.1200000    0.0600000   2.494471e-04  1.671101e-07
   1158   1195   2   0.50000    -0.1200000    0.0600000   2.494471e-04  1.671101e-07
   1192   1161   2   0.50000     0.0600000   -0.1200000   2.494471e-04  1.671101e-07
   1192   1194   2   0.50000     0.0600000    0.0600000   6.128906e-05  1.496315e-08
   1192   1195   2   0.50000     0.0600000    0.0600000   6.128906e-05  1.496315e-08
   1193   1161   2   0.50000     0.0600000   -0.1200000   2.494471e-04  1.671101e-07
   1193   1194   2   0.50000     0.0600000    0.0600000   6.128906e-05  1.496315e-08
   1193   1195   2   0.50000     0.0600000    0.0600000   6.128906e-05  1.496315e-08
   1159   1162   2   0.50000    -0.1200000   -0.1200000   1.015252e-03  1.866303e-06
   1159   1196   2   0.50000    -0.1200000    0.0600000   2.494471e-04  1.671101e-07
   1159   1197   2   0.50000    -0.1200000    0.0600000   2.494471e-04  1.671101e-07
   1194   1162   2   0.50000     0.0600000   -0.1200000   2.494471e-04  1.671101e-07
   1194   1196   2   0.50000     0.0600000    0.0600000   6.128906e-05  1.496315e-08
   1194   1197   2   0.50000     0.0600000    0.0600000   6.128906e-05  1.496315e-08
   1195   1162   2   0.50000     0.0600000   -0.1200000   2.494471e-04  1.671101e-07
   1195   1196   2   0.50000     0.0600000    0.0600000   6.128906e-05  1.496315e-08
   1195   1197   2   0.50000     0.0600000    0.0600000   6.128906e-05  1.496315e-08
   1160   1163   2   0.50000    -0.1200000   -0.1200000   1.015252e-03  1.866303e-06
   1160   1198   2   0.50000    -0.1200000    0.0600000   2.494471e-04  1.671101e-07
   1160   1199   2   0.50000    -0.1200000    0.0600000   2.494471e-04  1.671101e-07
   1196   1163   2   0.50000     0.0600000   -0.1200000   2.494471e-04  1.671101e-07
   1196   1198   2   0.50000     0.0600000    0.0600000   6.128906e-05  1.496315e-08
   1196   1199   2   0.50000     0.0600000    0.0600000   6.128906e-05  1.496315e-08
   1197   1163   2   0.50000     0.0600000   -0.1200000   2.494471e-04  1.671101e-07
   1197   1198   2   0.50000     0.0600000    0.0600000   6.128906e-05  1.496315e-08
   1197   1199   2   0.50000     0.0600000    0.0600000   6.128906e-05  1.496315e-08
   1161   1164   2   0.50000    -0.1200000    0.4500000   1.575021e-03  3.561100e-06
   1161   1200   2   0.50000    -0.1200000    0.0600000   1.599888e-04  9.721644e-08
   1161   1201   2   0.50000    -0.1200000    0.0600000   1.599888e-04  9.721644e-08
   1198   1164   2   0.50000     0.0600000    0.4500000   3.869820e-04  3.188634e-07
   1198   1200   2   0.50000     0.0600000    0.0600000   3.930919e-05  8.704828e-09
   1198   1201   2   0.50000     0.0600000    0.0600000   3.930919e-05  8.704828e-09
   1199   1164   2   0.50000     0.0600000    0.4500000   3.869820e-04  3.188634e-07
   1199   1200   2   0.50000     0.0600000    0.0600000   3.930919e-05  8.704828e-09
   1199   1201   2   0.50000     0.0600000    0.0600000   3.930919e-05  8.704828e-09
   1162   1165   2   0.50000    -0.1200000   -0.4500000   1.095425e-03  1.218041e-06
   1162   1202   2   0.50000    -0.1200000    0.0000000   1.599888e-04  9.721644e-08
   1200   1165   2   0.50000     0.0600000   -0.4500000   1.726228e-04  6.344822e-08
   1200   1202   2   0.50000     0.0600000    0.0000000   2.521187e-05  5.064042e-09
   1201   1165   2   0.50000     0.0600000   -0.4500000   1.726228e-04  6.344822e-08
   1201   1202   2   0.50000     0.0600000    0.0000000   2.521187e-05  5.064042e-09

[ angles ]
; ai  aj  ak
      2      1     61   1    108.5000    460.2400
      1      2      3   1    109.5000    418.4000
      1      2     25   1    109.5000    292.8800
      1      2     26   1    109.5000    292.8800
      3      2     25   1    110.7000    313.8000
      3      2     26   1    110.7000    313.8000
     25      2     26   1    107.8000    276.1440
      2      3      4   1    112.7000    488.2728
      2      3     27   1    110.7000    313.8000
      2      3     28   1    110.7000    313.8000
      4      3     27   1    110.7000    313.8000
      4      3     28   1    110.7000    313.8000
     27      3     28   1    107.8000    276.1440
      3      4      5   1    112.7000    488.2728
      3      4     29   1    110.7000    313.8000
      3      4     30   1    110.7000    313.8000
      5      4     29   1    110.7000    313.8000
      5      4     30   1    110.7000    313.8000
     29      4     30   1    107.8000    276.1440
      4      5      6   1    112.7000    488.2728
      4      5     31   1    110.7000    313.8000
      4      5     32   1    110.7000    313.8000
      6      5     31   1    110.7000    313.8000
      6      5     32   1    110.7000    313.8000
     31      5     32   1    107.8000    276.1440
      5      6      7   1    112.7000    488.2728
      5      6     33   1    110.7000    313.8000
      5      6     34   1    110.7000    313.8000
      7      6     33   1    110.7000    313.8000
      7      6     34   1    110.7000    313.8000
     33      6     34   1    107.8000    276.1440
      6      7      8   1    112.7000    488.2728
      6      7     35   1    110.7000    313.8000
      6      7     36   1    110.7000    313.8000
      8      7     35   1    110.7000    313.8000
      8      7     36   1    110.7000    313.8000
     35      7     36   1    107.8000    276.1440
      7      8      9   1    112.7000    488.2728
      7      8     37   1    110.7000    313.8000
      7      8     38   1    110.7000    313.8000
      9      8     37   1    110.7000    313.8000
      9      8     38   1    110.7000    313.8000
     37      8     38   1    107.8000    276.1440
      8      9     10   1    112.7000    488.2728
      8      9     39   1    110.7000    313.8000
      8      9     40   1    110.7000    313.8000
     10      9     39   1    110.7000    313.8000
     10      9     40   1    110.7000    313.8000
     39      9     40   1    107.8000    276.1440
      9     10     11   1    112.7000    488.2728
      9     10     41   1    110.7000    313.8000
      9     10     42   1    110.7000    313.8000
     11     10     41   1    110.7000    313.8000
     11     10     42   1    110.7000    313.8000
     41     10     42   1    107.8000    276.1440
     10     11     12   1    109.5000    418.4000
     10     11     43   1    110.7000    313.8000
     10     11     44   1    110.7000    313.8000
     12     11     43   1    109.5000    292.8800
     12     11     44   1    109.5000    292.8800
     43     11     44   1    107.8000    276.1440
     11     12     13   1    116.9000    694.5440
     12     13     14   1    123.4000    694.5440
     12     13     15   1    111.4000    677.8080
     14     13     15   1    120.4000    669.4400
     13     15     16   1    111.1000    527.1840
     13     15     45   1    109.5000    292.8800
     13     15     46   1    109.5000    292.8800
     16     15     45   1    110.7000    313.8000
     16     15     46   1    110.7000    313.8000
     45     15     46   1    107.8000    276.1440
     15     16     17   1    112.7000    488.2728
     15     16     47   1    110.7000    313.8000
     15     16     48   1    110.7000    313.8000
     17     16     47   1    110.7000    313.8000
     17     16     48   1    110.7000    313.8000
     47     16     48   1    107.8000    276.1440
     16     17     18   1    112.7000    488.2728
     16     17     49   1    110.7000    313.8000
     16     17     50   1    110.7000    313.8000
     18     17     49   1    110.7000    313.8000
     18     17     50   1    110.7000    313.8000
     49     17     50   1    107.8000    276.1440
     17     18     19   1    112.7000    488.2728
     17     18     51   1    110.7000    313.8000
     17     18     52   1    110.7000    313.8000
     19     18     51   1    110.7000    313.8000
     19     18     52   1    110.7000    313.8000
     51     18     52   1    107.8000    276.1440
     18     19     20   1    112.7000    488.2728
     18     19     53   1    110.7000    313.8000
     18     19     54   1    110.7000    313.8000
     20     19     53   1    110.7000    313.8000
     20     19     54   1    110.7000    313.8000
     53     19     54   1    107.8000    276.1440
     19     20     21   1    112.7000    488.2728
     19     20     55   1    110.7000    313.8000
     19     20     56   1    110.7000    313.8000
     21     20     55   1    110.7000    313.8000
     21     20     56   1    110.7000    313.8000
     55     20     56   1    107.8000    276.1440
     20     21     22   1    112.7000    488.2728
     20     21     57   1    110.7000    313.8000
     20     21     58   1    110.7000    313.8000
     22     21     57   1    110.7000    313.8000
     22     21     58   1    110.7000    313.8000
     57     21     58   1    107.8000    276.1440
     21     22     23   1    111.1000    527.1840
     21     22     59   1    110.7000    313.8000
     21     22     60   1    110.7000    313.8000
     23     22     59   1    109.5000    292.8800
     23     22     60   1    109.5000    292.8800
     59     22     60   1    107.8000    276.1440
     22     23     24   1    120.4000    669.4400
     22     23     62   1    111.4000    677.8080
     24     23     62   1    123.4000    694.5440
     23     62     63   1    116.9000    694.5440
     62     63     64   1    109.5000    418.4000
     62     63     86   1    109.5000    292.8800
     62     63     87   1    109.5000    292.8800
     64     63     86   1    110.7000    313.8000
     64     63     87   1    110.7000    313.8000
     86     63     87   1    107.8000    276.1440
     63     64     65   1    112.7000    488.2728
     63     64     88   1    110.7000    313.8000
     63     64     89   1    110.7000    313.8000
     65     64     88   1    110.7000    313.8000
     65     64     89   1    110.7000    313.8000
     88     64     89   1    107.8000    276.1440
     64     65     66   1    112.7000    488.2728
     64     65     90   1    110.7000    313.8000
     64     65     91   1    110.7000    313.8000
     66     65     90   1    110.7000    313.8000
     66     65     91   1    110.7000    313.8000
     90     65     91   1    107.8000    276.1440
     65     66     67   1    112.7000    488.2728
     65     66     92   1    110.7000    313.8000
     65     66     93   1    110.7000    313.8000
     67     66     92   1    110.7000    313.8000
     67     66     93   1    110.7000    313.8000
     92     66     93   1    107.8000    276.1440
     66     67     68   1    112.7000    488.2728
     66     67     94   1    110.7000    313.8000
     66     67     95   1    110.7000    313.8000
     68     67     94   1    110.7000    313.8000
     68     67     95   1    110.7000    313.8000
     94     67     95   1    107.8000    276.1440
     67     68     69   1    112.7000    488.2728
     67     68     96   1    110.7000    313.8000
     67     68     97   1    110.7000    313.8000
     69     68     96   1    110.7000    313.8000
     69     68     97   1    110.7000    313.8000
     96     68     97   1    107.8000    276.1440
     68     69     70   1    112.7000    488.2728
     68     69     98   1    110.7000    313.8000
     68     69     99   1    110.7000    313.8000
     70     69     98   1    110.7000    313.8000
     70     69     99   1    110.7000    313.8000
     98     69     99   1    107.8000    276.1440
     69     70     71   1    112.7000    488.2728
     69     70    100   1    110.7000    313.8000
     69     70    101   1    110.7000    313.8000
     71     70    100   1    110.7000    313.8000
     71     70    101   1    110.7000    313.8000
    100     70    101   1    107.8000    276.1440
     70     71     72   1    112.7000    488.2728
     70     71    102   1    110.7000    313.8000
     70     71    103   1    110.7000    313.8000
     72     71    102   1    110.7000    313.8000
     72     71    103   1    110.7000    313.8000
    102     71    103   1    107.8000    276.1440
     71     72     73   1    109.5000    418.4000
     71     72    104   1    110.7000    313.8000
     71     72    105   1    110.7000    313.8000
     73     72    104   1    109.5000    292.8800
     73     72    105   1    109.5000    292.8800
    104     72    105   1    107.8000    276.1440
     72     73     74   1    116.9000    694.5440
     73     74     75   1    123.4000    694.5440
     73     74     76   1    111.4000    677.8080
     75     74     76   1    120.4000    669.4400
     74     76     77   1    111.1000    527.1840
     74     76    106   1    109.5000    292.8800
     74     76    107   1    109.5000    292.8800
     77     76    106   1    110.7000    313.8000
     77     76    107   1    110.7000    313.8000
    106     76    107   1    107.8000    276.1440
     76     77     78   1    112.7000    488.2728
     76     77    108   1    110.7000    313.8000
     76     77    109   1    110.7000    313.8000
     78     77    108   1    110.7000    313.8000
     78     77    109   1    110.7000    313.8000
    108     77    109   1    107.8000    276.1440
     77     78     79   1    112.7000    488.2728
     77     78    110   1    110.7000    313.8000
     77     78    111   1    110.7000    313.8000
     79     78    110   1    110.7000    313.8000
     79     78    111   1    110.7000    313.8000
    110     78    111   1    107.8000    276.1440
     78     79     80   1    112.7000    488.2728
     78     79    112   1    110.7000    313.8000
     78     79    113   1    110.7000    313.8000
     80     79    112   1    110.7000    313.8000
     80     79    113   1    110.7000    313.8000
    112     79    113   1    107.8000    276.1440
     79     80     81   1    112.7000    488.2728
     79     80    114   1    110.7000    313.8000
     79     80    115   1    110.7000    313.8000
     81     80    114   1    110.7000    313.8000
     81     80    115   1    110.7000    313.8000
    114     80    115   1    107.8000    276.1440
     80     81     82   1    112.7000    488.2728
     80     81    116   1    110.7000    313.8000
     80     81    117   1    110.7000    313.8000
     82     81    116   1    110.7000    313.8000
     82     81    117   1    110.7000    313.8000
    116     81    117   1    107.8000    276.1440
     81     82     83   1    112.7000    488.2728
     81     82    118   1    110.7000    313.8000
     81     82    119   1    110.7000    313.8000
     83     82    118   1    110.7000    313.8000
     83     82    119   1    110.7000    313.8000
    118     82    119   1    107.8000    276.1440
     82     83     84   1    111.1000    527.1840
     82     83    120   1    110.7000    313.8000
     82     83    121   1    110.7000    313.8000
     84     83    120   1    109.5000    292.8800
     84     83    121   1    109.5000    292.8800
    120     83    121   1    107.8000    276.1440
     83     84     85   1    120.4000    669.4400
     83     84    122   1    111.4000    677.8080
     85     84    122   1    123.4000    694.5440
     84    122    123   1    116.9000    694.5440
    122    123    124   1    109.5000    418.4000
    122    123    146   1    109.5000    292.8800
    122    123    147   1    109.5000    292.8800
    124    123    146   1    110.7000    313.8000
    124    123    147   1    110.7000    313.8000
    146    123    147   1    107.8000    276.1440
    123    124    125   1    112.7000    488.2728
    123    124    148   1    110.7000    313.8000
    123    124    149   1    110.7000    313.8000
    125    124    148   1    110.7000    313.8000
    125    124    149   1    110.7000    313.8000
    148    124    149   1    107.8000    276.1440
    124    125    126   1    112.7000    488.2728
    124    125    150   1    110.7000    313.8000
    124    125    151   1    110.7000    313.8000
    126    125    150   1    110.7000    313.8000
    126    125    151   1    110.7000    313.8000
    150    125    151   1    107.8000    276.1440
    125    126    127   1    112.7000    488.2728
    125    126    152   1    110.7000    313.8000
    125    126    153   1    110.7000    313.8000
    127    126    152   1    110.7000    313.8000
    127    126    153   1    110.7000    313.8000
    152    126    153   1    107.8000    276.1440
    126    127    128   1    112.7000    488.2728
    126    127    154   1    110.7000    313.8000
    126    127    155   1    110.7000    313.8000
    128    127    154   1    110.7000    313.8000
    128    127    155   1    110.7000    313.8000
    154    127    155   1    107.8000    276.1440
    127    128    129   1    112.7000    488.2728
    127    128    156   1    110.7000    313.8000
    127    128    157   1    110.7000    313.8000
    129    128    156   1    110.7000    313.8000
    129    128    157   1    110.7000    313.8000
    156    128    157   1    107.8000    276.1440
    128    129    130   1    112.7000    488.2728
    128    129    158   1    110.7000    313.8000
    128    129    159   1    110.7000    313.8000
    130    129    158   1    110.7000    313.8000
    130    129    159   1    110.7000    313.8000
    158    129    159   1    107.8000    276.1440
    129    130    131   1    112.7000    488.2728
    129    130    160   1    110.7000    313.8000
    129    130    161   1    110.7000    313.8000
    131    130    160   1    110.7000    313.8000
    131    130    161   1    110.7000    313.8000
    160    130    161   1    107.8000    276.1440
    130    131    132   1    112.7000    488.2728
    130    131    162   1    110.7000    313.8000
    130    131    163   1    110.7000    313.8000
    132    131    162   1    110.7000    313.8000
    132    131    163   1    110.7000    313.8000
    162    131    163   1    107.8000    276.1440
    131    132    133   1    109.5000    418.4000
    131    132    164   1    110.7000    313.8000
    131    132    165   1    110.7000    313.8000
    133    132    164   1    109.5000    292.8800
    133    132    165   1    109.5000    292.8800
    164    132    165   1    107.8000    276.1440
    132    133    134   1    116.9000    694.5440
    133    134    135   1    123.4000    694.5440
    133    134    136   1    111.4000    677.8080
    135    134    136   1    120.4000    669.4400
    134    136    137   1    111.1000    527.1840
    134    136    166   1    109.5000    292.8800
    134    136    167   1    109.5000    292.8800
    137    136    166   1    110.7000    313.8000
    137    136    167   1    110.7000    313.8000
    166    136    167   1    107.8000    276.1440
    136    137    138   1    112.7000    488.2728
    136    137    168   1    110.7000    313.8000
    136    137    169   1    110.7000    313.8000
    138    137    168   1    110.7000    313.8000
    138    137    169   1    110.7000    313.8000
    168    137    169   1    107.8000    276.1440
    137    138    139   1    112.7000    488.2728
    137    138    170   1    110.7000    313.8000
    137    138    171   1    110.7000    313.8000
    139    138    170   1    110.7000    313.8000
    139    138    171   1    110.7000    313.8000
    170    138    171   1    107.8000    276.1440
    138    139    140   1    112.7000    488.2728
    138    139    172   1    110.7000    313.8000
    138    139    173   1    110.7000    313.8000
    140    139    172   1    110.7000    313.8000
    140    139    173   1    110.7000    313.8000
    172    139    173   1    107.8000    276.1440
    139    140    141   1    112.7000    488.2728
    139    140    174   1    110.7000    313.8000
    139    140    175   1    110.7000    313.8000
    141    140    174   1    110.7000    313.8000
    141    140    175   1    110.7000    313.8000
    174    140    175   1    107.8000    276.1440
    140    141    142   1    112.7000    488.2728
    140    141    176   1    110.7000    313.8000
    140    141    177   1    110.7000    313.8000
    142    141    176   1    110.7000    313.8000
    142    141    177   1    110.7000    313.8000
    176    141    177   1    107.8000    276.1440
    141    142    143   1    112.7000    488.2728
    141    142    178   1    110.7000    313.8000
    141    142    179   1    110.7000    313.8000
    143    142    178   1    110.7000    313.8000
    143    142    179   1    110.7000    313.8000
    178    142    179   1    107.8000    276.1440
    142    143    144   1    111.1000    527.1840
    142    143    180   1    110.7000    313.8000
    142    143    181   1    110.7000    313.8000
    144    143    180   1    109.5000    292.8800
    144    143    181   1    109.5000    292.8800
    180    143    181   1    107.8000    276.1440
    143    144    145   1    120.4000    669.4400
    143    144    182   1    111.4000    677.8080
    145    144    182   1    123.4000    694.5440
    144    182    183   1    116.9000    694.5440
    182    183    184   1    109.5000    418.4000
    182    183    206   1    109.5000    292.8800
    182    183    207   1    109.5000    292.8800
    184    183    206   1    110.7000    313.8000
    184    183    207   1    110.7000    313.8000
    206    183    207   1    107.8000    276.1440
    183    184    185   1    112.7000    488.2728
    183    184    208   1    110.7000    313.8000
    183    184    209   1    110.7000    313.8000
    185    184    208   1    110.7000    313.8000
    185    184    209   1    110.7000    313.8000
    208    184    209   1    107.8000    276.1440
    184    185    186   1    112.7000    488.2728
    184    185    210   1    110.7000    313.8000
    184    185    211   1    110.7000    313.8000
    186    185    210   1    110.7000    313.8000
    186    185    211   1    110.7000    313.8000
    210    185    211   1    107.8000    276.1440
    185    186    187   1    112.7000    488.2728
    185    186    212   1    110.7000    313.8000
    185    186    213   1    110.7000    313.8000
    187    186    212   1    110.7000    313.8000
    187    186    213   1    110.7000    313.8000
    212    186    213   1    107.8000    276.1440
    186    187    188   1    112.7000    488.2728
    186    187    214   1    110.7000    313.8000
    186    187    215   1    110.7000    313.8000
    188    187    214   1    110.7000    313.8000
    188    187    215   1    110.7000    313.8000
    214    187    215   1    107.8000    276.1440
    187    188    189   1    112.7000    488.2728
    187    188    216   1    110.7000    313.8000
    187    188    217   1    110.7000    313.8000
    189    188    216   1    110.7000    313.8000
    189    188    217   1    110.7000    313.8000
    216    188    217   1    107.8000    276.1440
    188    189    190   1    112.7000    488.2728
    188    189    218   1    110.7000    313.8000
    188    189    219   1    110.7000    313.8000
    190    189    218   1    110.7000    313.8000
    190    189    219   1    110.7000    313.8000
    218    189    219   1    107.8000    276.1440
    189    190    191   1    112.7000    488.2728
    189    190    220   1    110.7000    313.8000
    189    190    221   1    110.7000    313.8000
    191    190    220   1    110.7000    313.8000
    191    190    221   1    110.7000    313.8000
    220    190    221   1    107.8000    276.1440
    190    191    192   1    112.7000    488.2728
    190    191    222   1    110.7000    313.8000
    190    191    223   1    110.7000    313.8000
    192    191    222   1    110.7000    313.8000
    192    191    223   1    110.7000    313.8000
    222    191    223   1    107.8000    276.1440
    191    192    193   1    109.5000    418.4000
    191    192    224   1    110.7000    313.8000
    191    192    225   1    110.7000    313.8000
    193    192    224   1    109.5000    292.8800
    193    192    225   1    109.5000    292.8800
    224    192    225   1    107.8000    276.1440
    192    193    194   1    116.9000    694.5440
    193    194    195   1    123.4000    694.5440
    193    194    196   1    111.4000    677.8080
    195    194    196   1    120.4000    669.4400
    194    196    197   1    111.1000    527.1840
    194    196    226   1    109.5000    292.8800
    194    196    227   1    109.5000    292.8800
    197    196    226   1    110.7000    313.8000
    197    196    227   1    110.7000    313.8000
    226    196    227   1    107.8000    276.1440
    196    197    198   1    112.7000    488.2728
    196    197    228   1    110.7000    313.8000
    196    197    229   1    110.7000    313.8000
    198    197    228   1    110.7000    313.8000
    198    197    229   1    110.7000    313.8000
    228    197    229   1    107.8000    276.1440
    197    198    199   1    112.7000    488.2728
    197    198    230   1    110.7000    313.8000
    197    198    231   1    110.7000    313.8000
    199    198    230   1    110.7000    313.8000
    199    198    231   1    110.7000    313.8000
    230    198    231   1    107.8000    276.1440
    198    199    200   1    112.7000    488.2728
    198    199    232   1    110.7000    313.8000
    198    199    233   1    110.7000    313.8000
    200    199    232   1    110.7000    313.8000
    200    199    233   1    110.7000    313.8000
    232    199    233   1    107.8000    276.1440
    199    200    201   1    112.7000    488.2728
    199    200    234   1    110.7000    313.8000
    199    200    235   1    110.7000    313.8000
    201    200    234   1    110.7000    313.8000
    201    200    235   1    110.7000    313.8000
    234    200    235   1    107.8000    276.1440
    200    201    202   1    112.7000    488.2728
    200    201    236   1    110.7000    313.8000
    200    201    237   1    110.7000    313.8000
    202    201    236   1    110.7000    313.8000
    202    201    237   1    110.7000    313.8000
    236    201    237   1    107.8000    276.1440
    201    202    203   1    112.7000    488.2728
    201    202    238   1    110.7000    313.8000
    201    202    239   1    110.7000    313.8000
    203    202    238   1    110.7000    313.8000
    203    202    239   1    110.7000    313.8000
    238    202    239   1    107.8000    276.1440
    202    203    204   1    111.1000    527.1840
    202    203    240   1    110.7000    313.8000
    202    203    241   1    110.7000    313.8000
    204    203    240   1    109.5000    292.8800
    204    203    241   1    109.5000    292.8800
    240    203    241   1    107.8000    276.1440
    203    204    205   1    120.4000    669.4400
    203    204    242   1    111.4000    677.8080
    205    204    242   1    123.4000    694.5440
    204    242    243   1    116.9000    694.5440
    242    243    244   1    109.5000    418.4000
    242    243    266   1    109.5000    292.8800
    242    243    267   1    109.5000    292.8800
    244    243    266   1    110.7000    313.8000
    244    243    267   1    110.7000    313.8000
    266    243    267   1    107.8000    276.1440
    243    244    245   1    112.7000    488.2728
    243    244    268   1    110.7000    313.8000
    243    244    269   1    110.7000    313.8000
    245    244    268   1    110.7000    313.8000
    245    244    269   1    110.7000    313.8000
    268    244    269   1    107.8000    276.1440
    244    245    246   1    112.7000    488.2728
    244    245    270   1    110.7000    313.8000
    244    245    271   1    110.7000    313.8000
    246    245    270   1    110.7000    313.8000
    246    245    271   1    110.7000    313.8000
    270    245    271   1    107.8000    276.1440
    245    246    247   1    112.7000    488.2728
    245    246    272   1    110.7000    313.8000
    245    246    273   1    110.7000    313.8000
    247    246    272   1    110.7000    313.8000
    247    246    273   1    110.7000    313.8000
    272    246    273   1    107.8000    276.1440
    246    247    248   1    112.7000    488.2728
    246    247    274   1    110.7000    313.8000
    246    247    275   1    110.7000    313.8000
    248    247    274   1    110.7000    313.8000
    248    247    275   1    110.7000    313.8000
    274    247    275   1    107.8000    276.1440
    247    248    249   1    112.7000    488.2728
    247    248    276   1    110.7000    313.8000
    247    248    277   1    110.7000    313.8000
    249    248    276   1    110.7000    313.8000
    249    248    277   1    110.7000    313.8000
    276    248    277   1    107.8000    276.1440
    248    249    250   1    112.7000    488.2728
    248    249    278   1    110.7000    313.8000
    248    249    279   1    110.7000    313.8000
    250    249    278   1    110.7000    313.8000
    250    249    279   1    110.7000    313.8000
    278    249    279   1    107.8000    276.1440
    249    250    251   1    112.7000    488.2728
    249    250    280   1    110.7000    313.8000
    249    250    281   1    110.7000    313.8000
    251    250    280   1    110.7000    313.8000
    251    250    281   1    110.7000    313.8000
    280    250    281   1    107.8000    276.1440
    250    251    252   1    112.7000    488.2728
    250    251    282   1    110.7000    313.8000
    250    251    283   1    110.7000    313.8000
    252    251    282   1    110.7000    313.8000
    252    251    283   1    110.7000    313.8000
    282    251    283   1    107.8000    276.1440
    251    252    253   1    109.5000    418.4000
    251    252    284   1    110.7000    313.8000
    251    252    285   1    110.7000    313.8000
    253    252    284   1    109.5000    292.8800
    253    252    285   1    109.5000    292.8800
    284    252    285   1    107.8000    276.1440
    252    253    254   1    116.9000    694.5440
    253    254    255   1    123.4000    694.5440
    253    254    256   1    111.4000    677.8080
    255    254    256   1    120.4000    669.4400
    254    256    257   1    111.1000    527.1840
    254    256    286   1    109.5000    292.8800
    254    256    287   1    109.5000    292.8800
    257    256    286   1    110.7000    313.8000
    257    256    287   1    110.7000    313.8000
    286    256    287   1    107.8000    276.1440
    256    257    258   1    112.7000    488.2728
    256    257    288   1    110.7000    313.8000
    256    257    289   1    110.7000    313.8000
    258    257    288   1    110.7000    313.8000
    258    257    289   1    110.7000    313.8000
    288    257    289   1    107.8000    276.1440
    257    258    259   1    112.7000    488.2728
    257    258    290   1    110.7000    313.8000
    257    258    291   1    110.7000    313.8000
    259    258    290   1    110.7000    313.8000
    259    258    291   1    110.7000    313.8000
    290    258    291   1    107.8000    276.1440
    258    259    260   1    112.7000    488.2728
    258    259    292   1    110.7000    313.8000
    258    259    293   1    110.7000    313.8000
    260    259    292   1    110.7000    313.8000
    260    259    293   1    110.7000    313.8000
    292    259    293   1    107.8000    276.1440
    259    260    261   1    112.7000    488.2728
    259    260    294   1    110.7000    313.8000
    259    260    295   1    110.7000    313.8000
    261    260    294   1    110.7000    313.8000
    261    260    295   1    110.7000    313.8000
    294    260    295   1    107.8000    276.1440
    260    261    262   1    112.7000    488.2728
    260    261    296   1    110.7000    313.8000
    260    261    297   1    110.7000    313.8000
    262    261    296   1    110.7000    313.8000
    262    261    297   1    110.7000    313.8000
    296    261    297   1    107.8000    276.1440
    261    262    263   1    112.7000    488.2728
    261    262    298   1    110.7000    313.8000
    261    262    299   1    110.7000    313.8000
    263    262    298   1    110.7000    313.8000
    263    262    299   1    110.7000    313.8000
    298    262    299   1    107.8000    276.1440
    262    263    264   1    111.1000    527.1840
    262    263    300   1    110.7000    313.8000
    262    263    301   1    110.7000    313.8000
    264    263    300   1    109.5000    292.8800
    264    263    301   1    109.5000    292.8800
    300    263    301   1    107.8000    276.1440
    263    264    265   1    120.4000    669.4400
    263    264    302   1    111.4000    677.8080
    265    264    302   1    123.4000    694.5440
    264    302    303   1    116.9000    694.5440
    302    303    304   1    109.5000    418.4000
    302    303    326   1    109.5000    292.8800
    302    303    327   1    109.5000    292.8800
    304    303    326   1    110.7000    313.8000
    304    303    327   1    110.7000    313.8000
    326    303    327   1    107.8000    276.1440
    303    304    305   1    112.7000    488.2728
    303    304    328   1    110.7000    313.8000
    303    304    329   1    110.7000    313.8000
    305    304    328   1    110.7000    313.8000
    305    304    329   1    110.7000    313.8000
    328    304    329   1    107.8000    276.1440
    304    305    306   1    112.7000    488.2728
    304    305    330   1    110.7000    313.8000
    304    305    331   1    110.7000    313.8000
    306    305    330   1    110.7000    313.8000
    306    305    331   1    110.7000    313.8000
    330    305    331   1    107.8000    276.1440
    305    306    307   1    112.7000    488.2728
    305    306    332   1    110.7000    313.8000
    305    306    333   1    110.7000    313.8000
    307    306    332   1    110.7000    313.8000
    307    306    333   1    110.7000    313.8000
    332    306    333   1    107.8000    276.1440
    306    307    308   1    112.7000    488.2728
    306    307    334   1    110.7000    313.8000
    306    307    335   1    110.7000    313.8000
    308    307    334   1    110.7000    313.8000
    308    307    335   1    110.7000    313.8000
    334    307    335   1    107.8000    276.1440
    307    308    309   1    112.7000    488.2728
    307    308    336   1    110.7000    313.8000
    307    308    337   1    110.7000    313.8000
    309    308    336   1    110.7000    313.8000
    309    308    337   1    110.7000    313.8000
    336    308    337   1    107.8000    276.1440
    308    309    310   1    112.7000    488.2728
    308    309    338   1    110.7000    313.8000
    308    309    339   1    110.7000    313.8000
    310    309    338   1    110.7000    313.8000
    310    309    339   1    110.7000    313.8000
    338    309    339   1    107.8000    276.1440
    309    310    311   1    112.7000    488.2728
    309    310    340   1    110.7000    313.8000
    309    310    341   1    110.7000    313.8000
    311    310    340   1    110.7000    313.8000
    311    310    341   1    110.7000    313.8000
    340    310    341   1    107.8000    276.1440
    310    311    312   1    112.7000    488.2728
    310    311    342   1    110.7000    313.8000
    310    311    343   1    110.7000    313.8000
    312    311    342   1    110.7000    313.8000
    312    311    343   1    110.7000    313.8000
    342    311    343   1    107.8000    276.1440
    311    312    313   1    109.5000    418.4000
    311    312    344   1    110.7000    313.8000
    311    312    345   1    110.7000    313.8000
    313    312    344   1    109.5000    292.8800
    313    312    345   1    109.5000    292.8800
    344    312    345   1    107.8000    276.1440
    312    313    314   1    116.9000    694.5440
    313    314    315   1    123.4000    694.5440
    313    314    316   1    111.4000    677.8080
    315    314    316   1    120.4000    669.4400
    314    316    317   1    111.1000    527.1840
    314    316    346   1    109.5000    292.8800
    314    316    347   1    109.5000    292.8800
    317    316    346   1    110.7000    313.8000
    317    316    347   1    110.7000    313.8000
    346    316    347   1    107.8000    276.1440
    316    317    318   1    112.7000    488.2728
    316    317    348   1    110.7000    313.8000
    316    317    349   1    110.7000    313.8000
    318    317    348   1    110.7000    313.8000
    318    317    349   1    110.7000    313.8000
    348    317    349   1    107.8000    276.1440
    317    318    319   1    112.7000    488.2728
    317    318    350   1    110.7000    313.8000
    317    318    351   1    110.7000    313.8000
    319    318    350   1    110.7000    313.8000
    319    318    351   1    110.7000    313.8000
    350    318    351   1    107.8000    276.1440
    318    319    320   1    112.7000    488.2728
    318    319    352   1    110.7000    313.8000
    318    319    353   1    110.7000    313.8000
    320    319    352   1    110.7000    313.8000
    320    319    353   1    110.7000    313.8000
    352    319    353   1    107.8000    276.1440
    319    320    321   1    112.7000    488.2728
    319    320    354   1    110.7000    313.8000
    319    320    355   1    110.7000    313.8000
    321    320    354   1    110.7000    313.8000
    321    320    355   1    110.7000    313.8000
    354    320    355   1    107.8000    276.1440
    320    321    322   1    112.7000    488.2728
    320    321    356   1    110.7000    313.8000
    320    321    357   1    110.7000    313.8000
    322    321    356   1    110.7000    313.8000
    322    321    357   1    110.7000    313.8000
    356    321    357   1    107.8000    276.1440
    321    322    323   1    112.7000    488.2728
    321    322    358   1    110.7000    313.8000
    321    322    359   1    110.7000    313.8000
    323    322    358   1    110.7000    313.8000
    323    322    359   1    110.7000    313.8000
    358    322    359   1    107.8000    276.1440
    322    323    324   1    111.1000    527.1840
    322    323    360   1    110.7000    313.8000
    322    323    361   1    110.7000    313.8000
    324    323    360   1    109.5000    292.8800
    324    323    361   1    109.5000    292.8800
    360    323    361   1    107.8000    276.1440
    323    324    325   1    120.4000    669.4400
    323    324    362   1    111.4000    677.8080
    325    324    362   1    123.4000    694.5440
    324    362    363   1    116.9000    694.5440
    362    363    364   1    109.5000    418.4000
    362    363    386   1    109.5000    292.8800
    362    363    387   1    109.5000    292.8800
    364    363    386   1    110.7000    313.8000
    364    363    387   1    110.7000    313.8000
    386    363    387   1    107.8000    276.1440
    363    364    365   1    112.7000    488.2728
    363    364    388   1    110.7000    313.8000
    363    364    389   1    110.7000    313.8000
    365    364    388   1    110.7000    313.8000
    365    364    389   1    110.7000    313.8000
    388    364    389   1    107.8000    276.1440
    364    365    366   1    112.7000    488.2728
    364    365    390   1    110.7000    313.8000
    364    365    391   1    110.7000    313.8000
    366    365    390   1    110.7000    313.8000
    366    365    391   1    110.7000    313.8000
    390    365    391   1    107.8000    276.1440
    365    366    367   1    112.7000    488.2728
    365    366    392   1    110.7000    313.8000
    365    366    393   1    110.7000    313.8000
    367    366    392   1    110.7000    313.8000
    367    366    393   1    110.7000    313.8000
    392    366    393   1    107.8000    276.1440
    366    367    368   1    112.7000    488.2728
    366    367    394   1    110.7000    313.8000
    366    367    395   1    110.7000    313.8000
    368    367    394   1    110.7000    313.8000
    368    367    395   1    110.7000    313.8000
    394    367    395   1    107.8000    276.1440
    367    368    369   1    112.7000    488.2728
    367    368    396   1    110.7000    313.8000
    367    368    397   1    110.7000    313.8000
    369    368    396   1    110.7000    313.8000
    369    368    397   1    110.7000    313.8000
    396    368    397   1    107.8000    276.1440
    368    369    370   1    112.7000    488.2728
    368    369    398   1    110.7000    313.8000
    368    369    399   1    110.7000    313.8000
    370    369    398   1    110.7000    313.8000
    370    369    399   1    110.7000    313.8000
    398    369    399   1    107.8000    276.1440
    369    370    371   1    112.7000    488.2728
    369    370    400   1    110.7000    313.8000
    369    370    401   1    110.7000    313.8000
    371    370    400   1    110.7000    313.8000
    371    370    401   1    110.7000    313.8000
    400    370    401   1    107.8000    276.1440
    370    371    372   1    112.7000    488.2728
    370    371    402   1    110.7000    313.8000
    370    371    403   1    110.7000    313.8000
    372    371    402   1    110.7000    313.8000
    372    371    403   1    110.7000    313.8000
    402    371    403   1    107.8000    276.1440
    371    372    373   1    109.5000    418.4000
    371    372    404   1    110.7000    313.8000
    371    372    405   1    110.7000    313.8000
    373    372    404   1    109.5000    292.8800
    373    372    405   1    109.5000    292.8800
    404    372    405   1    107.8000    276.1440
    372    373    374   1    116.9000    694.5440
    373    374    375   1    123.4000    694.5440
    373    374    376   1    111.4000    677.8080
    375    374    376   1    120.4000    669.4400
    374    376    377   1    111.1000    527.1840
    374    376    406   1    109.5000    292.8800
    374    376    407   1    109.5000    292.8800
    377    376    406   1    110.7000    313.8000
    377    376    407   1    110.7000    313.8000
    406    376    407   1    107.8000    276.1440
    376    377    378   1    112.7000    488.2728
    376    377    408   1    110.7000    313.8000
    376    377    409   1    110.7000    313.8000
    378    377    408   1    110.7000    313.8000
    378    377    409   1    110.7000    313.8000
    408    377    409   1    107.8000    276.1440
    377    378    379   1    112.7000    488.2728
    377    378    410   1    110.7000    313.8000
    377    378    411   1    110.7000    313.8000
    379    378    410   1    110.7000    313.8000
    379    378    411   1    110.7000    313.8000
    410    378    411   1    107.8000    276.1440
    378    379    380   1    112.7000    488.2728
    378    379    412   1    110.7000    313.8000
    378    379    413   1    110.7000    313.8000
    380    379    412   1    110.7000    313.8000
    380    379    413   1    110.7000    313.8000
    412    379    413   1    107.8000    276.1440
    379    380    381   1    112.7000    488.2728
    379    380    414   1    110.7000    313.8000
    379    380    415   1    110.7000    313.8000
    381    380    414   1    110.7000    313.8000
    381    380    415   1    110.7000    313.8000
    414    380    415   1    107.8000    276.1440
    380    381    382   1    112.7000    488.2728
    380    381    416   1    110.7000    313.8000
    380    381    417   1    110.7000    313.8000
    382    381    416   1    110.7000    313.8000
    382    381    417   1    110.7000    313.8000
    416    381    417   1    107.8000    276.1440
    381    382    383   1    112.7000    488.2728
    381    382    418   1    110.7000    313.8000
    381    382    419   1    110.7000    313.8000
    383    382    418   1    110.7000    313.8000
    383    382    419   1    110.7000    313.8000
    418    382    419   1    107.8000    276.1440
    382    383    384   1    111.1000    527.1840
    382    383    420   1    110.7000    313.8000
    382    383    421   1    110.7000    313.8000
    384    383    420   1    109.5000    292.8800
    384    383    421   1    109.5000    292.8800
    420    383    421   1    107.8000    276.1440
    383    384    385   1    120.4000    669.4400
    383    384    422   1    111.4000    677.8080
    385    384    422   1    123.4000    694.5440
    384    422    423   1    116.9000    694.5440
    422    423    424   1    109.5000    418.4000
    422    423    446   1    109.5000    292.8800
    422    423    447   1    109.5000    292.8800
    424    423    446   1    110.7000    313.8000
    424    423    447   1    110.7000    313.8000
    446    423    447   1    107.8000    276.1440
    423    424    425   1    112.7000    488.2728
    423    424    448   1    110.7000    313.8000
    423    424    449   1    110.7000    313.8000
    425    424    448   1    110.7000    313.8000
    425    424    449   1    110.7000    313.8000
    448    424    449   1    107.8000    276.1440
    424    425    426   1    112.7000    488.2728
    424    425    450   1    110.7000    313.8000
    424    425    451   1    110.7000    313.8000
    426    425    450   1    110.7000    313.8000
    426    425    451   1    110.7000    313.8000
    450    425    451   1    107.8000    276.1440
    425    426    427   1    112.7000    488.2728
    425    426    452   1    110.7000    313.8000
    425    426    453   1    110.7000    313.8000
    427    426    452   1    110.7000    313.8000
    427    426    453   1    110.7000    313.8000
    452    426    453   1    107.8000    276.1440
    426    427    428   1    112.7000    488.2728
    426    427    454   1    110.7000    313.8000
    426    427    455   1    110.7000    313.8000
    428    427    454   1    110.7000    313.8000
    428    427    455   1    110.7000    313.8000
    454    427    455   1    107.8000    276.1440
    427    428    429   1    112.7000    488.2728
    427    428    456   1    110.7000    313.8000
    427    428    457   1    110.7000    313.8000
    429    428    456   1    110.7000    313.8000
    429    428    457   1    110.7000    313.8000
    456    428    457   1    107.8000    276.1440
    428    429    430   1    112.7000    488.2728
    428    429    458   1    110.7000    313.8000
    428    429    459   1    110.7000    313.8000
    430    429    458   1    110.7000    313.8000
    430    429    459   1    110.7000    313.8000
    458    429    459   1    107.8000    276.1440
    429    430    431   1    112.7000    488.2728
    429    430    460   1    110.7000    313.8000
    429    430    461   1    110.7000    313.8000
    431    430    460   1    110.7000    313.8000
    431    430    461   1    110.7000    313.8000
    460    430    461   1    107.8000    276.1440
    430    431    432   1    112.7000    488.2728
    430    431    462   1    110.7000    313.8000
    430    431    463   1    110.7000    313.8000
    432    431    462   1    110.7000    313.8000
    432    431    463   1    110.7000    313.8000
    462    431    463   1    107.8000    276.1440
    431    432    433   1    109.5000    418.4000
    431    432    464   1    110.7000    313.8000
    431    432    465   1    110.7000    313.8000
    433    432    464   1    109.5000    292.8800
    433    432    465   1    109.5000    292.8800
    464    432    465   1    107.8000    276.1440
    432    433    434   1    116.9000    694.5440
    433    434    435   1    123.4000    694.5440
    433    434    436   1    111.4000    677.8080
    435    434    436   1    120.4000    669.4400
    434    436    437   1    111.1000    527.1840
    434    436    466   1    109.5000    292.8800
    434    436    467   1    109.5000    292.8800
    437    436    466   1    110.7000    313.8000
    437    436    467   1    110.7000    313.8000
    466    436    467   1    107.8000    276.1440
    436    437    438   1    112.7000    488.2728
    436    437    468   1    110.7000    313.8000
    436    437    469   1    110.7000    313.8000
    438    437    468   1    110.7000    313.8000
    438    437    469   1    110.7000    313.8000
    468    437    469   1    107.8000    276.1440
    437    438    439   1    112.7000    488.2728
    437    438    470   1    110.7000    313.8000
    437    438    471   1    110.7000    313.8000
    439    438    470   1    110.7000    313.8000
    439    438    471   1    110.7000    313.8000
    470    438    471   1    107.8000    276.1440
    438    439    440   1    112.7000    488.2728
    438    439    472   1    110.7000    313.8000
    438    439    473   1    110.7000    313.8000
    440    439    472   1    110.7000    313.8000
    440    439    473   1    110.7000    313.8000
    472    439    473   1    107.8000    276.1440
    439    440    441   1    112.7000    488.2728
    439    440    474   1    110.7000    313.8000
    439    440    475   1    110.7000    313.8000
    441    440    474   1    110.7000    313.8000
    441    440    475   1    110.7000    313.8000
    474    440    475   1    107.8000    276.1440
    440    441    442   1    112.7000    488.2728
    440    441    476   1    110.7000    313.8000
    440    441    477   1    110.7000    313.8000
    442    441    476   1    110.7000    313.8000
    442    441    477   1    110.7000    313.8000
    476    441    477   1    107.8000    276.1440
    441    442    443   1    112.7000    488.2728
    441    442    478   1    110.7000    313.8000
    441    442    479   1    110.7000    313.8000
    443    442    478   1    110.7000    313.8000
    443    442    479   1    110.7000    313.8000
    478    442    479   1    107.8000    276.1440
    442    443    444   1    111.1000    527.1840
    442    443    480   1    110.7000    313.8000
    442    443    481   1    110.7000    313.8000
    444    443    480   1    109.5000    292.8800
    444    443    481   1    109.5000    292.8800
    480    443    481   1    107.8000    276.1440
    443    444    445   1    120.4000    669.4400
    443    444    482   1    111.4000    677.8080
    445    444    482   1    123.4000    694.5440
    444    482    483   1    116.9000    694.5440
    482    483    484   1    109.5000    418.4000
    482    483    506   1    109.5000    292.8800
    482    483    507   1    109.5000    292.8800
    484    483    506   1    110.7000    313.8000
    484    483    507   1    110.7000    313.8000
    506    483    507   1    107.8000    276.1440
    483    484    485   1    112.7000    488.2728
    483    484    508   1    110.7000    313.8000
    483    484    509   1    110.7000    313.8000
    485    484    508   1    110.7000    313.8000
    485    484    509   1    110.7000    313.8000
    508    484    509   1    107.8000    276.1440
    484    485    486   1    112.7000    488.2728
    484    485    510   1    110.7000    313.8000
    484    485    511   1    110.7000    313.8000
    486    485    510   1    110.7000    313.8000
    486    485    511   1    110.7000    313.8000
    510    485    511   1    107.8000    276.1440
    485    486    487   1    112.7000    488.2728
    485    486    512   1    110.7000    313.8000
    485    486    513   1    110.7000    313.8000
    487    486    512   1    110.7000    313.8000
    487    486    513   1    110.7000    313.8000
    512    486    513   1    107.8000    276.1440
    486    487    488   1    112.7000    488.2728
    486    487    514   1    110.7000    313.8000
    486    487    515   1    110.7000    313.8000
    488    487    514   1    110.7000    313.8000
    488    487    515   1    110.7000    313.8000
    514    487    515   1    107.8000    276.1440
    487    488    489   1    112.7000    488.2728
    487    488    516   1    110.7000    313.8000
    487    488    517   1    110.7000    313.8000
    489    488    516   1    110.7000    313.8000
    489    488    517   1    110.7000    313.8000
    516    488    517   1    107.8000    276.1440
    488    489    490   1    112.7000    488.2728
    488    489    518   1    110.7000    313.8000
    488    489    519   1    110.7000    313.8000
    490    489    518   1    110.7000    313.8000
    490    489    519   1    110.7000    313.8000
    518    489    519   1    107.8000    276.1440
    489    490    491   1    112.7000    488.2728
    489    490    520   1    110.7000    313.8000
    489    490    521   1    110.7000    313.8000
    491    490    520   1    110.7000    313.8000
    491    490    521   1    110.7000    313.8000
    520    490    521   1    107.8000    276.1440
    490    491    492   1    112.7000    488.2728
    490    491    522   1    110.7000    313.8000
    490    491    523   1    110.7000    313.8000
    492    491    522   1    110.7000    313.8000
    492    491    523   1    110.7000    313.8000
    522    491    523   1    107.8000    276.1440
    491    492    493   1    109.5000    418.4000
    491    492    524   1    110.7000    313.8000
    491    492    525   1    110.7000    313.8000
    493    492    524   1    109.5000    292.8800
    493    492    525   1    109.5000    292.8800
    524    492    525   1    107.8000    276.1440
    492    493    494   1    116.9000    694.5440
    493    494    495   1    123.4000    694.5440
    493    494    496   1    111.4000    677.8080
    495    494    496   1    120.4000    669.4400
    494    496    497   1    111.1000    527.1840
    494    496    526   1    109.5000    292.8800
    494    496    527   1    109.5000    292.8800
    497    496    526   1    110.7000    313.8000
    497    496    527   1    110.7000    313.8000
    526    496    527   1    107.8000    276.1440
    496    497    498   1    112.7000    488.2728
    496    497    528   1    110.7000    313.8000
    496    497    529   1    110.7000    313.8000
    498    497    528   1    110.7000    313.8000
    498    497    529   1    110.7000    313.8000
    528    497    529   1    107.8000    276.1440
    497    498    499   1    112.7000    488.2728
    497    498    530   1    110.7000    313.8000
    497    498    531   1    110.7000    313.8000
    499    498    530   1    110.7000    313.8000
    499    498    531   1    110.7000    313.8000
    530    498    531   1    107.8000    276.1440
    498    499    500   1    112.7000    488.2728
    498    499    532   1    110.7000    313.8000
    498    499    533   1    110.7000    313.8000
    500    499    532   1    110.7000    313.8000
    500    499    533   1    110.7000    313.8000
    532    499    533   1    107.8000    276.1440
    499    500    501   1    112.7000    488.2728
    499    500    534   1    110.7000    313.8000
    499    500    535   1    110.7000    313.8000
    501    500    534   1    110.7000    313.8000
    501    500    535   1    110.7000    313.8000
    534    500    535   1    107.8000    276.1440
    500    501    502   1    112.7000    488.2728
    500    501    536   1    110.7000    313.8000
    500    501    537   1    110.7000    313.8000
    502    501    536   1    110.7000    313.8000
    502    501    537   1    110.7000    313.8000
    536    501    537   1    107.8000    276.1440
    501    502    503   1    112.7000    488.2728
    501    502    538   1    110.7000    313.8000
    501    502    539   1    110.7000    313.8000
    503    502    538   1    110.7000    313.8000
    503    502    539   1    110.7000    313.8000
    538    502    539   1    107.8000    276.1440
    502    503    504   1    111.1000    527.1840
    502    503    540   1    110.7000    313.8000
    502    503    541   1    110.7000    313.8000
    504    503    540   1    109.5000    292.8800
    504    503    541   1    109.5000    292.8800
    540    503    541   1    107.8000    276.1440
    503    504    505   1    120.4000    669.4400
    503    504    542   1    111.4000    677.8080
    505    504    542   1    123.4000    694.5440
    504    542    543   1    116.9000    694.5440
    542    543    544   1    109.5000    418.4000
    542    543    566   1    109.5000    292.8800
    542    543    567   1    109.5000    292.8800
    544    543    566   1    110.7000    313.8000
    544    543    567   1    110.7000    313.8000
    566    543    567   1    107.8000    276.1440
    543    544    545   1    112.7000    488.2728
    543    544    568   1    110.7000    313.8000
    543    544    569   1    110.7000    313.8000
    545    544    568   1    110.7000    313.8000
    545    544    569   1    110.7000    313.8000
    568    544    569   1    107.8000    276.1440
    544    545    546   1    112.7000    488.2728
    544    545    570   1    110.7000    313.8000
    544    545    571   1    110.7000    313.8000
    546    545    570   1    110.7000    313.8000
    546    545    571   1    110.7000    313.8000
    570    545    571   1    107.8000    276.1440
    545    546    547   1    112.7000    488.2728
    545    546    572   1    110.7000    313.8000
    545    546    573   1    110.7000    313.8000
    547    546    572   1    110.7000    313.8000
    547    546    573   1    110.7000    313.8000
    572    546    573   1    107.8000    276.1440
    546    547    548   1    112.7000    488.2728
    546    547    574   1    110.7000    313.8000
    546    547    575   1    110.7000    313.8000
    548    547    574   1    110.7000    313.8000
    548    547    575   1    110.7000    313.8000
    574    547    575   1    107.8000    276.1440
    547    548    549   1    112.7000    488.2728
    547    548    576   1    110.7000    313.8000
    547    548    577   1    110.7000    313.8000
    549    548    576   1    110.7000    313.8000
    549    548    577   1    110.7000    313.8000
    576    548    577   1    107.8000    276.1440
    548    549    550   1    112.7000    488.2728
    548    549    578   1    110.7000    313.8000
    548    549    579   1    110.7000    313.8000
    550    549    578   1    110.7000    313.8000
    550    549    579   1    110.7000    313.8000
    578    549    579   1    107.8000    276.1440
    549    550    551   1    112.7000    488.2728
    549    550    580   1    110.7000    313.8000
    549    550    581   1    110.7000    313.8000
    551    550    580   1    110.7000    313.8000
    551    550    581   1    110.7000    313.8000
    580    550    581   1    107.8000    276.1440
    550    551    552   1    112.7000    488.2728
    550    551    582   1    110.7000    313.8000
    550    551    583   1    110.7000    313.8000
    552    551    582   1    110.7000    313.8000
    552    551    583   1    110.7000    313.8000
    582    551    583   1    107.8000    276.1440
    551    552    553   1    109.5000    418.4000
    551    552    584   1    110.7000    313.8000
    551    552    585   1    110.7000    313.8000
    553    552    584   1    109.5000    292.8800
    553    552    585   1    109.5000    292.8800
    584    552    585   1    107.8000    276.1440
    552    553    554   1    116.9000    694.5440
    553    554    555   1    123.4000    694.5440
    553    554    556   1    111.4000    677.8080
    555    554    556   1    120.4000    669.4400
    554    556    557   1    111.1000    527.1840
    554    556    586   1    109.5000    292.8800
    554    556    587   1    109.5000    292.8800
    557    556    586   1    110.7000    313.8000
    557    556    587   1    110.7000    313.8000
    586    556    587   1    107.8000    276.1440
    556    557    558   1    112.7000    488.2728
    556    557    588   1    110.7000    313.8000
    556    557    589   1    110.7000    313.8000
    558    557    588   1    110.7000    313.8000
    558    557    589   1    110.7000    313.8000
    588    557    589   1    107.8000    276.1440
    557    558    559   1    112.7000    488.2728
    557    558    590   1    110.7000    313.8000
    557    558    591   1    110.7000    313.8000
    559    558    590   1    110.7000    313.8000
    559    558    591   1    110.7000    313.8000
    590    558    591   1    107.8000    276.1440
    558    559    560   1    112.7000    488.2728
    558    559    592   1    110.7000    313.8000
    558    559    593   1    110.7000    313.8000
    560    559    592   1    110.7000    313.8000
    560    559    593   1    110.7000    313.8000
    592    559    593   1    107.8000    276.1440
    559    560    561   1    112.7000    488.2728
    559    560    594   1    110.7000    313.8000
    559    560    595   1    110.7000    313.8000
    561    560    594   1    110.7000    313.8000
    561    560    595   1    110.7000    313.8000
    594    560    595   1    107.8000    276.1440
    560    561    562   1    112.7000    488.2728
    560    561    596   1    110.7000    313.8000
    560    561    597   1    110.7000    313.8000
    562    561    596   1    110.7000    313.8000
    562    561    597   1    110.7000    313.8000
    596    561    597   1    107.8000    276.1440
    561    562    563   1    112.7000    488.2728
    561    562    598   1    110.7000    313.8000
    561    562    599   1    110.7000    313.8000
    563    562    598   1    110.7000    313.8000
    563    562    599   1    110.7000    313.8000
    598    562    599   1    107.8000    276.1440
    562    563    564   1    111.1000    527.1840
    562    563    600   1    110.7000    313.8000
    562    563    601   1    110.7000    313.8000
    564    563    600   1    109.5000    292.8800
    564    563    601   1    109.5000    292.8800
    600    563    601   1    107.8000    276.1440
    563    564    565   1    120.4000    669.4400
    563    564    602   1    111.4000    677.8080
    565    564    602   1    123.4000    694.5440
    564    602    603   1    116.9000    694.5440
    602    603    604   1    109.5000    418.4000
    602    603    626   1    109.5000    292.8800
    602    603    627   1    109.5000    292.8800
    604    603    626   1    110.7000    313.8000
    604    603    627   1    110.7000    313.8000
    626    603    627   1    107.8000    276.1440
    603    604    605   1    112.7000    488.2728
    603    604    628   1    110.7000    313.8000
    603    604    629   1    110.7000    313.8000
    605    604    628   1    110.7000    313.8000
    605    604    629   1    110.7000    313.8000
    628    604    629   1    107.8000    276.1440
    604    605    606   1    112.7000    488.2728
    604    605    630   1    110.7000    313.8000
    604    605    631   1    110.7000    313.8000
    606    605    630   1    110.7000    313.8000
    606    605    631   1    110.7000    313.8000
    630    605    631   1    107.8000    276.1440
    605    606    607   1    112.7000    488.2728
    605    606    632   1    110.7000    313.8000
    605    606    633   1    110.7000    313.8000
    607    606    632   1    110.7000    313.8000
    607    606    633   1    110.7000    313.8000
    632    606    633   1    107.8000    276.1440
    606    607    608   1    112.7000    488.2728
    606    607    634   1    110.7000    313.8000
    606    607    635   1    110.7000    313.8000
    608    607    634   1    110.7000    313.8000
    608    607    635   1    110.7000    313.8000
    634    607    635   1    107.8000    276.1440
    607    608    609   1    112.7000    488.2728
    607    608    636   1    110.7000    313.8000
    607    608    637   1    110.7000    313.8000
    609    608    636   1    110.7000    313.8000
    609    608    637   1    110.7000    313.8000
    636    608    637   1    107.8000    276.1440
    608    609    610   1    112.7000    488.2728
    608    609    638   1    110.7000    313.8000
    608    609    639   1    110.7000    313.8000
    610    609    638   1    110.7000    313.8000
    610    609    639   1    110.7000    313.8000
    638    609    639   1    107.8000    276.1440
    609    610    611   1    112.7000    488.2728
    609    610    640   1    110.7000    313.8000
    609    610    641   1    110.7000    313.8000
    611    610    640   1    110.7000    313.8000
    611    610    641   1    110.7000    313.8000
    640    610    641   1    107.8000    276.1440
    610    611    612   1    112.7000    488.2728
    610    611    642   1    110.7000    313.8000
    610    611    643   1    110.7000    313.8000
    612    611    642   1    110.7000    313.8000
    612    611    643   1    110.7000    313.8000
    642    611    643   1    107.8000    276.1440
    611    612    613   1    109.5000    418.4000
    611    612    644   1    110.7000    313.8000
    611    612    645   1    110.7000    313.8000
    613    612    644   1    109.5000    292.8800
    613    612    645   1    109.5000    292.8800
    644    612    645   1    107.8000    276.1440
    612    613    614   1    116.9000    694.5440
    613    614    615   1    123.4000    694.5440
    613    614    616   1    111.4000    677.8080
    615    614    616   1    120.4000    669.4400
    614    616    617   1    111.1000    527.1840
    614    616    646   1    109.5000    292.8800
    614    616    647   1    109.5000    292.8800
    617    616    646   1    110.7000    313.8000
    617    616    647   1    110.7000    313.8000
    646    616    647   1    107.8000    276.1440
    616    617    618   1    112.7000    488.2728
    616    617    648   1    110.7000    313.8000
    616    617    649   1    110.7000    313.8000
    618    617    648   1    110.7000    313.8000
    618    617    649   1    110.7000    313.8000
    648    617    649   1    107.8000    276.1440
    617    618    619   1    112.7000    488.2728
    617    618    650   1    110.7000    313.8000
    617    618    651   1    110.7000    313.8000
    619    618    650   1    110.7000    313.8000
    619    618    651   1    110.7000    313.8000
    650    618    651   1    107.8000    276.1440
    618    619    620   1    112.7000    488.2728
    618    619    652   1    110.7000    313.8000
    618    619    653   1    110.7000    313.8000
    620    619    652   1    110.7000    313.8000
    620    619    653   1    110.7000    313.8000
    652    619    653   1    107.8000    276.1440
    619    620    621   1    112.7000    488.2728
    619    620    654   1    110.7000    313.8000
    619    620    655   1    110.7000    313.8000
    621    620    654   1    110.7000    313.8000
    621    620    655   1    110.7000    313.8000
    654    620    655   1    107.8000    276.1440
    620    621    622   1    112.7000    488.2728
    620    621    656   1    110.7000    313.8000
    620    621    657   1    110.7000    313.8000
    622    621    656   1    110.7000    313.8000
    622    621    657   1    110.7000    313.8000
    656    621    657   1    107.8000    276.1440
    621    622    623   1    112.7000    488.2728
    621    622    658   1    110.7000    313.8000
    621    622    659   1    110.7000    313.8000
    623    622    658   1    110.7000    313.8000
    623    622    659   1    110.7000    313.8000
    658    622    659   1    107.8000    276.1440
    622    623    624   1    111.1000    527.1840
    622    623    660   1    110.7000    313.8000
    622    623    661   1    110.7000    313.8000
    624    623    660   1    109.5000    292.8800
    624    623    661   1    109.5000    292.8800
    660    623    661   1    107.8000    276.1440
    623    624    625   1    120.4000    669.4400
    623    624    662   1    111.4000    677.8080
    625    624    662   1    123.4000    694.5440
    624    662    663   1    116.9000    694.5440
    662    663    664   1    109.5000    418.4000
    662    663    686   1    109.5000    292.8800
    662    663    687   1    109.5000    292.8800
    664    663    686   1    110.7000    313.8000
    664    663    687   1    110.7000    313.8000
    686    663    687   1    107.8000    276.1440
    663    664    665   1    112.7000    488.2728
    663    664    688   1    110.7000    313.8000
    663    664    689   1    110.7000    313.8000
    665    664    688   1    110.7000    313.8000
    665    664    689   1    110.7000    313.8000
    688    664    689   1    107.8000    276.1440
    664    665    666   1    112.7000    488.2728
    664    665    690   1    110.7000    313.8000
    664    665    691   1    110.7000    313.8000
    666    665    690   1    110.7000    313.8000
    666    665    691   1    110.7000    313.8000
    690    665    691   1    107.8000    276.1440
    665    666    667   1    112.7000    488.2728
    665    666    692   1    110.7000    313.8000
    665    666    693   1    110.7000    313.8000
    667    666    692   1    110.7000    313.8000
    667    666    693   1    110.7000    313.8000
    692    666    693   1    107.8000    276.1440
    666    667    668   1    112.7000    488.2728
    666    667    694   1    110.7000    313.8000
    666    667    695   1    110.7000    313.8000
    668    667    694   1    110.7000    313.8000
    668    667    695   1    110.7000    313.8000
    694    667    695   1    107.8000    276.1440
    667    668    669   1    112.7000    488.2728
    667    668    696   1    110.7000    313.8000
    667    668    697   1    110.7000    313.8000
    669    668    696   1    110.7000    313.8000
    669    668    697   1    110.7000    313.8000
    696    668    697   1    107.8000    276.1440
    668    669    670   1    112.7000    488.2728
    668    669    698   1    110.7000    313.8000
    668    669    699   1    110.7000    313.8000
    670    669    698   1    110.7000    313.8000
    670    669    699   1    110.7000    313.8000
    698    669    699   1    107.8000    276.1440
    669    670    671   1    112.7000    488.2728
    669    670    700   1    110.7000    313.8000
    669    670    701   1    110.7000    313.8000
    671    670    700   1    110.7000    313.8000
    671    670    701   1    110.7000    313.8000
    700    670    701   1    107.8000    276.1440
    670    671    672   1    112.7000    488.2728
    670    671    702   1    110.7000    313.8000
    670    671    703   1    110.7000    313.8000
    672    671    702   1    110.7000    313.8000
    672    671    703   1    110.7000    313.8000
    702    671    703   1    107.8000    276.1440
    671    672    673   1    109.5000    418.4000
    671    672    704   1    110.7000    313.8000
    671    672    705   1    110.7000    313.8000
    673    672    704   1    109.5000    292.8800
    673    672    705   1    109.5000    292.8800
    704    672    705   1    107.8000    276.1440
    672    673    674   1    116.9000    694.5440
    673    674    675   1    123.4000    694.5440
    673    674    676   1    111.4000    677.8080
    675    674    676   1    120.4000    669.4400
    674    676    677   1    111.1000    527.1840
    674    676    706   1    109.5000    292.8800
    674    676    707   1    109.5000    292.8800
    677    676    706   1    110.7000    313.8000
    677    676    707   1    110.7000    313.8000
    706    676    707   1    107.8000    276.1440
    676    677    678   1    112.7000    488.2728
    676    677    708   1    110.7000    313.8000
    676    677    709   1    110.7000    313.8000
    678    677    708   1    110.7000    313.8000
    678    677    709   1    110.7000    313.8000
    708    677    709   1    107.8000    276.1440
    677    678    679   1    112.7000    488.2728
    677    678    710   1    110.7000    313.8000
    677    678    711   1    110.7000    313.8000
    679    678    710   1    110.7000    313.8000
    679    678    711   1    110.7000    313.8000
    710    678    711   1    107.8000    276.1440
    678    679    680   1    112.7000    488.2728
    678    679    712   1    110.7000    313.8000
    678    679    713   1    110.7000    313.8000
    680    679    712   1    110.7000    313.8000
    680    679    713   1    110.7000    313.8000
    712    679    713   1    107.8000    276.1440
    679    680    681   1    112.7000    488.2728
    679    680    714   1    110.7000    313.8000
    679    680    715   1    110.7000    313.8000
    681    680    714   1    110.7000    313.8000
    681    680    715   1    110.7000    313.8000
    714    680    715   1    107.8000    276.1440
    680    681    682   1    112.7000    488.2728
    680    681    716   1    110.7000    313.8000
    680    681    717   1    110.7000    313.8000
    682    681    716   1    110.7000    313.8000
    682    681    717   1    110.7000    313.8000
    716    681    717   1    107.8000    276.1440
    681    682    683   1    112.7000    488.2728
    681    682    718   1    110.7000    313.8000
    681    682    719   1    110.7000    313.8000
    683    682    718   1    110.7000    313.8000
    683    682    719   1    110.7000    313.8000
    718    682    719   1    107.8000    276.1440
    682    683    684   1    111.1000    527.1840
    682    683    720   1    110.7000    313.8000
    682    683    721   1    110.7000    313.8000
    684    683    720   1    109.5000    292.8800
    684    683    721   1    109.5000    292.8800
    720    683    721   1    107.8000    276.1440
    683    684    685   1    120.4000    669.4400
    683    684    722   1    111.4000    677.8080
    685    684    722   1    123.4000    694.5440
    684    722    723   1    116.9000    694.5440
    722    723    724   1    109.5000    418.4000
    722    723    746   1    109.5000    292.8800
    722    723    747   1    109.5000    292.8800
    724    723    746   1    110.7000    313.8000
    724    723    747   1    110.7000    313.8000
    746    723    747   1    107.8000    276.1440
    723    724    725   1    112.7000    488.2728
    723    724    748   1    110.7000    313.8000
    723    724    749   1    110.7000    313.8000
    725    724    748   1    110.7000    313.8000
    725    724    749   1    110.7000    313.8000
    748    724    749   1    107.8000    276.1440
    724    725    726   1    112.7000    488.2728
    724    725    750   1    110.7000    313.8000
    724    725    751   1    110.7000    313.8000
    726    725    750   1    110.7000    313.8000
    726    725    751   1    110.7000    313.8000
    750    725    751   1    107.8000    276.1440
    725    726    727   1    112.7000    488.2728
    725    726    752   1    110.7000    313.8000
    725    726    753   1    110.7000    313.8000
    727    726    752   1    110.7000    313.8000
    727    726    753   1    110.7000    313.8000
    752    726    753   1    107.8000    276.1440
    726    727    728   1    112.7000    488.2728
    726    727    754   1    110.7000    313.8000
    726    727    755   1    110.7000    313.8000
    728    727    754   1    110.7000    313.8000
    728    727    755   1    110.7000    313.8000
    754    727    755   1    107.8000    276.1440
    727    728    729   1    112.7000    488.2728
    727    728    756   1    110.7000    313.8000
    727    728    757   1    110.7000    313.8000
    729    728    756   1    110.7000    313.8000
    729    728    757   1    110.7000    313.8000
    756    728    757   1    107.8000    276.1440
    728    729    730   1    112.7000    488.2728
    728    729    758   1    110.7000    313.8000
    728    729    759   1    110.7000    313.8000
    730    729    758   1    110.7000    313.8000
    730    729    759   1    110.7000    313.8000
    758    729    759   1    107.8000    276.1440
    729    730    731   1    112.7000    488.2728
    729    730    760   1    110.7000    313.8000
    729    730    761   1    110.7000    313.8000
    731    730    760   1    110.7000    313.8000
    731    730    761   1    110.7000    313.8000
    760    730    761   1    107.8000    276.1440
    730    731    732   1    112.7000    488.2728
    730    731    762   1    110.7000    313.8000
    730    731    763   1    110.7000    313.8000
    732    731    762   1    110.7000    313.8000
    732    731    763   1    110.7000    313.8000
    762    731    763   1    107.8000    276.1440
    731    732    733   1    109.5000    418.4000
    731    732    764   1    110.7000    313.8000
    731    732    765   1    110.7000    313.8000
    733    732    764   1    109.5000    292.8800
    733    732    765   1    109.5000    292.8800
    764    732    765   1    107.8000    276.1440
    732    733    734   1    116.9000    694.5440
    733    734    735   1    123.4000    694.5440
    733    734    736   1    111.4000    677.8080
    735    734    736   1    120.4000    669.4400
    734    736    737   1    111.1000    527.1840
    734    736    766   1    109.5000    292.8800
    734    736    767   1    109.5000    292.8800
    737    736    766   1    110.7000    313.8000
    737    736    767   1    110.7000    313.8000
    766    736    767   1    107.8000    276.1440
    736    737    738   1    112.7000    488.2728
    736    737    768   1    110.7000    313.8000
    736    737    769   1    110.7000    313.8000
    738    737    768   1    110.7000    313.8000
    738    737    769   1    110.7000    313.8000
    768    737    769   1    107.8000    276.1440
    737    738    739   1    112.7000    488.2728
    737    738    770   1    110.7000    313.8000
    737    738    771   1    110.7000    313.8000
    739    738    770   1    110.7000    313.8000
    739    738    771   1    110.7000    313.8000
    770    738    771   1    107.8000    276.1440
    738    739    740   1    112.7000    488.2728
    738    739    772   1    110.7000    313.8000
    738    739    773   1    110.7000    313.8000
    740    739    772   1    110.7000    313.8000
    740    739    773   1    110.7000    313.8000
    772    739    773   1    107.8000    276.1440
    739    740    741   1    112.7000    488.2728
    739    740    774   1    110.7000    313.8000
    739    740    775   1    110.7000    313.8000
    741    740    774   1    110.7000    313.8000
    741    740    775   1    110.7000    313.8000
    774    740    775   1    107.8000    276.1440
    740    741    742   1    112.7000    488.2728
    740    741    776   1    110.7000    313.8000
    740    741    777   1    110.7000    313.8000
    742    741    776   1    110.7000    313.8000
    742    741    777   1    110.7000    313.8000
    776    741    777   1    107.8000    276.1440
    741    742    743   1    112.7000    488.2728
    741    742    778   1    110.7000    313.8000
    741    742    779   1    110.7000    313.8000
    743    742    778   1    110.7000    313.8000
    743    742    779   1    110.7000    313.8000
    778    742    779   1    107.8000    276.1440
    742    743    744   1    111.1000    527.1840
    742    743    780   1    110.7000    313.8000
    742    743    781   1    110.7000    313.8000
    744    743    780   1    109.5000    292.8800
    744    743    781   1    109.5000    292.8800
    780    743    781   1    107.8000    276.1440
    743    744    745   1    120.4000    669.4400
    743    744    782   1    111.4000    677.8080
    745    744    782   1    123.4000    694.5440
    744    782    783   1    116.9000    694.5440
    782    783    784   1    109.5000    418.4000
    782    783    806   1    109.5000    292.8800
    782    783    807   1    109.5000    292.8800
    784    783    806   1    110.7000    313.8000
    784    783    807   1    110.7000    313.8000
    806    783    807   1    107.8000    276.1440
    783    784    785   1    112.7000    488.2728
    783    784    808   1    110.7000    313.8000
    783    784    809   1    110.7000    313.8000
    785    784    808   1    110.7000    313.8000
    785    784    809   1    110.7000    313.8000
    808    784    809   1    107.8000    276.1440
    784    785    786   1    112.7000    488.2728
    784    785    810   1    110.7000    313.8000
    784    785    811   1    110.7000    313.8000
    786    785    810   1    110.7000    313.8000
    786    785    811   1    110.7000    313.8000
    810    785    811   1    107.8000    276.1440
    785    786    787   1    112.7000    488.2728
    785    786    812   1    110.7000    313.8000
    785    786    813   1    110.7000    313.8000
    787    786    812   1    110.7000    313.8000
    787    786    813   1    110.7000    313.8000
    812    786    813   1    107.8000    276.1440
    786    787    788   1    112.7000    488.2728
    786    787    814   1    110.7000    313.8000
    786    787    815   1    110.7000    313.8000
    788    787    814   1    110.7000    313.8000
    788    787    815   1    110.7000    313.8000
    814    787    815   1    107.8000    276.1440
    787    788    789   1    112.7000    488.2728
    787    788    816   1    110.7000    313.8000
    787    788    817   1    110.7000    313.8000
    789    788    816   1    110.7000    313.8000
    789    788    817   1    110.7000    313.8000
    816    788    817   1    107.8000    276.1440
    788    789    790   1    112.7000    488.2728
    788    789    818   1    110.7000    313.8000
    788    789    819   1    110.7000    313.8000
    790    789    818   1    110.7000    313.8000
    790    789    819   1    110.7000    313.8000
    818    789    819   1    107.8000    276.1440
    789    790    791   1    112.7000    488.2728
    789    790    820   1    110.7000    313.8000
    789    790    821   1    110.7000    313.8000
    791    790    820   1    110.7000    313.8000
    791    790    821   1    110.7000    313.8000
    820    790    821   1    107.8000    276.1440
    790    791    792   1    112.7000    488.2728
    790    791    822   1    110.7000    313.8000
    790    791    823   1    110.7000    313.8000
    792    791    822   1    110.7000    313.8000
    792    791    823   1    110.7000    313.8000
    822    791    823   1    107.8000    276.1440
    791    792    793   1    109.5000    418.4000
    791    792    824   1    110.7000    313.8000
    791    792    825   1    110.7000    313.8000
    793    792    824   1    109.5000    292.8800
    793    792    825   1    109.5000    292.8800
    824    792    825   1    107.8000    276.1440
    792    793    794   1    116.9000    694.5440
    793    794    795   1    123.4000    694.5440
    793    794    796   1    111.4000    677.8080
    795    794    796   1    120.4000    669.4400
    794    796    797   1    111.1000    527.1840
    794    796    826   1    109.5000    292.8800
    794    796    827   1    109.5000    292.8800
    797    796    826   1    110.7000    313.8000
    797    796    827   1    110.7000    313.8000
    826    796    827   1    107.8000    276.1440
    796    797    798   1    112.7000    488.2728
    796    797    828   1    110.7000    313.8000
    796    797    829   1    110.7000    313.8000
    798    797    828   1    110.7000    313.8000
    798    797    829   1    110.7000    313.8000
    828    797    829   1    107.8000    276.1440
    797    798    799   1    112.7000    488.2728
    797    798    830   1    110.7000    313.8000
    797    798    831   1    110.7000    313.8000
    799    798    830   1    110.7000    313.8000
    799    798    831   1    110.7000    313.8000
    830    798    831   1    107.8000    276.1440
    798    799    800   1    112.7000    488.2728
    798    799    832   1    110.7000    313.8000
    798    799    833   1    110.7000    313.8000
    800    799    832   1    110.7000    313.8000
    800    799    833   1    110.7000    313.8000
    832    799    833   1    107.8000    276.1440
    799    800    801   1    112.7000    488.2728
    799    800    834   1    110.7000    313.8000
    799    800    835   1    110.7000    313.8000
    801    800    834   1    110.7000    313.8000
    801    800    835   1    110.7000    313.8000
    834    800    835   1    107.8000    276.1440
    800    801    802   1    112.7000    488.2728
    800    801    836   1    110.7000    313.8000
    800    801    837   1    110.7000    313.8000
    802    801    836   1    110.7000    313.8000
    802    801    837   1    110.7000    313.8000
    836    801    837   1    107.8000    276.1440
    801    802    803   1    112.7000    488.2728
    801    802    838   1    110.7000    313.8000
    801    802    839   1    110.7000    313.8000
    803    802    838   1    110.7000    313.8000
    803    802    839   1    110.7000    313.8000
    838    802    839   1    107.8000    276.1440
    802    803    804   1    111.1000    527.1840
    802    803    840   1    110.7000    313.8000
    802    803    841   1    110.7000    313.8000
    804    803    840   1    109.5000    292.8800
    804    803    841   1    109.5000    292.8800
    840    803    841   1    107.8000    276.1440
    803    804    805   1    120.4000    669.4400
    803    804    842   1    111.4000    677.8080
    805    804    842   1    123.4000    694.5440
    804    842    843   1    116.9000    694.5440
    842    843    844   1    109.5000    418.4000
    842    843    866   1    109.5000    292.8800
    842    843    867   1    109.5000    292.8800
    844    843    866   1    110.7000    313.8000
    844    843    867   1    110.7000    313.8000
    866    843    867   1    107.8000    276.1440
    843    844    845   1    112.7000    488.2728
    843    844    868   1    110.7000    313.8000
    843    844    869   1    110.7000    313.8000
    845    844    868   1    110.7000    313.8000
    845    844    869   1    110.7000    313.8000
    868    844    869   1    107.8000    276.1440
    844    845    846   1    112.7000    488.2728
    844    845    870   1    110.7000    313.8000
    844    845    871   1    110.7000    313.8000
    846    845    870   1    110.7000    313.8000
    846    845    871   1    110.7000    313.8000
    870    845    871   1    107.8000    276.1440
    845    846    847   1    112.7000    488.2728
    845    846    872   1    110.7000    313.8000
    845    846    873   1    110.7000    313.8000
    847    846    872   1    110.7000    313.8000
    847    846    873   1    110.7000    313.8000
    872    846    873   1    107.8000    276.1440
    846    847    848   1    112.7000    488.2728
    846    847    874   1    110.7000    313.8000
    846    847    875   1    110.7000    313.8000
    848    847    874   1    110.7000    313.8000
    848    847    875   1    110.7000    313.8000
    874    847    875   1    107.8000    276.1440
    847    848    849   1    112.7000    488.2728
    847    848    876   1    110.7000    313.8000
    847    848    877   1    110.7000    313.8000
    849    848    876   1    110.7000    313.8000
    849    848    877   1    110.7000    313.8000
    876    848    877   1    107.8000    276.1440
    848    849    850   1    112.7000    488.2728
    848    849    878   1    110.7000    313.8000
    848    849    879   1    110.7000    313.8000
    850    849    878   1    110.7000    313.8000
    850    849    879   1    110.7000    313.8000
    878    849    879   1    107.8000    276.1440
    849    850    851   1    112.7000    488.2728
    849    850    880   1    110.7000    313.8000
    849    850    881   1    110.7000    313.8000
    851    850    880   1    110.7000    313.8000
    851    850    881   1    110.7000    313.8000
    880    850    881   1    107.8000    276.1440
    850    851    852   1    112.7000    488.2728
    850    851    882   1    110.7000    313.8000
    850    851    883   1    110.7000    313.8000
    852    851    882   1    110.7000    313.8000
    852    851    883   1    110.7000    313.8000
    882    851    883   1    107.8000    276.1440
    851    852    853   1    109.5000    418.4000
    851    852    884   1    110.7000    313.8000
    851    852    885   1    110.7000    313.8000
    853    852    884   1    109.5000    292.8800
    853    852    885   1    109.5000    292.8800
    884    852    885   1    107.8000    276.1440
    852    853    854   1    116.9000    694.5440
    853    854    855   1    123.4000    694.5440
    853    854    856   1    111.4000    677.8080
    855    854    856   1    120.4000    669.4400
    854    856    857   1    111.1000    527.1840
    854    856    886   1    109.5000    292.8800
    854    856    887   1    109.5000    292.8800
    857    856    886   1    110.7000    313.8000
    857    856    887   1    110.7000    313.8000
    886    856    887   1    107.8000    276.1440
    856    857    858   1    112.7000    488.2728
    856    857    888   1    110.7000    313.8000
    856    857    889   1    110.7000    313.8000
    858    857    888   1    110.7000    313.8000
    858    857    889   1    110.7000    313.8000
    888    857    889   1    107.8000    276.1440
    857    858    859   1    112.7000    488.2728
    857    858    890   1    110.7000    313.8000
    857    858    891   1    110.7000    313.8000
    859    858    890   1    110.7000    313.8000
    859    858    891   1    110.7000    313.8000
    890    858    891   1    107.8000    276.1440
    858    859    860   1    112.7000    488.2728
    858    859    892   1    110.7000    313.8000
    858    859    893   1    110.7000    313.8000
    860    859    892   1    110.7000    313.8000
    860    859    893   1    110.7000    313.8000
    892    859    893   1    107.8000    276.1440
    859    860    861   1    112.7000    488.2728
    859    860    894   1    110.7000    313.8000
    859    860    895   1    110.7000    313.8000
    861    860    894   1    110.7000    313.8000
    861    860    895   1    110.7000    313.8000
    894    860    895   1    107.8000    276.1440
    860    861    862   1    112.7000    488.2728
    860    861    896   1    110.7000    313.8000
    860    861    897   1    110.7000    313.8000
    862    861    896   1    110.7000    313.8000
    862    861    897   1    110.7000    313.8000
    896    861    897   1    107.8000    276.1440
    861    862    863   1    112.7000    488.2728
    861    862    898   1    110.7000    313.8000
    861    862    899   1    110.7000    313.8000
    863    862    898   1    110.7000    313.8000
    863    862    899   1    110.7000    313.8000
    898    862    899   1    107.8000    276.1440
    862    863    864   1    111.1000    527.1840
    862    863    900   1    110.7000    313.8000
    862    863    901   1    110.7000    313.8000
    864    863    900   1    109.5000    292.8800
    864    863    901   1    109.5000    292.8800
    900    863    901   1    107.8000    276.1440
    863    864    865   1    120.4000    669.4400
    863    864    902   1    111.4000    677.8080
    865    864    902   1    123.4000    694.5440
    864    902    903   1    116.9000    694.5440
    902    903    904   1    109.5000    418.4000
    902    903    926   1    109.5000    292.8800
    902    903    927   1    109.5000    292.8800
    904    903    926   1    110.7000    313.8000
    904    903    927   1    110.7000    313.8000
    926    903    927   1    107.8000    276.1440
    903    904    905   1    112.7000    488.2728
    903    904    928   1    110.7000    313.8000
    903    904    929   1    110.7000    313.8000
    905    904    928   1    110.7000    313.8000
    905    904    929   1    110.7000    313.8000
    928    904    929   1    107.8000    276.1440
    904    905    906   1    112.7000    488.2728
    904    905    930   1    110.7000    313.8000
    904    905    931   1    110.7000    313.8000
    906    905    930   1    110.7000    313.8000
    906    905    931   1    110.7000    313.8000
    930    905    931   1    107.8000    276.1440
    905    906    907   1    112.7000    488.2728
    905    906    932   1    110.7000    313.8000
    905    906    933   1    110.7000    313.8000
    907    906    932   1    110.7000    313.8000
    907    906    933   1    110.7000    313.8000
    932    906    933   1    107.8000    276.1440
    906    907    908   1    112.7000    488.2728
    906    907    934   1    110.7000    313.8000
    906    907    935   1    110.7000    313.8000
    908    907    934   1    110.7000    313.8000
    908    907    935   1    110.7000    313.8000
    934    907    935   1    107.8000    276.1440
    907    908    909   1    112.7000    488.2728
    907    908    936   1    110.7000    313.8000
    907    908    937   1    110.7000    313.8000
    909    908    936   1    110.7000    313.8000
    909    908    937   1    110.7000    313.8000
    936    908    937   1    107.8000    276.1440
    908    909    910   1    112.7000    488.2728
    908    909    938   1    110.7000    313.8000
    908    909    939   1    110.7000    313.8000
    910    909    938   1    110.7000    313.8000
    910    909    939   1    110.7000    313.8000
    938    909    939   1    107.8000    276.1440
    909    910    911   1    112.7000    488.2728
    909    910    940   1    110.7000    313.8000
    909    910    941   1    110.7000    313.8000
    911    910    940   1    110.7000    313.8000
    911    910    941   1    110.7000    313.8000
    940    910    941   1    107.8000    276.1440
    910    911    912   1    112.7000    488.2728
    910    911    942   1    110.7000    313.8000
    910    911    943   1    110.7000    313.8000
    912    911    942   1    110.7000    313.8000
    912    911    943   1    110.7000    313.8000
    942    911    943   1    107.8000    276.1440
    911    912    913   1    109.5000    418.4000
    911    912    944   1    110.7000    313.8000
    911    912    945   1    110.7000    313.8000
    913    912    944   1    109.5000    292.8800
    913    912    945   1    109.5000    292.8800
    944    912    945   1    107.8000    276.1440
    912    913    914   1    116.9000    694.5440
    913    914    915   1    123.4000    694.5440
    913    914    916   1    111.4000    677.8080
    915    914    916   1    120.4000    669.4400
    914    916    917   1    111.1000    527.1840
    914    916    946   1    109.5000    292.8800
    914    916    947   1    109.5000    292.8800
    917    916    946   1    110.7000    313.8000
    917    916    947   1    110.7000    313.8000
    946    916    947   1    107.8000    276.1440
    916    917    918   1    112.7000    488.2728
    916    917    948   1    110.7000    313.8000
    916    917    949   1    110.7000    313.8000
    918    917    948   1    110.7000    313.8000
    918    917    949   1    110.7000    313.8000
    948    917    949   1    107.8000    276.1440
    917    918    919   1    112.7000    488.2728
    917    918    950   1    110.7000    313.8000
    917    918    951   1    110.7000    313.8000
    919    918    950   1    110.7000    313.8000
    919    918    951   1    110.7000    313.8000
    950    918    951   1    107.8000    276.1440
    918    919    920   1    112.7000    488.2728
    918    919    952   1    110.7000    313.8000
    918    919    953   1    110.7000    313.8000
    920    919    952   1    110.7000    313.8000
    920    919    953   1    110.7000    313.8000
    952    919    953   1    107.8000    276.1440
    919    920    921   1    112.7000    488.2728
    919    920    954   1    110.7000    313.8000
    919    920    955   1    110.7000    313.8000
    921    920    954   1    110.7000    313.8000
    921    920    955   1    110.7000    313.8000
    954    920    955   1    107.8000    276.1440
    920    921    922   1    112.7000    488.2728
    920    921    956   1    110.7000    313.8000
    920    921    957   1    110.7000    313.8000
    922    921    956   1    110.7000    313.8000
    922    921    957   1    110.7000    313.8000
    956    921    957   1    107.8000    276.1440
    921    922    923   1    112.7000    488.2728
    921    922    958   1    110.7000    313.8000
    921    922    959   1    110.7000    313.8000
    923    922    958   1    110.7000    313.8000
    923    922    959   1    110.7000    313.8000
    958    922    959   1    107.8000    276.1440
    922    923    924   1    111.1000    527.1840
    922    923    960   1    110.7000    313.8000
    922    923    961   1    110.7000    313.8000
    924    923    960   1    109.5000    292.8800
    924    923    961   1    109.5000    292.8800
    960    923    961   1    107.8000    276.1440
    923    924    925   1    120.4000    669.4400
    923    924    962   1    111.4000    677.8080
    925    924    962   1    123.4000    694.5440
    924    962    963   1    116.9000    694.5440
    962    963    964   1    109.5000    418.4000
    962    963    986   1    109.5000    292.8800
    962    963    987   1    109.5000    292.8800
    964    963    986   1    110.7000    313.8000
    964    963    987   1    110.7000    313.8000
    986    963    987   1    107.8000    276.1440
    963    964    965   1    112.7000    488.2728
    963    964    988   1    110.7000    313.8000
    963    964    989   1    110.7000    313.8000
    965    964    988   1    110.7000    313.8000
    965    964    989   1    110.7000    313.8000
    988    964    989   1    107.8000    276.1440
    964    965    966   1    112.7000    488.2728
    964    965    990   1    110.7000    313.8000
    964    965    991   1    110.7000    313.8000
    966    965    990   1    110.7000    313.8000
    966    965    991   1    110.7000    313.8000
    990    965    991   1    107.8000    276.1440
    965    966    967   1    112.7000    488.2728
    965    966    992   1    110.7000    313.8000
    965    966    993   1    110.7000    313.8000
    967    966    992   1    110.7000    313.8000
    967    966    993   1    110.7000    313.8000
    992    966    993   1    107.8000    276.1440
    966    967    968   1    112.7000    488.2728
    966    967    994   1    110.7000    313.8000
    966    967    995   1    110.7000    313.8000
    968    967    994   1    110.7000    313.8000
    968    967    995   1    110.7000    313.8000
    994    967    995   1    107.8000    276.1440
    967    968    969   1    112.7000    488.2728
    967    968    996   1    110.7000    313.8000
    967    968    997   1    110.7000    313.8000
    969    968    996   1    110.7000    313.8000
    969    968    997   1    110.7000    313.8000
    996    968    997   1    107.8000    276.1440
    968    969    970   1    112.7000    488.2728
    968    969    998   1    110.7000    313.8000
    968    969    999   1    110.7000    313.8000
    970    969    998   1    110.7000    313.8000
    970    969    999   1    110.7000    313.8000
    998    969    999   1    107.8000    276.1440
    969    970    971   1    112.7000    488.2728
    969    970   1000   1    110.7000    313.8000
    969    970   1001   1    110.7000    313.8000
    971    970   1000   1    110.7000    313.8000
    971    970   1001   1    110.7000    313.8000
   1000    970   1001   1    107.8000    276.1440
    970    971    972   1    112.7000    488.2728
    970    971   1002   1    110.7000    313.8000
    970    971   1003   1    110.7000    313.8000
    972    971   1002   1    110.7000    313.8000
    972    971   1003   1    110.7000    313.8000
   1002    971   1003   1    107.8000    276.1440
    971    972    973   1    109.5000    418.4000
    971    972   1004   1    110.7000    313.8000
    971    972   1005   1    110.7000    313.8000
    973    972   1004   1    109.5000    292.8800
    973    972   1005   1    109.5000    292.8800
   1004    972   1005   1    107.8000    276.1440
    972    973    974   1    116.9000    694.5440
    973    974    975   1    123.4000    694.5440
    973    974    976   1    111.4000    677.8080
    975    974    976   1    120.4000    669.4400
    974    976    977   1    111.1000    527.1840
    974    976   1006   1    109.5000    292.8800
    974    976   1007   1    109.5000    292.8800
    977    976   1006   1    110.7000    313.8000
    977    976   1007   1    110.7000    313.8000
   1006    976   1007   1    107.8000    276.1440
    976    977    978   1    112.7000    488.2728
    976    977   1008   1    110.7000    313.8000
    976    977   1009   1    110.7000    313.8000
    978    977   1008   1    110.7000    313.8000
    978    977   1009   1    110.7000    313.8000
   1008    977   1009   1    107.8000    276.1440
    977    978    979   1    112.7000    488.2728
    977    978   1010   1    110.7000    313.8000
    977    978   1011   1    110.7000    313.8000
    979    978   1010   1    110.7000    313.8000
    979    978   1011   1    110.7000    313.8000
   1010    978   1011   1    107.8000    276.1440
    978    979    980   1    112.7000    488.2728
    978    979   1012   1    110.7000    313.8000
    978    979   1013   1    110.7000    313.8000
    980    979   1012   1    110.7000    313.8000
    980    979   1013   1    110.7000    313.8000
   1012    979   1013   1    107.8000    276.1440
    979    980    981   1    112.7000    488.2728
    979    980   1014   1    110.7000    313.8000
    979    980   1015   1    110.7000    313.8000
    981    980   1014   1    110.7000    313.8000
    981    980   1015   1    110.7000    313.8000
   1014    980   1015   1    107.8000    276.1440
    980    981    982   1    112.7000    488.2728
    980    981   1016   1    110.7000    313.8000
    980    981   1017   1    110.7000    313.8000
    982    981   1016   1    110.7000    313.8000
    982    981   1017   1    110.7000    313.8000
   1016    981   1017   1    107.8000    276.1440
    981    982    983   1    112.7000    488.2728
    981    982   1018   1    110.7000    313.8000
    981    982   1019   1    110.7000    313.8000
    983    982   1018   1    110.7000    313.8000
    983    982   1019   1    110.7000    313.8000
   1018    982   1019   1    107.8000    276.1440
    982    983    984   1    111.1000    527.1840
    982    983   1020   1    110.7000    313.8000
    982    983   1021   1    110.7000    313.8000
    984    983   1020   1    109.5000    292.8800
    984    983   1021   1    109.5000    292.8800
   1020    983   1021   1    107.8000    276.1440
    983    984    985   1    120.4000    669.4400
    983    984   1022   1    111.4000    677.8080
    985    984   1022   1    123.4000    694.5440
    984   1022   1023   1    116.9000    694.5440
   1022   1023   1024   1    109.5000    418.4000
   1022   1023   1046   1    109.5000    292.8800
   1022   1023   1047   1    109.5000    292.8800
   1024   1023   1046   1    110.7000    313.8000
   1024   1023   1047   1    110.7000    313.8000
   1046   1023   1047   1    107.8000    276.1440
   1023   1024   1025   1    112.7000    488.2728
   1023   1024   1048   1    110.7000    313.8000
   1023   1024   1049   1    110.7000    313.8000
   1025   1024   1048   1    110.7000    313.8000
   1025   1024   1049   1    110.7000    313.8000
   1048   1024   1049   1    107.8000    276.1440
   1024   1025   1026   1    112.7000    488.2728
   1024   1025   1050   1    110.7000    313.8000
   1024   1025   1051   1    110.7000    313.8000
   1026   1025   1050   1    110.7000    313.8000
   1026   1025   1051   1    110.7000    313.8000
   1050   1025   1051   1    107.8000    276.1440
   1025   1026   1027   1    112.7000    488.2728
   1025   1026   1052   1    110.7000    313.8000
   1025   1026   1053   1    110.7000    313.8000
   1027   1026   1052   1    110.7000    313.8000
   1027   1026   1053   1    110.7000    313.8000
   1052   1026   1053   1    107.8000    276.1440
   1026   1027   1028   1    112.7000    488.2728
   1026   1027   1054   1    110.7000    313.8000
   1026   1027   1055   1    110.7000    313.8000
   1028   1027   1054   1    110.7000    313.8000
   1028   1027   1055   1    110.7000    313.8000
   1054   1027   1055   1    107.8000    276.1440
   1027   1028   1029   1    112.7000    488.2728
   1027   1028   1056   1    110.7000    313.8000
   1027   1028   1057   1    110.7000    313.8000
   1029   1028   1056   1    110.7000    313.8000
   1029   1028   1057   1    110.7000    313.8000
   1056   1028   1057   1    107.8000    276.1440
   1028   1029   1030   1    112.7000    488.2728
   1028   1029   1058   1    110.7000    313.8000
   1028   1029   1059   1    110.7000    313.8000
   1030   1029   1058   1    110.7000    313.8000
   1030   1029   1059   1    110.7000    313.8000
   1058   1029   1059   1    107.8000    276.1440
   1029   1030   1031   1    112.7000    488.2728
   1029   1030   1060   1    110.7000    313.8000
   1029   1030   1061   1    110.7000    313.8000
   1031   1030   1060   1    110.7000    313.8000
   1031   1030   1061   1    110.7000    313.8000
   1060   1030   1061   1    107.8000    276.1440
   1030   1031   1032   1    112.7000    488.2728
   1030   1031   1062   1    110.7000    313.8000
   1030   1031   1063   1    110.7000    313.8000
   1032   1031   1062   1    110.7000    313.8000
   1032   1031   1063   1    110.7000    313.8000
   1062   1031   1063   1    107.8000    276.1440
   1031   1032   1033   1    109.5000    418.4000
   1031   1032   1064   1    110.7000    313.8000
   1031   1032   1065   1    110.7000    313.8000
   1033   1032   1064   1    109.5000    292.8800
   1033   1032   1065   1    109.5000    292.8800
   1064   1032   1065   1    107.8000    276.1440
   1032   1033   1034   1    116.9000    694.5440
   1033   1034   1035   1    123.4000    694.5440
   1033   1034   1036   1    111.4000    677.8080
   1035   1034   1036   1    120.4000    669.4400
   1034   1036   1037   1    111.1000    527.1840
   1034   1036   1066   1    109.5000    292.8800
   1034   1036   1067   1    109.5000    292.8800
   1037   1036   1066   1    110.7000    313.8000
   1037   1036   1067   1    110.7000    313.8000
   1066   1036   1067   1    107.8000    276.1440
   1036   1037   1038   1    112.7000    488.2728
   1036   1037   1068   1    110.7000    313.8000
   1036   1037   1069   1    110.7000    313.8000
   1038   1037   1068   1    110.7000    313.8000
   1038   1037   1069   1    110.7000    313.8000
   1068   1037   1069   1    107.8000    276.1440
   1037   1038   1039   1    112.7000    488.2728
   1037   1038   1070   1    110.7000    313.8000
   1037   1038   1071   1    110.7000    313.8000
   1039   1038   1070   1    110.7000    313.8000
   1039   1038   1071   1    110.7000    313.8000
   1070   1038   1071   1    107.8000    276.1440
   1038   1039   1040   1    112.7000    488.2728
   1038   1039   1072   1    110.7000    313.8000
   1038   1039   1073   1    110.7000    313.8000
   1040   1039   1072   1    110.7000    313.8000
   1040   1039   1073   1    110.7000    313.8000
   1072   1039   1073   1    107.8000    276.1440
   1039   1040   1041   1    112.7000    488.2728
   1039   1040   1074   1    110.7000    313.8000
   1039   1040   1075   1    110.7000    313.8000
   1041   1040   1074   1    110.7000    313.8000
   1041   1040   1075   1    110.7000    313.8000
   1074   1040   1075   1    107.8000    276.1440
   1040   1041   1042   1    112.7000    488.2728
   1040   1041   1076   1    110.7000    313.8000
   1040   1041   1077   1    110.7000    313.8000
   1042   1041   1076   1    110.7000    313.8000
   1042   1041   1077   1    110.7000    313.8000
   1076   1041   1077   1    107.8000    276.1440
   1041   1042   1043   1    112.7000    488.2728
   1041   1042   1078   1    110.7000    313.8000
   1041   1042   1079   1    110.7000    313.8000
   1043   1042   1078   1    110.7000    313.8000
   1043   1042   1079   1    110.7000    313.8000
   1078   1042   1079   1    107.8000    276.1440
   1042   1043   1044   1    111.1000    527.1840
   1042   1043   1080   1    110.7000    313.8000
   1042   1043   1081   1    110.7000    313.8000
   1044   1043   1080   1    109.5000    292.8800
   1044   1043   1081   1    109.5000    292.8800
   1080   1043   1081   1    107.8000    276.1440
   1043   1044   1045   1    120.4000    669.4400
   1043   1044   1082   1    111.4000    677.8080
   1045   1044   1082   1    123.4000    694.5440
   1044   1082   1083   1    116.9000    694.5440
   1082   1083   1084   1    109.5000    418.4000
   1082   1083   1106   1    109.5000    292.8800
   1082   1083   1107   1    109.5000    292.8800
   1084   1083   1106   1    110.7000    313.8000
   1084   1083   1107   1    110.7000    313.8000
   1106   1083   1107   1    107.8000    276.1440
   1083   1084   1085   1    112.7000    488.2728
   1083   1084   1108   1    110.7000    313.8000
   1083   1084   1109   1    110.7000    313.8000
   1085   1084   1108   1    110.7000    313.8000
   1085   1084   1109   1    110.7000    313.8000
   1108   1084   1109   1    107.8000    276.1440
   1084   1085   1086   1    112.7000    488.2728
   1084   1085   1110   1    110.7000    313.8000
   1084   1085   1111   1    110.7000    313.8000
   1086   1085   1110   1    110.7000    313.8000
   1086   1085   1111   1    110.7000    313.8000
   1110   1085   1111   1    107.8000    276.1440
   1085   1086   1087   1    112.7000    488.2728
   1085   1086   1112   1    110.7000    313.8000
   1085   1086   1113   1    110.7000    313.8000
   1087   1086   1112   1    110.7000    313.8000
   1087   1086   1113   1    110.7000    313.8000
   1112   1086   1113   1    107.8000    276.1440
   1086   1087   1088   1    112.7000    488.2728
   1086   1087   1114   1    110.7000    313.8000
   1086   1087   1115   1    110.7000    313.8000
   1088   1087   1114   1    110.7000    313.8000
   1088   1087   1115   1    110.7000    313.8000
   1114   1087   1115   1    107.8000    276.1440
   1087   1088   1089   1    112.7000    488.2728
   1087   1088   1116   1    110.7000    313.8000
   1087   1088   1117   1    110.7000    313.8000
   1089   1088   1116   1    110.7000    313.8000
   1089   1088   1117   1    110.7000    313.8000
   1116   1088   1117   1    107.8000    276.1440
   1088   1089   1090   1    112.7000    488.2728
   1088   1089   1118   1    110.7000    313.8000
   1088   1089   1119   1    110.7000    313.8000
   1090   1089   1118   1    110.7000    313.8000
   1090   1089   1119   1    110.7000    313.8000
   1118   1089   1119   1    107.8000    276.1440
   1089   1090   1091   1    112.7000    488.2728
   1089   1090   1120   1    110.7000    313.8000
   1089   1090   1121   1    110.7000    313.8000
   1091   1090   1120   1    110.7000    313.8000
   1091   1090   1121   1    110.7000    313.8000
   1120   1090   1121   1    107.8000    276.1440
   1090   1091   1092   1    112.7000    488.2728
   1090   1091   1122   1    110.7000    313.8000
   1090   1091   1123   1    110.7000    313.8000
   1092   1091   1122   1    110.7000    313.8000
   1092   1091   1123   1    110.7000    313.8000
   1122   1091   1123   1    107.8000    276.1440
   1091   1092   1093   1    109.5000    418.4000
   1091   1092   1124   1    110.7000    313.8000
   1091   1092   1125   1    110.7000    313.8000
   1093   1092   1124   1    109.5000    292.8800
   1093   1092   1125   1    109.5000    292.8800
   1124   1092   1125   1    107.8000    276.1440
   1092   1093   1094   1    116.9000    694.5440
   1093   1094   1095   1    123.4000    694.5440
   1093   1094   1096   1    111.4000    677.8080
   1095   1094   1096   1    120.4000    669.4400
   1094   1096   1097   1    111.1000    527.1840
   1094   1096   1126   1    109.5000    292.8800
   1094   1096   1127   1    109.5000    292.8800
   1097   1096   1126   1    110.7000    313.8000
   1097   1096   1127   1    110.7000    313.8000
   1126   1096   1127   1    107.8000    276.1440
   1096   1097   1098   1    112.7000    488.2728
   1096   1097   1128   1    110.7000    313.8000
   1096   1097   1129   1    110.7000    313.8000
   1098   1097   1128   1    110.7000    313.8000
   1098   1097   1129   1    110.7000    313.8000
   1128   1097   1129   1    107.8000    276.1440
   1097   1098   1099   1    112.7000    488.2728
   1097   1098   1130   1    110.7000    313.8000
   1097   1098   1131   1    110.7000    313.8000
   1099   1098   1130   1    110.7000    313.8000
   1099   1098   1131   1    110.7000    313.8000
   1130   1098   1131   1    107.8000    276.1440
   1098   1099   1100   1    112.7000    488.2728
   1098   1099   1132   1    110.7000    313.8000
   1098   1099   1133   1    110.7000    313.8000
   1100   1099   1132   1    110.7000    313.8000
   1100   1099   1133   1    110.7000    313.8000
   1132   1099   1133   1    107.8000    276.1440
   1099   1100   1101   1    112.7000    488.2728
   1099   1100   1134   1    110.7000    313.8000
   1099   1100   1135   1    110.7000    313.8000
   1101   1100   1134   1    110.7000    313.8000
   1101   1100   1135   1    110.7000    313.8000
   1134   1100   1135   1    107.8000    276.1440
   1100   1101   1102   1    112.7000    488.2728
   1100   1101   1136   1    110.7000    313.8000
   1100   1101   1137   1    110.7000    313.8000
   1102   1101   1136   1    110.7000    313.8000
   1102   1101   1137   1    110.7000    313.8000
   1136   1101   1137   1    107.8000    276.1440
   1101   1102   1103   1    112.7000    488.2728
   1101   1102   1138   1    110.7000    313.8000
   1101   1102   1139   1    110.7000    313.8000
   1103   1102   1138   1    110.7000    313.8000
   1103   1102   1139   1    110.7000    313.8000
   1138   1102   1139   1    107.8000    276.1440
   1102   1103   1104   1    111.1000    527.1840
   1102   1103   1140   1    110.7000    313.8000
   1102   1103   1141   1    110.7000    313.8000
   1104   1103   1140   1    109.5000    292.8800
   1104   1103   1141   1    109.5000    292.8800
   1140   1103   1141   1    107.8000    276.1440
   1103   1104   1105   1    120.4000    669.4400
   1103   1104   1142   1    111.4000    677.8080
   1105   1104   1142   1    123.4000    694.5440
   1104   1142   1143   1    116.9000    694.5440
   1142   1143   1144   1    109.5000    418.4000
   1142   1143   1166   1    109.5000    292.8800
   1142   1143   1167   1    109.5000    292.8800
   1144   1143   1166   1    110.7000    313.8000
   1144   1143   1167   1    110.7000    313.8000
   1166   1143   1167   1    107.8000    276.1440
   1143   1144   1145   1    112.7000    488.2728
   1143   1144   1168   1    110.7000    313.8000
   1143   1144   1169   1    110.7000    313.8000
   1145   1144   1168   1    110.7000    313.8000
   1145   1144   1169   1    110.7000    313.8000
   1168   1144   1169   1    107.8000    276.1440
   1144   1145   1146   1    112.7000    488.2728
   1144   1145   1170   1    110.7000    313.8000
   1144   1145   1171   1    110.7000    313.8000
   1146   1145   1170   1    110.7000    313.8000
   1146   1145   1171   1    110.7000    313.8000
   1170   1145   1171   1    107.8000    276.1440
   1145   1146   1147   1    112.7000    488.2728
   1145   1146   1172   1    110.7000    313.8000
   1145   1146   1173   1    110.7000    313.8000
   1147   1146   1172   1    110.7000    313.8000
   1147   1146   1173   1    110.7000    313.8000
   1172   1146   1173   1    107.8000    276.1440
   1146   1147   1148   1    112.7000    488.2728
   1146   1147   1174   1    110.7000    313.8000
   1146   1147   1175   1    110.7000    313.8000
   1148   1147   1174   1    110.7000    313.8000
   1148   1147   1175   1    110.7000    313.8000
   1174   1147   1175   1    107.8000    276.1440
   1147   1148   1149   1    112.7000    488.2728
   1147   1148   1176   1    110.7000    313.8000
   1147   1148   1177   1    110.7000    313.8000
   1149   1148   1176   1    110.7000    313.8000
   1149   1148   1177   1    110.7000    313.8000
   1176   1148   1177   1    107.8000    276.1440
   1148   1149   1150   1    112.7000    488.2728
   1148   1149   1178   1    110.7000    313.8000
   1148   1149   1179   1    110.7000    313.8000
   1150   1149   1178   1    110.7000    313.8000
   1150   1149   1179   1    110.7000    313.8000
   1178   1149   1179   1    107.8000    276.1440
   1149   1150   1151   1    112.7000    488.2728
   1149   1150   1180   1    110.7000    313.8000
   1149   1150   1181   1    110.7000    313.8000
   1151   1150   1180   1    110.7000    313.8000
   1151   1150   1181   1    110.7000    313.8000
   1180   1150   1181   1    107.8000    276.1440
   1150   1151   1152   1    112.7000    488.2728
   1150   1151   1182   1    110.7000    313.8000
   1150   1151   1183   1    110.7000    313.8000
   1152   1151   1182   1    110.7000    313.8000
   1152   1151   1183   1    110.7000    313.8000
   1182   1151   1183   1    107.8000    276.1440
   1151   1152   1153   1    109.5000    418.4000
   1151   1152   1184   1    110.7000    313.8000
   1151   1152   1185   1    110.7000    313.8000
   1153   1152   1184   1    109.5000    292.8800
   1153   1152   1185   1    109.5000    292.8800
   1184   1152   1185   1    107.8000    276.1440
   1152   1153   1154   1    116.9000    694.5440
   1153   1154   1155   1    123.4000    694.5440
   1153   1154   1156   1    111.4000    677.8080
   1155   1154   1156   1    120.4000    669.4400
   1154   1156   1157   1    111.1000    527.1840
   1154   1156   1186   1    109.5000    292.8800
   1154   1156   1187   1    109.5000    292.8800
   1157   1156   1186   1    110.7000    313.8000
   1157   1156   1187   1    110.7000    313.8000
   1186   1156   1187   1    107.8000    276.1440
   1156   1157   1158   1    112.7000    488.2728
   1156   1157   1188   1    110.7000    313.8000
   1156   1157   1189   1    110.7000    313.8000
   1158   1157   1188   1    110.7000    313.8000
   1158   1157   1189   1    110.7000    313.8000
   1188   1157   1189   1    107.8000    276.1440
   1157   1158   1159   1    112.7000    488.2728
   1157   1158   1190   1    110.7000    313.8000
   1157   1158   1191   1    110.7000    313.8000
   1159   1158   1190   1    110.7000    313.8000
   1159   1158   1191   1    110.7000    313.8000
   1190   1158   1191   1    107.8000    276.1440
   1158   1159   1160   1    112.7000    488.2728
   1158   1159   1192   1    110.7000    313.8000
   1158   1159   1193   1    110.7000    313.8000
   1160   1159   1192   1    110.7000    313.8000
   1160   1159   1193   1    110.7000    313.8000
   1192   1159   1193   1    107.8000    276.1440
   1159   1160   1161   1    112.7000    488.2728
   1159   1160   1194   1    110.7000    313.8000
   1159   1160   1195   1    110.7000    313.8000
   1161   1160   1194   1    110.7000    313.8000
   1161   1160   1195   1    110.7000    313.8000
   1194   1160   1195   1    107.8000    276.1440
   1160   1161   1162   1    112.7000    488.2728
   1160   1161   1196   1    110.7000    313.8000
   1160   1161   1197   1    110.7000    313.8000
   1162   1161   1196   1    110.7000    313.8000
   1162   1161   1197   1    110.7000    313.8000
   1196   1161   1197   1    107.8000    276.1440
   1161   1162   1163   1    112.7000    488.2728
   1161   1162   1198   1    110.7000    313.8000
   1161   1162   1199   1    110.7000    313.8000
   1163   1162   1198   1    110.7000    313.8000
   1163   1162   1199   1    110.7000    313.8000
   1198   1162   1199   1    107.8000    276.1440
   1162   1163   1164   1    111.1000    527.1840
   1162   1163   1200   1    110.7000    313.8000
   1162   1163   1201   1    110.7000    313.8000
   1164   1163   1200   1    109.5000    292.8800
   1164   1163   1201   1    109.5000    292.8800
   1200   1163   1201   1    107.8000    276.1440
   1163   1164   1165   1    120.4000    669.4400
   1163   1164   1202   1    115.0000    292.8800
   1165   1164   1202   1    123.0000    292.8800

[ dihedrals ]
; Proper dihedrals
     61      1      2      3   5    -0.97069    -0.79078     1.77820  0.0
     61      1      2     25   5     0.00000     0.00000     1.62758  0.0
     61      1      2     26   5     0.00000     0.00000     1.62758  0.0
      1      2      3      4   5     7.23832    -1.46440     1.74054  0.0
      1      2      3     27   5     0.00000     0.00000     1.95811  0.0
      1      2      3     28   5     0.00000     0.00000     1.95811  0.0
     25      2      3      4   5     0.00000     0.00000     1.25520  0.0
     25      2      3     27   5     0.00000     0.00000     1.25520  0.0
     25      2      3     28   5     0.00000     0.00000     1.25520  0.0
     26      2      3      4   5     0.00000     0.00000     1.25520  0.0
     26      2      3     27   5     0.00000     0.00000     1.25520  0.0
     26      2      3     28   5     0.00000     0.00000     1.25520  0.0
      2      3      4      5   5     4.74884    -0.63178     1.67360  0.0
      2      3      4     29   5     0.00000     0.00000     1.25520  0.0
      2      3      4     30   5     0.00000     0.00000     1.25520  0.0
     27      3      4      5   5     0.00000     0.00000     1.25520  0.0
     27      3      4     29   5     0.00000     0.00000     1.25520  0.0
     27      3      4     30   5     0.00000     0.00000     1.25520  0.0
     28      3      4      5   5     0.00000     0.00000     1.25520  0.0
     28      3      4     29   5     0.00000     0.00000     1.25520  0.0
     28      3      4     30   5     0.00000     0.00000     1.25520  0.0
      3      4      5      6   5     4.74884    -0.63178     1.67360  0.0
      3      4      5     31   5     0.00000     0.00000     1.25520  0.0
      3      4      5     32   5     0.00000     0.00000     1.25520  0.0
     29      4      5      6   5     0.00000     0.00000     1.25520  0.0
     29      4      5     31   5     0.00000     0.00000     1.25520  0.0
     29      4      5     32   5     0.00000     0.00000     1.25520  0.0
     30      4      5      6   5     0.00000     0.00000     1.25520  0.0
     30      4      5     31   5     0.00000     0.00000     1.25520  0.0
     30      4      5     32   5     0.00000     0.00000     1.25520  0.0
      4      5      6      7   5     4.74884    -0.63178     1.67360  0.0
      4      5      6     33   5     0.00000     0.00000     1.25520  0.0
      4      5      6     34   5     0.00000     0.00000     1.25520  0.0
     31      5      6      7   5     0.00000     0.00000     1.25520  0.0
     31      5      6     33   5     0.00000     0.00000     1.25520  0.0
     31      5      6     34   5     0.00000     0.00000     1.25520  0.0
     32      5      6      7   5     0.00000     0.00000     1.25520  0.0
     32      5      6     33   5     0.00000     0.00000     1.25520  0.0
     32      5      6     34   5     0.00000     0.00000     1.25520  0.0
      5      6      7      8   5     4.74884    -0.63178     1.67360  0.0
      5      6      7     35   5     0.00000     0.00000     1.25520  0.0
      5      6      7     36   5     0.00000     0.00000     1.25520  0.0
     33      6      7      8   5     0.00000     0.00000     1.25520  0.0
     33      6      7     35   5     0.00000     0.00000     1.25520  0.0
     33      6      7     36   5     0.00000     0.00000     1.25520  0.0
     34      6      7      8   5     0.00000     0.00000     1.25520  0.0
     34      6      7     35   5     0.00000     0.00000     1.25520  0.0
     34      6      7     36   5     0.00000     0.00000     1.25520  0.0
      6      7      8      9   5     4.74884    -0.63178     1.67360  0.0
      6      7      8     37   5     0.00000     0.00000     1.25520  0.0
      6      7      8     38   5     0.00000     0.00000     1.25520  0.0
     35      7      8      9   5     0.00000     0.00000     1.25520  0.0
     35      7      8     37   5     0.00000     0.00000     1.25520  0.0
     35      7      8     38   5     0.00000     0.00000     1.25520  0.0
     36      7      8      9   5     0.00000     0.00000     1.25520  0.0
     36      7      8     37   5     0.00000     0.00000     1.25520  0.0
     36      7      8     38   5     0.00000     0.00000     1.25520  0.0
      7      8      9     10   5     4.74884    -0.63178     1.67360  0.0
      7      8      9     39   5     0.00000     0.00000     1.25520  0.0
      7      8      9     40   5     0.00000     0.00000     1.25520  0.0
     37      8      9     10   5     0.00000     0.00000     1.25520  0.0
     37      8      9     39   5     0.00000     0.00000     1.25520  0.0
     37      8      9     40   5     0.00000     0.00000     1.25520  0.0
     38      8      9     10   5     0.00000     0.00000     1.25520  0.0
     38      8      9     39   5     0.00000     0.00000     1.25520  0.0
     38      8      9     40   5     0.00000     0.00000     1.25520  0.0
      8      9     10     11   5     4.74884    -0.63178     1.67360  0.0
      8      9     10     41   5     0.00000     0.00000     1.25520  0.0
      8      9     10     42   5     0.00000     0.00000     1.25520  0.0
     39      9     10     11   5     0.00000     0.00000     1.25520  0.0
     39      9     10     41   5     0.00000     0.00000     1.25520  0.0
     39      9     10     42   5     0.00000     0.00000     1.25520  0.0
     40      9     10     11   5     0.00000     0.00000     1.25520  0.0
     40      9     10     41   5     0.00000     0.00000     1.25520  0.0
     40      9     10     42   5     0.00000     0.00000     1.25520  0.0
      9     10     11     12   5     5.25092    -2.58990     2.28446  0.0
      9     10     11     43   5     0.00000     0.00000     1.25520  0.0
      9     10     11     44   5     0.00000     0.00000     1.25520  0.0
     41     10     11     12   5     0.00000     0.00000     1.95811  0.0
     41     10     11     43   5     0.00000     0.00000     1.25520  0.0
     41     10     11     44   5     0.00000     0.00000     1.25520  0.0
     42     10     11     12   5     0.00000     0.00000     1.95811  0.0
     42     10     11     43   5     0.00000     0.00000     1.25520  0.0
     42     10     11     44   5     0.00000     0.00000     1.25520  0.0
     10     11     12     13   5    -2.16731    -3.93296     0.98324  0.0
     43     11     12     13   5     0.00000     0.00000     0.67362  0.0
     44     11     12     13   5     0.00000     0.00000     0.67362  0.0
     11     12     13     14   5     0.00000    25.10400     0.00000  0.0
     11     12     13     15   5    13.65239    24.43456     0.00000  0.0
     12     13     15     16   5     0.00000     0.00000     3.07524  0.0
     12     13     15     45   5     0.00000     0.00000     0.00000  0.0
     12     13     15     46   5     0.00000     0.00000     0.00000  0.0
     14     13     15     16   5     0.00000     2.52295     0.00000  0.0
     14     13     15     45   5     0.00000     0.00000     0.00000  0.0
     14     13     15     46   5     0.00000     0.00000     0.00000  0.0
     13     15     16     17   5    -8.00818    -1.52298     2.46438  0.0
     13     15     16     47   5     0.00000     0.00000    -0.94140  0.0
     13     15     16     48   5     0.00000     0.00000    -0.94140  0.0
     45     15     16     17   5     0.00000     0.00000     1.25520  0.0
     45     15     16     47   5     0.00000     0.00000     1.25520  0.0
     45     15     16     48   5     0.00000     0.00000     1.25520  0.0
     46     15     16     17   5     0.00000     0.00000     1.25520  0.0
     46     15     16     47   5     0.00000     0.00000     1.25520  0.0
     46     15     16     48   5     0.00000     0.00000     1.25520  0.0
     15     16     17     18   5     4.74884    -0.63178     1.67360  0.0
     15     16     17     49   5     0.00000     0.00000     1.25520  0.0
     15     16     17     50   5     0.00000     0.00000     1.25520  0.0
     47     16     17     18   5     0.00000     0.00000     1.25520  0.0
     47     16     17     49   5     0.00000     0.00000     1.25520  0.0
     47     16     17     50   5     0.00000     0.00000     1.25520  0.0
     48     16     17     18   5     0.00000     0.00000     1.25520  0.0
     48     16     17     49   5     0.00000     0.00000     1.25520  0.0
     48     16     17     50   5     0.00000     0.00000     1.25520  0.0
     16     17     18     19   5     4.74884    -0.63178     1.67360  0.0
     16     17     18     51   5     0.00000     0.00000     1.25520  0.0
     16     17     18     52   5     0.00000     0.00000     1.25520  0.0
     49     17     18     19   5     0.00000     0.00000     1.25520  0.0
     49     17     18     51   5     0.00000     0.00000     1.25520  0.0
     49     17     18     52   5     0.00000     0.00000     1.25520  0.0
     50     17     18     19   5     0.00000     0.00000     1.25520  0.0
     50     17     18     51   5     0.00000     0.00000     1.25520  0.0
     50     17     18     52   5     0.00000     0.00000     1.25520  0.0
     17     18     19     20   5     4.74884    -0.63178     1.67360  0.0
     17     18     19     53   5     0.00000     0.00000     1.25520  0.0
     17     18     19     54   5     0.00000     0.00000     1.25520  0.0
     51     18     19     20   5     0.00000     0.00000     1.25520  0.0
     51     18     19     53   5     0.00000     0.00000     1.25520  0.0
     51     18     19     54   5     0.00000     0.00000     1.25520  0.0
     52     18     19     20   5     0.00000     0.00000     1.25520  0.0
     52     18     19     53   5     0.00000     0.00000     1.25520  0.0
     52     18     19     54   5     0.00000     0.00000     1.25520  0.0
     18     19     20     21   5     4.74884    -0.63178     1.67360  0.0
     18     19     20     55   5     0.00000     0.00000     1.25520  0.0
     18     19     20     56   5     0.00000     0.00000     1.25520  0.0
     53     19     20     21   5     0.00000     0.00000     1.25520  0.0
     53     19     20     55   5     0.00000     0.00000     1.25520  0.0
     53     19     20     56   5     0.00000     0.00000     1.25520  0.0
     54     19     20     21   5     0.00000     0.00000     1.25520  0.0
     54     19     20     55   5     0.00000     0.00000     1.25520  0.0
     54     19     20     56   5     0.00000     0.00000     1.25520  0.0
     19     20     21     22   5     4.74884    -0.63178     1.67360  0.0
     19     20     21     57   5     0.00000     0.00000     1.25520  0.0
     19     20     21     58   5     0.00000     0.00000     1.25520  0.0
     55     20     21     22   5     0.00000     0.00000     1.25520  0.0
     55     20     21     57   5     0.00000     0.00000     1.25520  0.0
     55     20     21     58   5     0.00000     0.00000     1.25520  0.0
     56     20     21     22   5     0.00000     0.00000     1.25520  0.0
     56     20     21     57   5     0.00000     0.00000     1.25520  0.0
     56     20     21     58   5     0.00000     0.00000     1.25520  0.0
     20     21     22     23   5    -8.00818    -1.52298     2.46438  0.0
     20     21     22     59   5     0.00000     0.00000     1.25520  0.0
     20     21     22     60   5     0.00000     0.00000     1.25520  0.0
     57     21     22     23   5     0.00000     0.00000    -0.94140  0.0
     57     21     22     59   5     0.00000     0.00000     1.25520  0.0
     57     21     22     60   5     0.00000     0.00000     1.25520  0.0
     58     21     22     23   5     0.00000     0.00000    -0.94140  0.0
     58     21     22     59   5     0.00000     0.00000     1.25520  0.0
     58     21     22     60   5     0.00000     0.00000     1.25520  0.0
     21     22     23     24   5     0.00000     2.52295     0.00000  0.0
     21     22     23     62   5     0.00000     0.00000     3.07524  0.0
     59     22     23     24   5     0.00000     0.00000     0.00000  0.0
     59     22     23     62   5     0.00000     0.00000     0.00000  0.0
     60     22     23     24   5     0.00000     0.00000     0.00000  0.0
     60     22     23     62   5     0.00000     0.00000     0.00000  0.0
     22     23     62     63   5    13.65239    24.43456     0.00000  0.0
     24     23     62     63   5     0.00000    25.10400     0.00000  0.0
     23     62     63     64   5    -2.16731    -3.93296     0.98324  0.0
     23     62     63     86   5     0.00000     0.00000     0.67362  0.0
     23     62     63     87   5     0.00000     0.00000     0.67362  0.0
     62     63     64     65   5     5.25092    -2.58990     2.28446  0.0
     62     63     64     88   5     0.00000     0.00000     1.95811  0.0
     62     63     64     89   5     0.00000     0.00000     1.95811  0.0
     86     63     64     65   5     0.00000     0.00000     1.25520  0.0
     86     63     64     88   5     0.00000     0.00000     1.25520  0.0
     86     63     64     89   5     0.00000     0.00000     1.25520  0.0
     87     63     64     65   5     0.00000     0.00000     1.25520  0.0
     87     63     64     88   5     0.00000     0.00000     1.25520  0.0
     87     63     64     89   5     0.00000     0.00000     1.25520  0.0
     63     64     65     66   5     4.74884    -0.63178     1.67360  0.0
     63     64     65     90   5     0.00000     0.00000     1.25520  0.0
     63     64     65     91   5     0.00000     0.00000     1.25520  0.0
     88     64     65     66   5     0.00000     0.00000     1.25520  0.0
     88     64     65     90   5     0.00000     0.00000     1.25520  0.0
     88     64     65     91   5     0.00000     0.00000     1.25520  0.0
     89     64     65     66   5     0.00000     0.00000     1.25520  0.0
     89     64     65     90   5     0.00000     0.00000     1.25520  0.0
     89     64     65     91   5     0.00000     0.00000     1.25520  0.0
     64     65     66     67   5     4.74884    -0.63178     1.67360  0.0
     64     65     66     92   5     0.00000     0.00000     1.25520  0.0
     64     65     66     93   5     0.00000     0.00000     1.25520  0.0
     90     65     66     67   5     0.00000     0.00000     1.25520  0.0
     90     65     66     92   5     0.00000     0.00000     1.25520  0.0
     90     65     66     93   5     0.00000     0.00000     1.25520  0.0
     91     65     66     67   5     0.00000     0.00000     1.25520  0.0
     91     65     66     92   5     0.00000     0.00000     1.25520  0.0
     91     65     66     93   5     0.00000     0.00000     1.25520  0.0
     65     66     67     68   5     4.74884    -0.63178     1.67360  0.0
     65     66     67     94   5     0.00000     0.00000     1.25520  0.0
     65     66     67     95   5     0.00000     0.00000     1.25520  0.0
     92     66     67     68   5     0.00000     0.00000     1.25520  0.0
     92     66     67     94   5     0.00000     0.00000     1.25520  0.0
     92     66     67     95   5     0.00000     0.00000     1.25520  0.0
     93     66     67     68   5     0.00000     0.00000     1.25520  0.0
     93     66     67     94   5     0.00000     0.00000     1.25520  0.0
     93     66     67     95   5     0.00000     0.00000     1.25520  0.0
     66     67     68     69   5     4.74884    -0.63178     1.67360  0.0
     66     67     68     96   5     0.00000     0.00000     1.25520  0.0
     66     67     68     97   5     0.00000     0.00000     1.25520  0.0
     94     67     68     69   5     0.00000     0.00000     1.25520  0.0
     94     67     68     96   5     0.00000     0.00000     1.25520  0.0
     94     67     68     97   5     0.00000     0.00000     1.25520  0.0
     95     67     68     69   5     0.00000     0.00000     1.25520  0.0
     95     67     68     96   5     0.00000     0.00000     1.25520  0.0
     95     67     68     97   5     0.00000     0.00000     1.25520  0.0
     67     68     69     70   5     4.74884    -0.63178     1.67360  0.0
     67     68     69     98   5     0.00000     0.00000     1.25520  0.0
     67     68     69     99   5     0.00000     0.00000     1.25520  0.0
     96     68     69     70   5     0.00000     0.00000     1.25520  0.0
     96     68     69     98   5     0.00000     0.00000     1.25520  0.0
     96     68     69     99   5     0.00000     0.00000     1.25520  0.0
     97     68     69     70   5     0.00000     0.00000     1.25520  0.0
     97     68     69     98   5     0.00000     0.00000     1.25520  0.0
     97     68     69     99   5     0.00000     0.00000     1.25520  0.0
     68     69     70     71   5     4.74884    -0.63178     1.67360  0.0
     68     69     70    100   5     0.00000     0.00000     1.25520  0.0
     68     69     70    101   5     0.00000     0.00000     1.25520  0.0
     98     69     70     71   5     0.00000     0.00000     1.25520  0.0
     98     69     70    100   5     0.00000     0.00000     1.25520  0.0
     98     69     70    101   5     0.00000     0.00000     1.25520  0.0
     99     69     70     71   5     0.00000     0.00000     1.25520  0.0
     99     69     70    100   5     0.00000     0.00000     1.25520  0.0
     99     69     70    101   5     0.00000     0.00000     1.25520  0.0
     69     70     71     72   5     4.74884    -0.63178     1.67360  0.0
     69     70     71    102   5     0.00000     0.00000     1.25520  0.0
     69     70     71    103   5     0.00000     0.00000     1.25520  0.0
    100     70     71     72   5     0.00000     0.00000     1.25520  0.0
    100     70     71    102   5     0.00000     0.00000     1.25520  0.0
    100     70     71    103   5     0.00000     0.00000     1.25520  0.0
    101     70     71     72   5     0.00000     0.00000     1.25520  0.0
    101     70     71    102   5     0.00000     0.00000     1.25520  0.0
    101     70     71    103   5     0.00000     0.00000     1.25520  0.0
     70     71     72     73   5     5.25092    -2.58990     2.28446  0.0
     70     71     72    104   5     0.00000     0.00000     1.25520  0.0
     70     71     72    105   5     0.00000     0.00000     1.25520  0.0
    102     71     72     73   5     0.00000     0.00000     1.95811  0.0
    102     71     72    104   5     0.00000     0.00000     1.25520  0.0
    102     71     72    105   5     0.00000     0.00000     1.25520  0.0
    103     71     72     73   5     0.00000     0.00000     1.95811  0.0
    103     71     72    104   5     0.00000     0.00000     1.25520  0.0
    103     71     72    105   5     0.00000     0.00000     1.25520  0.0
     71     72     73     74   5    -2.16731    -3.93296     0.98324  0.0
    104     72     73     74   5     0.00000     0.00000     0.67362  0.0
    105     72     73     74   5     0.00000     0.00000     0.67362  0.0
     72     73     74     75   5     0.00000    25.10400     0.00000  0.0
     72     73     74     76   5    13.65239    24.43456     0.00000  0.0
     73     74     76     77   5     0.00000     0.00000     3.07524  0.0
     73     74     76    106   5     0.00000     0.00000     0.00000  0.0
     73     74     76    107   5     0.00000     0.00000     0.00000  0.0
     75     74     76     77   5     0.00000     2.52295     0.00000  0.0
     75     74     76    106   5     0.00000     0.00000     0.00000  0.0
     75     74     76    107   5     0.00000     0.00000     0.00000  0.0
     74     76     77     78   5    -8.00818    -1.52298     2.46438  0.0
     74     76     77    108   5     0.00000     0.00000    -0.94140  0.0
     74     76     77    109   5     0.00000     0.00000    -0.94140  0.0
    106     76     77     78   5     0.00000     0.00000     1.25520  0.0
    106     76     77    108   5     0.00000     0.00000     1.25520  0.0
    106     76     77    109   5     0.00000     0.00000     1.25520  0.0
    107     76     77     78   5     0.00000     0.00000     1.25520  0.0
    107     76     77    108   5     0.00000     0.00000     1.25520  0.0
    107     76     77    109   5     0.00000     0.00000     1.25520  0.0
     76     77     78     79   5     4.74884    -0.63178     1.67360  0.0
     76     77     78    110   5     0.00000     0.00000     1.25520  0.0
     76     77     78    111   5     0.00000     0.00000     1.25520  0.0
    108     77     78     79   5     0.00000     0.00000     1.25520  0.0
    108     77     78    110   5     0.00000     0.00000     1.25520  0.0
    108     77     78    111   5     0.00000     0.00000     1.25520  0.0
    109     77     78     79   5     0.00000     0.00000     1.25520  0.0
    109     77     78    110   5     0.00000     0.00000     1.25520  0.0
    109     77     78    111   5     0.00000     0.00000     1.25520  0.0
     77     78     79     80   5     4.74884    -0.63178     1.67360  0.0
     77     78     79    112   5     0.00000     0.00000     1.25520  0.0
     77     78     79    113   5     0.00000     0.00000     1.25520  0.0
    110     78     79     80   5     0.00000     0.00000     1.25520  0.0
    110     78     79    112   5     0.00000     0.00000     1.25520  0.0
    110     78     79    113   5     0.00000     0.00000     1.25520  0.0
    111     78     79     80   5     0.00000     0.00000     1.25520  0.0
    111     78     79    112   5     0.00000     0.00000     1.25520  0.0
    111     78     79    113   5     0.00000     0.00000     1.25520  0.0
     78     79     80     81   5     4.74884    -0.63178     1.67360  0.0
     78     79     80    114   5     0.00000     0.00000     1.25520  0.0
     78     79     80    115   5     0.00000     0.00000     1.25520  0.0
    112     79     80     81   5     0.00000     0.00000     1.25520  0.0
    112     79     80    114   5     0.00000     0.00000     1.25520  0.0
    112     79     80    115   5     0.00000     0.00000     1.25520  0.0
    113     79     80     81   5     0.00000     0.00000     1.25520  0.0
    113     79     80    114   5     0.00000     0.00000     1.25520  0.0
    113     79     80    115   5     0.00000     0.00000     1.25520  0.0
     79     80     81     82   5     4.74884    -0.63178     1.67360  0.0
     79     80     81    116   5     0.00000     0.00000     1.25520  0.0
     79     80     81    117   5     0.00000     0.00000     1.25520  0.0
    114     80     81     82   5     0.00000     0.00000     1.25520  0.0
    114     80     81    116   5     0.00000     0.00000     1.25520  0.0
    114     80     81    117   5     0.00000     0.00000     1.25520  0.0
    115     80     81     82   5     0.00000     0.00000     1.25520  0.0
    115     80     81    116   5     0.00000     0.00000     1.25520  0.0
    115     80     81    117   5     0.00000     0.00000     1.25520  0.0
     80     81     82     83   5     4.74884    -0.63178     1.67360  0.0
     80     81     82    118   5     0.00000     0.00000     1.25520  0.0
     80     81     82    119   5     0.00000     0.00000     1.25520  0.0
    116     81     82     83   5     0.00000     0.00000     1.25520  0.0
    116     81     82    118   5     0.00000     0.00000     1.25520  0.0
    116     81     82    119   5     0.00000     0.00000     1.25520  0.0
    117     81     82     83   5     0.00000     0.00000     1.25520  0.0
    117     81     82    118   5     0.00000     0.00000     1.25520  0.0
    117     81     82    119   5     0.00000     0.00000     1.25520  0.0
     81     82     83     84   5    -8.00818    -1.52298     2.46438  0.0
     81     82     83    120   5     0.00000     0.00000     1.25520  0.0
     81     82     83    121   5     0.00000     0.00000     1.25520  0.0
    118     82     83     84   5     0.00000     0.00000    -0.94140  0.0
    118     82     83    120   5     0.00000     0.00000     1.25520  0.0
    118     82     83    121   5     0.00000     0.00000     1.25520  0.0
    119     82     83     84   5     0.00000     0.00000    -0.94140  0.0
    119     82     83    120   5     0.00000     0.00000     1.25520  0.0
    119     82     83    121   5     0.00000     0.00000     1.25520  0.0
     82     83     84     85   5     0.00000     2.52295     0.00000  0.0
     82     83     84    122   5     0.00000     0.00000     3.07524  0.0
    120     83     84     85   5     0.00000     0.00000     0.00000  0.0
    120     83     84    122   5     0.00000     0.00000     0.00000  0.0
    121     83     84     85   5     0.00000     0.00000     0.00000  0.0
    121     83     84    122   5     0.00000     0.00000     0.00000  0.0
     83     84    122    123   5    13.65239    24.43456     0.00000  0.0
     85     84    122    123   5     0.00000    25.10400     0.00000  0.0
     84    122    123    124   5    -2.16731    -3.93296     0.98324  0.0
     84    122    123    146   5     0.00000     0.00000     0.67362  0.0
     84    122    123    147   5     0.00000     0.00000     0.67362  0.0
    122    123    124    125   5     5.25092    -2.58990     2.28446  0.0
    122    123    124    148   5     0.00000     0.00000     1.95811  0.0
    122    123    124    149   5     0.00000     0.00000     1.95811  0.0
    146    123    124    125   5     0.00000     0.00000     1.25520  0.0
    146    123    124    148   5     0.00000     0.00000     1.25520  0.0
    146    123    124    149   5     0.00000     0.00000     1.25520  0.0
    147    123    124    125   5     0.00000     0.00000     1.25520  0.0
    147    123    124    148   5     0.00000     0.00000     1.25520  0.0
    147    123    124    149   5     0.00000     0.00000     1.25520  0.0
    123    124    125    126   5     4.74884    -0.63178     1.67360  0.0
    123    124    125    150   5     0.00000     0.00000     1.25520  0.0
    123    124    125    151   5     0.00000     0.00000     1.25520  0.0
    148    124    125    126   5     0.00000     0.00000     1.25520  0.0
    148    124    125    150   5     0.00000     0.00000     1.25520  0.0
    148    124    125    151   5     0.00000     0.00000     1.25520  0.0
    149    124    125    126   5     0.00000     0.00000     1.25520  0.0
    149    124    125    150   5     0.00000     0.00000     1.25520  0.0
    149    124    125    151   5     0.00000     0.00000     1.25520  0.0
    124    125    126    127   5     4.74884    -0.63178     1.67360  0.0
    124    125    126    152   5     0.00000     0.00000     1.25520  0.0
    124    125    126    153   5     0.00000     0.00000     1.25520  0.0
    150    125    126    127   5     0.00000     0.00000     1.25520  0.0
    150    125    126    152   5     0.00000     0.00000     1.25520  0.0
    150    125    126    153   5     0.00000     0.00000     1.25520  0.0
    151    125    126    127   5     0.00000     0.00000     1.25520  0.0
    151    125    126    152   5     0.00000     0.00000     1.25520  0.0
    151    125    126    153   5     0.00000     0.00000     1.25520  0.0
    125    126    127    128   5     4.74884    -0.63178     1.67360  0.0
    125    126    127    154   5     0.00000     0.00000     1.25520  0.0
    125    126    127    155   5     0.00000     0.00000     1.25520  0.0
    152    126    127    128   5     0.00000     0.00000     1.25520  0.0
    152    126    127    154   5     0.00000     0.00000     1.25520  0.0
    152    126    127    155   5     0.00000     0.00000     1.25520  0.0
    153    126    127    128   5     0.00000     0.00000     1.25520  0.0
    153    126    127    154   5     0.00000     0.00000     1.25520  0.0
    153    126    127    155   5     0.00000     0.00000     1.25520  0.0
    126    127    128    129   5     4.74884    -0.63178     1.67360  0.0
    126    127    128    156   5     0.00000     0.00000     1.25520  0.0
    126    127    128    157   5     0.00000     0.00000     1.25520  0.0
    154    127    128    129   5     0.00000     0.00000     1.25520  0.0
    154    127    128    156   5     0.00000     0.00000     1.25520  0.0
    154    127    128    157   5     0.00000     0.00000     1.25520  0.0
    155    127    128    129   5     0.00000     0.00000     1.25520  0.0
    155    127    128    156   5     0.00000     0.00000     1.25520  0.0
    155    127    128    157   5     0.00000     0.00000     1.25520  0.0
    127    128    129    130   5     4.74884    -0.63178     1.67360  0.0
    127    128    129    158   5     0.00000     0.00000     1.25520  0.0
    127    128    129    159   5     0.00000     0.00000     1.25520  0.0
    156    128    129    130   5     0.00000     0.00000     1.25520  0.0
    156    128    129    158   5     0.00000     0.00000     1.25520  0.0
    156    128    129    159   5     0.00000     0.00000     1.25520  0.0
    157    128    129    130   5     0.00000     0.00000     1.25520  0.0
    157    128    129    158   5     0.00000     0.00000     1.25520  0.0
    157    128    129    159   5     0.00000     0.00000     1.25520  0.0
    128    129    130    131   5     4.74884    -0.63178     1.67360  0.0
    128    129    130    160   5     0.00000     0.00000     1.25520  0.0
    128    129    130    161   5     0.00000     0.00000     1.25520  0.0
    158    129    130    131   5     0.00000     0.00000     1.25520  0.0
    158    129    130    160   5     0.00000     0.00000     1.25520  0.0
    158    129    130    161   5     0.00000     0.00000     1.25520  0.0
    159    129    130    131   5     0.00000     0.00000     1.25520  0.0
    159    129    130    160   5     0.00000     0.00000     1.25520  0.0
    159    129    130    161   5     0.00000     0.00000     1.25520  0.0
    129    130    131    132   5     4.74884    -0.63178     1.67360  0.0
    129    130    131    162   5     0.00000     0.00000     1.25520  0.0
    129    130    131    163   5     0.00000     0.00000     1.25520  0.0
    160    130    131    132   5     0.00000     0.00000     1.25520  0.0
    160    130    131    162   5     0.00000     0.00000     1.25520  0.0
    160    130    131    163   5     0.00000     0.00000     1.25520  0.0
    161    130    131    132   5     0.00000     0.00000     1.25520  0.0
    161    130    131    162   5     0.00000     0.00000     1.25520  0.0
    161    130    131    163   5     0.00000     0.00000     1.25520  0.0
    130    131    132    133   5     5.25092    -2.58990     2.28446  0.0
    130    131    132    164   5     0.00000     0.00000     1.25520  0.0
    130    131    132    165   5     0.00000     0.00000     1.25520  0.0
    162    131    132    133   5     0.00000     0.00000     1.95811  0.0
    162    131    132    164   5     0.00000     0.00000     1.25520  0.0
    162    131    132    165   5     0.00000     0.00000     1.25520  0.0
    163    131    132    133   5     0.00000     0.00000     1.95811  0.0
    163    131    132    164   5     0.00000     0.00000     1.25520  0.0
    163    131    132    165   5     0.00000     0.00000     1.25520  0.0
    131    132    133    134   5    -2.16731    -3.93296     0.98324  0.0
    164    132    133    134   5     0.00000     0.00000     0.67362  0.0
    165    132    133    134   5     0.00000     0.00000     0.67362  0.0
    132    133    134    135   5     0.00000    25.10400     0.00000  0.0
    132    133    134    136   5    13.65239    24.43456     0.00000  0.0
    133    134    136    137   5     0.00000     0.00000     3.07524  0.0
    133    134    136    166   5     0.00000     0.00000     0.00000  0.0
    133    134    136    167   5     0.00000     0.00000     0.00000  0.0
    135    134    136    137   5     0.00000     2.52295     0.00000  0.0
    135    134    136    166   5     0.00000     0.00000     0.00000  0.0
    135    134    136    167   5     0.00000     0.00000     0.00000  0.0
    134    136    137    138   5    -8.00818    -1.52298     2.46438  0.0
    134    136    137    168   5     0.00000     0.00000    -0.94140  0.0
    134    136    137    169   5     0.00000     0.00000    -0.94140  0.0
    166    136    137    138   5     0.00000     0.00000     1.25520  0.0
    166    136    137    168   5     0.00000     0.00000     1.25520  0.0
    166    136    137    169   5     0.00000     0.00000     1.25520  0.0
    167    136    137    138   5     0.00000     0.00000     1.25520  0.0
    167    136    137    168   5     0.00000     0.00000     1.25520  0.0
    167    136    137    169   5     0.00000     0.00000     1.25520  0.0
    136    137    138    139   5     4.74884    -0.63178     1.67360  0.0
    136    137    138    170   5     0.00000     0.00000     1.25520  0.0
    136    137    138    171   5     0.00000     0.00000     1.25520  0.0
    168    137    138    139   5     0.00000     0.00000     1.25520  0.0
    168    137    138    170   5     0.00000     0.00000     1.25520  0.0
    168    137    138    171   5     0.00000     0.00000     1.25520  0.0
    169    137    138    139   5     0.00000     0.00000     1.25520  0.0
    169    137    138    170   5     0.00000     0.00000     1.25520  0.0
    169    137    138    171   5     0.00000     0.00000     1.25520  0.0
    137    138    139    140   5     4.74884    -0.63178     1.67360  0.0
    137    138    139    172   5     0.00000     0.00000     1.25520  0.0
    137    138    139    173   5     0.00000     0.00000     1.25520  0.0
    170    138    139    140   5     0.00000     0.00000     1.25520  0.0
    170    138    139    172   5     0.00000     0.00000     1.25520  0.0
    170    138    139    173   5     0.00000     0.00000     1.25520  0.0
    171    138    139    140   5     0.00000     0.00000     1.25520  0.0
    171    138    139    172   5     0.00000     0.00000     1.25520  0.0
    171    138    139    173   5     0.00000     0.00000     1.25520  0.0
    138    139    140    141   5     4.74884    -0.63178     1.67360  0.0
    138    139    140    174   5     0.00000     0.00000     1.25520  0.0
    138    139    140    175   5     0.00000     0.00000     1.25520  0.0
    172    139    140    141   5     0.00000     0.00000     1.25520  0.0
    172    139    140    174   5     0.00000     0.00000     1.25520  0.0
    172    139    140    175   5     0.00000     0.00000     1.25520  0.0
    173    139    140    141   5     0.00000     0.00000     1.25520  0.0
    173    139    140    174   5     0.00000     0.00000     1.25520  0.0
    173    139    140    175   5     0.00000     0.00000     1.25520  0.0
    139    140    141    142   5     4.74884    -0.63178     1.67360  0.0
    139    140    141    176   5     0.00000     0.00000     1.25520  0.0
    139    140    141    177   5     0.00000     0.00000     1.25520  0.0
    174    140    141    142   5     0.00000     0.00000     1.25520  0.0
    174    140    141    176   5     0.00000     0.00000     1.25520  0.0
    174    140    141    177   5     0.00000     0.00000     1.25520  0.0
    175    140    141    142   5     0.00000     0.00000     1.25520  0.0
    175    140    141    176   5     0.00000     0.00000     1.25520  0.0
    175    140    141    177   5     0.00000     0.00000     1.25520  0.0
    140    141    142    143   5     4.74884    -0.63178     1.67360  0.0
    140    141    142    178   5     0.00000     0.00000     1.25520  0.0
    140    141    142    179   5     0.00000     0.00000     1.25520  0.0
    176    141    142    143   5     0.00000     0.00000     1.25520  0.0
    176    141    142    178   5     0.00000     0.00000     1.25520  0.0
    176    141    142    179   5     0.00000     0.00000     1.25520  0.0
    177    141    142    143   5     0.00000     0.00000     1.25520  0.0
    177    141    142    178   5     0.00000     0.00000     1.25520  0.0
    177    141    142    179   5     0.00000     0.00000     1.25520  0.0
    141    142    143    144   5    -8.00818    -1.52298     2.46438  0.0
    141    142    143    180   5     0.00000     0.00000     1.25520  0.0
    141    142    143    181   5     0.00000     0.00000     1.25520  0.0
    178    142    143    144   5     0.00000     0.00000    -0.94140  0.0
    178    142    143    180   5     0.00000     0.00000     1.25520  0.0
    178    142    143    181   5     0.00000     0.00000     1.25520  0.0
    179    142    143    144   5     0.00000     0.00000    -0.94140  0.0
    179    142    143    180   5     0.00000     0.00000     1.25520  0.0
    179    142    143    181   5     0.00000     0.00000     1.25520  0.0
    142    143    144    145   5     0.00000     2.52295     0.00000  0.0
    142    143    144    182   5     0.00000     0.00000     3.07524  0.0
    180    143    144    145   5     0.00000     0.00000     0.00000  0.0
    180    143    144    182   5     0.00000     0.00000     0.00000  0.0
    181    143    144    145   5     0.00000     0.00000     0.00000  0.0
    181    143    144    182   5     0.00000     0.00000     0.00000  0.0
    143    144    182    183   5    13.65239    24.43456     0.00000  0.0
    145    144    182    183   5     0.00000    25.10400     0.00000  0.0
    144    182    183    184   5    -2.16731    -3.93296     0.98324  0.0
    144    182    183    206   5     0.00000     0.00000     0.67362  0.0
    144    182    183    207   5     0.00000     0.00000     0.67362  0.0
    182    183    184    185   5     5.25092    -2.58990     2.28446  0.0
    182    183    184    208   5     0.00000     0.00000     1.95811  0.0
    182    183    184    209   5     0.00000     0.00000     1.95811  0.0
    206    183    184    185   5     0.00000     0.00000     1.25520  0.0
    206    183    184    208   5     0.00000     0.00000     1.25520  0.0
    206    183    184    209   5     0.00000     0.00000     1.25520  0.0
    207    183    184    185   5     0.00000     0.00000     1.25520  0.0
    207    183    184    208   5     0.00000     0.00000     1.25520  0.0
    207    183    184    209   5     0.00000     0.00000     1.25520  0.0
    183    184    185    186   5     4.74884    -0.63178     1.67360  0.0
    183    184    185    210   5     0.00000     0.00000     1.25520  0.0
    183    184    185    211   5     0.00000     0.00000     1.25520  0.0
    208    184    185    186   5     0.00000     0.00000     1.25520  0.0
    208    184    185    210   5     0.00000     0.00000     1.25520  0.0
    208    184    185    211   5     0.00000     0.00000     1.25520  0.0
    209    184    185    186   5     0.00000     0.00000     1.25520  0.0
    209    184    185    210   5     0.00000     0.00000     1.25520  0.0
    209    184    185    211   5     0.00000     0.00000     1.25520  0.0
    184    185    186    187   5     4.74884    -0.63178     1.67360  0.0
    184    185    186    212   5     0.00000     0.00000     1.25520  0.0
    184    185    186    213   5     0.00000     0.00000     1.25520  0.0
    210    185    186    187   5     0.00000     0.00000     1.25520  0.0
    210    185    186    212   5     0.00000     0.00000     1.25520  0.0
    210    185    186    213   5     0.00000     0.00000     1.25520  0.0
    211    185    186    187   5     0.00000     0.00000     1.25520  0.0
    211    185    186    212   5     0.00000     0.00000     1.25520  0.0
    211    185    186    213   5     0.00000     0.00000     1.25520  0.0
    185    186    187    188   5     4.74884    -0.63178     1.67360  0.0
    185    186    187    214   5     0.00000     0.00000     1.25520  0.0
    185    186    187    215   5     0.00000     0.00000     1.25520  0.0
    212    186    187    188   5     0.00000     0.00000     1.25520  0.0
    212    186    187    214   5     0.00000     0.00000     1.25520  0.0
    212    186    187    215   5     0.00000     0.00000     1.25520  0.0
    213    186    187    188   5     0.00000     0.00000     1.25520  0.0
    213    186    187    214   5     0.00000     0.00000     1.25520  0.0
    213    186    187    215   5     0.00000     0.00000     1.25520  0.0
    186    187    188    189   5     4.74884    -0.63178     1.67360  0.0
    186    187    188    216   5     0.00000     0.00000     1.25520  0.0
    186    187    188    217   5     0.00000     0.00000     1.25520  0.0
    214    187    188    189   5     0.00000     0.00000     1.25520  0.0
    214    187    188    216   5     0.00000     0.00000     1.25520  0.0
    214    187    188    217   5     0.00000     0.00000     1.25520  0.0
    215    187    188    189   5     0.00000     0.00000     1.25520  0.0
    215    187    188    216   5     0.00000     0.00000     1.25520  0.0
    215    187    188    217   5     0.00000     0.00000     1.25520  0.0
    187    188    189    190   5     4.74884    -0.63178     1.67360  0.0
    187    188    189    218   5     0.00000     0.00000     1.25520  0.0
    187    188    189    219   5     0.00000     0.00000     1.25520  0.0
    216    188    189    190   5     0.00000     0.00000     1.25520  0.0
    216    188    189    218   5     0.00000     0.00000     1.25520  0.0
    216    188    189    219   5     0.00000     0.00000     1.25520  0.0
    217    188    189    190   5     0.00000     0.00000     1.25520  0.0
    217    188    189    218   5     0.00000     0.00000     1.25520  0.0
    217    188    189    219   5     0.00000     0.00000     1.25520  0.0
    188    189    190    191   5     4.74884    -0.63178     1.67360  0.0
    188    189    190    220   5     0.00000     0.00000     1.25520  0.0
    188    189    190    221   5     0.00000     0.00000     1.25520  0.0
    218    189    190    191   5     0.00000     0.00000     1.25520  0.0
    218    189    190    220   5     0.00000     0.00000     1.25520  0.0
    218    189    190    221   5     0.00000     0.00000     1.25520  0.0
    219    189    190    191   5     0.00000     0.00000     1.25520  0.0
    219    189    190    220   5     0.00000     0.00000     1.25520  0.0
    219    189    190    221   5     0.00000     0.00000     1.25520  0.0
    189    190    191    192   5     4.74884    -0.63178     1.67360  0.0
    189    190    191    222   5     0.00000     0.00000     1.25520  0.0
    189    190    191    223   5     0.00000     0.00000     1.25520  0.0
    220    190    191    192   5     0.00000     0.00000     1.25520  0.0
    220    190    191    222   5     0.00000     0.00000     1.25520  0.0
    220    190    191    223   5     0.00000     0.00000     1.25520  0.0
    221    190    191    192   5     0.00000     0.00000     1.25520  0.0
    221    190    191    222   5     0.00000     0.00000     1.25520  0.0
    221    190    191    223   5     0.00000     0.00000     1.25520  0.0
    190    191    192    193   5     5.25092    -2.58990     2.28446  0.0
    190    191    192    224   5     0.00000     0.00000     1.25520  0.0
    190    191    192    225   5     0.00000     0.00000     1.25520  0.0
    222    191    192    193   5     0.00000     0.00000     1.95811  0.0
    222    191    192    224   5     0.00000     0.00000     1.25520  0.0
    222    191    192    225   5     0.00000     0.00000     1.25520  0.0
    223    191    192    193   5     0.00000     0.00000     1.95811  0.0
    223    191    192    224   5     0.00000     0.00000     1.25520  0.0
    223    191    192    225   5     0.00000     0.00000     1.25520  0.0
    191    192    193    194   5    -2.16731    -3.93296     0.98324  0.0
    224    192    193    194   5     0.00000     0.00000     0.67362  0.0
    225    192    193    194   5     0.00000     0.00000     0.67362  0.0
    192    193    194    195   5     0.00000    25.10400     0.00000  0.0
    192    193    194    196   5    13.65239    24.43456     0.00000  0.0
    193    194    196    197   5     0.00000     0.00000     3.07524  0.0
    193    194    196    226   5     0.00000     0.00000     0.00000  0.0
    193    194    196    227   5     0.00000     0.00000     0.00000  0.0
    195    194    196    197   5     0.00000     2.52295     0.00000  0.0
    195    194    196    226   5     0.00000     0.00000     0.00000  0.0
    195    194    196    227   5     0.00000     0.00000     0.00000  0.0
    194    196    197    198   5    -8.00818    -1.52298     2.46438  0.0
    194    196    197    228   5     0.00000     0.00000    -0.94140  0.0
    194    196    197    229   5     0.00000     0.00000    -0.94140  0.0
    226    196    197    198   5     0.00000     0.00000     1.25520  0.0
    226    196    197    228   5     0.00000     0.00000     1.25520  0.0
    226    196    197    229   5     0.00000     0.00000     1.25520  0.0
    227    196    197    198   5     0.00000     0.00000     1.25520  0.0
    227    196    197    228   5     0.00000     0.00000     1.25520  0.0
    227    196    197    229   5     0.00000     0.00000     1.25520  0.0
    196    197    198    199   5     4.74884    -0.63178     1.67360  0.0
    196    197    198    230   5     0.00000     0.00000     1.25520  0.0
    196    197    198    231   5     0.00000     0.00000     1.25520  0.0
    228    197    198    199   5     0.00000     0.00000     1.25520  0.0
    228    197    198    230   5     0.00000     0.00000     1.25520  0.0
    228    197    198    231   5     0.00000     0.00000     1.25520  0.0
    229    197    198    199   5     0.00000     0.00000     1.25520  0.0
    229    197    198    230   5     0.00000     0.00000     1.25520  0.0
    229    197    198    231   5     0.00000     0.00000     1.25520  0.0
    197    198    199    200   5     4.74884    -0.63178     1.67360  0.0
    197    198    199    232   5     0.00000     0.00000     1.25520  0.0
    197    198    199    233   5     0.00000     0.00000     1.25520  0.0
    230    198    199    200   5     0.00000     0.00000     1.25520  0.0
    230    198    199    232   5     0.00000     0.00000     1.25520  0.0
    230    198    199    233   5     0.00000     0.00000     1.25520  0.0
    231    198    199    200   5     0.00000     0.00000     1.25520  0.0
    231    198    199    232   5     0.00000     0.00000     1.25520  0.0
    231    198    199    233   5     0.00000     0.00000     1.25520  0.0
    198    199    200    201   5     4.74884    -0.63178     1.67360  0.0
    198    199    200    234   5     0.00000     0.00000     1.25520  0.0
    198    199    200    235   5     0.00000     0.00000     1.25520  0.0
    232    199    200    201   5     0.00000     0.00000     1.25520  0.0
    232    199    200    234   5     0.00000     0.00000     1.25520  0.0
    232    199    200    235   5     0.00000     0.00000     1.25520  0.0
    233    199    200    201   5     0.00000     0.00000     1.25520  0.0
    233    199    200    234   5     0.00000     0.00000     1.25520  0.0
    233    199    200    235   5     0.00000     0.00000     1.25520  0.0
    199    200    201    202   5     4.74884    -0.63178     1.67360  0.0
    199    200    201    236   5     0.00000     0.00000     1.25520  0.0
    199    200    201    237   5     0.00000     0.00000     1.25520  0.0
    234    200    201    202   5     0.00000     0.00000     1.25520  0.0
    234    200    201    236   5     0.00000     0.00000     1.25520  0.0
    234    200    201    237   5     0.00000     0.00000     1.25520  0.0
    235    200    201    202   5     0.00000     0.00000     1.25520  0.0
    235    200    201    236   5     0.00000     0.00000     1.25520  0.0
    235    200    201    237   5     0.00000     0.00000     1.25520  0.0
    200    201    202    203   5     4.74884    -0.63178     1.67360  0.0
    200    201    202    238   5     0.00000     0.00000     1.25520  0.0
    200    201    202    239   5     0.00000     0.00000     1.25520  0.0
    236    201    202    203   5     0.00000     0.00000     1.25520  0.0
    236    201    202    238   5     0.00000     0.00000     1.25520  0.0
    236    201    202    239   5     0.00000     0.00000     1.25520  0.0
    237    201    202    203   5     0.00000     0.00000     1.25520  0.0
    237    201    202    238   5     0.00000     0.00000     1.25520  0.0
    237    201    202    239   5     0.00000     0.00000     1.25520  0.0
    201    202    203    204   5    -8.00818    -1.52298     2.46438  0.0
    201    202    203    240   5     0.00000     0.00000     1.25520  0.0
    201    202    203    241   5     0.00000     0.00000     1.25520  0.0
    238    202    203    204   5     0.00000     0.00000    -0.94140  0.0
    238    202    203    240   5     0.00000     0.00000     1.25520  0.0
    238    202    203    241   5     0.00000     0.00000     1.25520  0.0
    239    202    203    204   5     0.00000     0.00000    -0.94140  0.0
    239    202    203    240   5     0.00000     0.00000     1.25520  0.0
    239    202    203    241   5     0.00000     0.00000     1.25520  0.0
    202    203    204    205   5     0.00000     2.52295     0.00000  0.0
    202    203    204    242   5     0.00000     0.00000     3.07524  0.0
    240    203    204    205   5     0.00000     0.00000     0.00000  0.0
    240    203    204    242   5     0.00000     0.00000     0.00000  0.0
    241    203    204    205   5     0.00000     0.00000     0.00000  0.0
    241    203    204    242   5     0.00000     0.00000     0.00000  0.0
    203    204    242    243   5    13.65239    24.43456     0.00000  0.0
    205    204    242    243   5     0.00000    25.10400     0.00000  0.0
    204    242    243    244   5    -2.16731    -3.93296     0.98324  0.0
    204    242    243    266   5     0.00000     0.00000     0.67362  0.0
    204    242    243    267   5     0.00000     0.00000     0.67362  0.0
    242    243    244    245   5     5.25092    -2.58990     2.28446  0.0
    242    243    244    268   5     0.00000     0.00000     1.95811  0.0
    242    243    244    269   5     0.00000     0.00000     1.95811  0.0
    266    243    244    245   5     0.00000     0.00000     1.25520  0.0
    266    243    244    268   5     0.00000     0.00000     1.25520  0.0
    266    243    244    269   5     0.00000     0.00000     1.25520  0.0
    267    243    244    245   5     0.00000     0.00000     1.25520  0.0
    267    243    244    268   5     0.00000     0.00000     1.25520  0.0
    267    243    244    269   5     0.00000     0.00000     1.25520  0.0
    243    244    245    246   5     4.74884    -0.63178     1.67360  0.0
    243    244    245    270   5     0.00000     0.00000     1.25520  0.0
    243    244    245    271   5     0.00000     0.00000     1.25520  0.0
    268    244    245    246   5     0.00000     0.00000     1.25520  0.0
    268    244    245    270   5     0.00000     0.00000     1.25520  0.0
    268    244    245    271   5     0.00000     0.00000     1.25520  0.0
    269    244    245    246   5     0.00000     0.00000     1.25520  0.0
    269    244    245    270   5     0.00000     0.00000     1.25520  0.0
    269    244    245    271   5     0.00000     0.00000     1.25520  0.0
    244    245    246    247   5     4.74884    -0.63178     1.67360  0.0
    244    245    246    272   5     0.00000     0.00000     1.25520  0.0
    244    245    246    273   5     0.00000     0.00000     1.25520  0.0
    270    245    246    247   5     0.00000     0.00000     1.25520  0.0
    270    245    246    272   5     0.00000     0.00000     1.25520  0.0
    270    245    246    273   5     0.00000     0.00000     1.25520  0.0
    271    245    246    247   5     0.00000     0.00000     1.25520  0.0
    271    245    246    272   5     0.00000     0.00000     1.25520  0.0
    271    245    246    273   5     0.00000     0.00000     1.25520  0.0
    245    246    247    248   5     4.74884    -0.63178     1.67360  0.0
    245    246    247    274   5     0.00000     0.00000     1.25520  0.0
    245    246    247    275   5     0.00000     0.00000     1.25520  0.0
    272    246    247    248   5     0.00000     0.00000     1.25520  0.0
    272    246    247    274   5     0.00000     0.00000     1.25520  0.0
    272    246    247    275   5     0.00000     0.00000     1.25520  0.0
    273    246    247    248   5     0.00000     0.00000     1.25520  0.0
    273    246    247    274   5     0.00000     0.00000     1.25520  0.0
    273    246    247    275   5     0.00000     0.00000     1.25520  0.0
    246    247    248    249   5     4.74884    -0.63178     1.67360  0.0
    246    247    248    276   5     0.00000     0.00000     1.25520  0.0
    246    247    248    277   5     0.00000     0.00000     1.25520  0.0
    274    247    248    249   5     0.00000     0.00000     1.25520  0.0
    274    247    248    276   5     0.00000     0.00000     1.25520  0.0
    274    247    248    277   5     0.00000     0.00000     1.25520  0.0
    275    247    248    249   5     0.00000     0.00000     1.25520  0.0
    275    247    248    276   5     0.00000     0.00000     1.25520  0.0
    275    247    248    277   5     0.00000     0.00000     1.25520  0.0
    247    248    249    250   5     4.74884    -0.63178     1.67360  0.0
    247    248    249    278   5     0.00000     0.00000     1.25520  0.0
    247    248    249    279   5     0.00000     0.00000     1.25520  0.0
    276    248    249    250   5     0.00000     0.00000     1.25520  0.0
    276    248    249    278   5     0.00000     0.00000     1.25520  0.0
    276    248    249    279   5     0.00000     0.00000     1.25520  0.0
    277    248    249    250   5     0.00000     0.00000     1.25520  0.0
    277    248    249    278   5     0.00000     0.00000     1.25520  0.0
    277    248    249    279   5     0.00000     0.00000     1.25520  0.0
    248    249    250    251   5     4.74884    -0.63178     1.67360  0.0
    248    249    250    280   5     0.00000     0.00000     1.25520  0.0
    248    249    250    281   5     0.00000     0.00000     1.25520  0.0
    278    249    250    251   5     0.00000     0.00000     1.25520  0.0
    278    249    250    280   5     0.00000     0.00000     1.25520  0.0
    278    249    250    281   5     0.00000     0.00000     1.25520  0.0
    279    249    250    251   5     0.00000     0.00000     1.25520  0.0
    279    249    250    280   5     0.00000     0.00000     1.25520  0.0
    279    249    250    281   5     0.00000     0.00000     1.25520  0.0
    249    250    251    252   5     4.74884    -0.63178     1.67360  0.0
    249    250    251    282   5     0.00000     0.00000     1.25520  0.0
    249    250    251    283   5     0.00000     0.00000     1.25520  0.0
    280    250    251    252   5     0.00000     0.00000     1.25520  0.0
    280    250    251    282   5     0.00000     0.00000     1.25520  0.0
    280    250    251    283   5     0.00000     0.00000     1.25520  0.0
    281    250    251    252   5     0.00000     0.00000     1.25520  0.0
    281    250    251    282   5     0.00000     0.00000     1.25520  0.0
    281    250    251    283   5     0.00000     0.00000     1.25520  0.0
    250    251    252    253   5     5.25092    -2.58990     2.28446  0.0
    250    251    252    284   5     0.00000     0.00000     1.25520  0.0
    250    251    252    285   5     0.00000     0.00000     1.25520  0.0
    282    251    252    253   5     0.00000     0.00000     1.95811  0.0
    282    251    252    284   5     0.00000     0.00000     1.25520  0.0
    282    251    252    285   5     0.00000     0.00000     1.25520  0.0
    283    251    252    253   5     0.00000     0.00000     1.95811  0.0
    283    251    252    284   5     0.00000     0.00000     1.25520  0.0
    283    251    252    285   5     0.00000     0.00000     1.25520  0.0
    251    252    253    254   5    -2.16731    -3.93296     0.98324  0.0
    284    252    253    254   5     0.00000     0.00000     0.67362  0.0
    285    252    253    254   5     0.00000     0.00000     0.67362  0.0
    252    253    254    255   5     0.00000    25.10400     0.00000  0.0
    252    253    254    256   5    13.65239    24.43456     0.00000  0.0
    253    254    256    257   5     0.00000     0.00000     3.07524  0.0
    253    254    256    286   5     0.00000     0.00000     0.00000  0.0
    253    254    256    287   5     0.00000     0.00000     0.00000  0.0
    255    254    256    257   5     0.00000     2.52295     0.00000  0.0
    255    254    256    286   5     0.00000     0.00000     0.00000  0.0
    255    254    256    287   5     0.00000     0.00000     0.00000  0.0
    254    256    257    258   5    -8.00818    -1.52298     2.46438  0.0
    254    256    257    288   5     0.00000     0.00000    -0.94140  0.0
    254    256    257    289   5     0.00000     0.00000    -0.94140  0.0
    286    256    257    258   5     0.00000     0.00000     1.25520  0.0
    286    256    257    288   5     0.00000     0.00000     1.25520  0.0
    286    256    257    289   5     0.00000     0.00000     1.25520  0.0
    287    256    257    258   5     0.00000     0.00000     1.25520  0.0
    287    256    257    288   5     0.00000     0.00000     1.25520  0.0
    287    256    257    289   5     0.00000     0.00000     1.25520  0.0
    256    257    258    259   5     4.74884    -0.63178     1.67360  0.0
    256    257    258    290   5     0.00000     0.00000     1.25520  0.0
    256    257    258    291   5     0.00000     0.00000     1.25520  0.0
    288    257    258    259   5     0.00000     0.00000     1.25520  0.0
    288    257    258    290   5     0.00000     0.00000     1.25520  0.0
    288    257    258    291   5     0.00000     0.00000     1.25520  0.0
    289    257    258    259   5     0.00000     0.00000     1.25520  0.0
    289    257    258    290   5     0.00000     0.00000     1.25520  0.0
    289    257    258    291   5     0.00000     0.00000     1.25520  0.0
    257    258    259    260   5     4.74884    -0.63178     1.67360  0.0
    257    258    259    292   5     0.00000     0.00000     1.25520  0.0
    257    258    259    293   5     0.00000     0.00000     1.25520  0.0
    290    258    259    260   5     0.00000     0.00000     1.25520  0.0
    290    258    259    292   5     0.00000     0.00000     1.25520  0.0
    290    258    259    293   5     0.00000     0.00000     1.25520  0.0
    291    258    259    260   5     0.00000     0.00000     1.25520  0.0
    291    258    259    292   5     0.00000     0.00000     1.25520  0.0
    291    258    259    293   5     0.00000     0.00000     1.25520  0.0
    258    259    260    261   5     4.74884    -0.63178     1.67360  0.0
    258    259    260    294   5     0.00000     0.00000     1.25520  0.0
    258    259    260    295   5     0.00000     0.00000     1.25520  0.0
    292    259    260    261   5     0.00000     0.00000     1.25520  0.0
    292    259    260    294   5     0.00000     0.00000     1.25520  0.0
    292    259    260    295   5     0.00000     0.00000     1.25520  0.0
    293    259    260    261   5     0.00000     0.00000     1.25520  0.0
    293    259    260    294   5     0.00000     0.00000     1.25520  0.0
    293    259    260    295   5     0.00000     0.00000     1.25520  0.0
    259    260    261    262   5     4.74884    -0.63178     1.67360  0.0
    259    260    261    296   5     0.00000     0.00000     1.25520  0.0
    259    260    261    297   5     0.00000     0.00000     1.25520  0.0
    294    260    261    262   5     0.00000     0.00000     1.25520  0.0
    294    260    261    296   5     0.00000     0.00000     1.25520  0.0
    294    260    261    297   5     0.00000     0.00000     1.25520  0.0
    295    260    261    262   5     0.00000     0.00000     1.25520  0.0
    295    260    261    296   5     0.00000     0.00000     1.25520  0.0
    295    260    261    297   5     0.00000     0.00000     1.25520  0.0
    260    261    262    263   5     4.74884    -0.63178     1.67360  0.0
    260    261    262    298   5     0.00000     0.00000     1.25520  0.0
    260    261    262    299   5     0.00000     0.00000     1.25520  0.0
    296    261    262    263   5     0.00000     0.00000     1.25520  0.0
    296    261    262    298   5     0.00000     0.00000     1.25520  0.0
    296    261    262    299   5     0.00000     0.00000     1.25520  0.0
    297    261    262    263   5     0.00000     0.00000     1.25520  0.0
    297    261    262    298   5     0.00000     0.00000     1.25520  0.0
    297    261    262    299   5     0.00000     0.00000     1.25520  0.0
    261    262    263    264   5    -8.00818    -1.52298     2.46438  0.0
    261    262    263    300   5     0.00000     0.00000     1.25520  0.0
    261    262    263    301   5     0.00000     0.00000     1.25520  0.0
    298    262    263    264   5     0.00000     0.00000    -0.94140  0.0
    298    262    263    300   5     0.00000     0.00000     1.25520  0.0
    298    262    263    301   5     0.00000     0.00000     1.25520  0.0
    299    262    263    264   5     0.00000     0.00000    -0.94140  0.0
    299    262    263    300   5     0.00000     0.00000     1.25520  0.0
    299    262    263    301   5     0.00000     0.00000     1.25520  0.0
    262    263    264    265   5     0.00000     2.52295     0.00000  0.0
    262    263    264    302   5     0.00000     0.00000     3.07524  0.0
    300    263    264    265   5     0.00000     0.00000     0.00000  0.0
    300    263    264    302   5     0.00000     0.00000     0.00000  0.0
    301    263    264    265   5     0.00000     0.00000     0.00000  0.0
    301    263    264    302   5     0.00000     0.00000     0.00000  0.0
    263    264    302    303   5    13.65239    24.43456     0.00000  0.0
    265    264    302    303   5     0.00000    25.10400     0.00000  0.0
    264    302    303    304   5    -2.16731    -3.93296     0.98324  0.0
    264    302    303    326   5     0.00000     0.00000     0.67362  0.0
    264    302    303    327   5     0.00000     0.00000     0.67362  0.0
    302    303    304    305   5     5.25092    -2.58990     2.28446  0.0
    302    303    304    328   5     0.00000     0.00000     1.95811  0.0
    302    303    304    329   5     0.00000     0.00000     1.95811  0.0
    326    303    304    305   5     0.00000     0.00000     1.25520  0.0
    326    303    304    328   5     0.00000     0.00000     1.25520  0.0
    326    303    304    329   5     0.00000     0.00000     1.25520  0.0
    327    303    304    305   5     0.00000     0.00000     1.25520  0.0
    327    303    304    328   5     0.00000     0.00000     1.25520  0.0
    327    303    304    329   5     0.00000     0.00000     1.25520  0.0
    303    304    305    306   5     4.74884    -0.63178     1.67360  0.0
    303    304    305    330   5     0.00000     0.00000     1.25520  0.0
    303    304    305    331   5     0.00000     0.00000     1.25520  0.0
    328    304    305    306   5     0.00000     0.00000     1.25520  0.0
    328    304    305    330   5     0.00000     0.00000     1.25520  0.0
    328    304    305    331   5     0.00000     0.00000     1.25520  0.0
    329    304    305    306   5     0.00000     0.00000     1.25520  0.0
    329    304    305    330   5     0.00000     0.00000     1.25520  0.0
    329    304    305    331   5     0.00000     0.00000     1.25520  0.0
    304    305    306    307   5     4.74884    -0.63178     1.67360  0.0
    304    305    306    332   5     0.00000     0.00000     1.25520  0.0
    304    305    306    333   5     0.00000     0.00000     1.25520  0.0
    330    305    306    307   5     0.00000     0.00000     1.25520  0.0
    330    305    306    332   5     0.00000     0.00000     1.25520  0.0
    330    305    306    333   5     0.00000     0.00000     1.25520  0.0
    331    305    306    307   5     0.00000     0.00000     1.25520  0.0
    331    305    306    332   5     0.00000     0.00000     1.25520  0.0
    331    305    306    333   5     0.00000     0.00000     1.25520  0.0
    305    306    307    308   5     4.74884    -0.63178     1.67360  0.0
    305    306    307    334   5     0.00000     0.00000     1.25520  0.0
    305    306    307    335   5     0.00000     0.00000     1.25520  0.0
    332    306    307    308   5     0.00000     0.00000     1.25520  0.0
    332    306    307    334   5     0.00000     0.00000     1.25520  0.0
    332    306    307    335   5     0.00000     0.00000     1.25520  0.0
    333    306    307    308   5     0.00000     0.00000     1.25520  0.0
    333    306    307    334   5     0.00000     0.00000     1.25520  0.0
    333    306    307    335   5     0.00000     0.00000     1.25520  0.0
    306    307    308    309   5     4.74884    -0.63178     1.67360  0.0
    306    307    308    336   5     0.00000     0.00000     1.25520  0.0
    306    307    308    337   5     0.00000     0.00000     1.25520  0.0
    334    307    308    309   5     0.00000     0.00000     1.25520  0.0
    334    307    308    336   5     0.00000     0.00000     1.25520  0.0
    334    307    308    337   5     0.00000     0.00000     1.25520  0.0
    335    307    308    309   5     0.00000     0.00000     1.25520  0.0
    335    307    308    336   5     0.00000     0.00000     1.25520  0.0
    335    307    308    337   5     0.00000     0.00000     1.25520  0.0
    307    308    309    310   5     4.74884    -0.63178     1.67360  0.0
    307    308    309    338   5     0.00000     0.00000     1.25520  0.0
    307    308    309    339   5     0.00000     0.00000     1.25520  0.0
    336    308    309    310   5     0.00000     0.00000     1.25520  0.0
    336    308    309    338   5     0.00000     0.00000     1.25520  0.0
    336    308    309    339   5     0.00000     0.00000     1.25520  0.0
    337    308    309    310   5     0.00000     0.00000     1.25520  0.0
    337    308    309    338   5     0.00000     0.00000     1.25520  0.0
    337    308    309    339   5     0.00000     0.00000     1.25520  0.0
    308    309    310    311   5     4.74884    -0.63178     1.67360  0.0
    308    309    310    340   5     0.00000     0.00000     1.25520  0.0
    308    309    310    341   5     0.00000     0.00000     1.25520  0.0
    338    309    310    311   5     0.00000     0.00000     1.25520  0.0
    338    309    310    340   5     0.00000     0.00000     1.25520  0.0
    338    309    310    341   5     0.00000     0.00000     1.25520  0.0
    339    309    310    311   5     0.00000     0.00000     1.25520  0.0
    339    309    310    340   5     0.00000     0.00000     1.25520  0.0
    339    309    310    341   5     0.00000     0.00000     1.25520  0.0
    309    310    311    312   5     4.74884    -0.63178     1.67360  0.0
    309    310    311    342   5     0.00000     0.00000     1.25520  0.0
    309    310    311    343   5     0.00000     0.00000     1.25520  0.0
    340    310    311    312   5     0.00000     0.00000     1.25520  0.0
    340    310    311    342   5     0.00000     0.00000     1.25520  0.0
    340    310    311    343   5     0.00000     0.00000     1.25520  0.0
    341    310    311    312   5     0.00000     0.00000     1.25520  0.0
    341    310    311    342   5     0.00000     0.00000     1.25520  0.0
    341    310    311    343   5     0.00000     0.00000     1.25520  0.0
    310    311    312    313   5     5.25092    -2.58990     2.28446  0.0
    310    311    312    344   5     0.00000     0.00000     1.25520  0.0
    310    311    312    345   5     0.00000     0.00000     1.25520  0.0
    342    311    312    313   5     0.00000     0.00000     1.95811  0.0
    342    311    312    344   5     0.00000     0.00000     1.25520  0.0
    342    311    312    345   5     0.00000     0.00000     1.25520  0.0
    343    311    312    313   5     0.00000     0.00000     1.95811  0.0
    343    311    312    344   5     0.00000     0.00000     1.25520  0.0
    343    311    312    345   5     0.00000     0.00000     1.25520  0.0
    311    312    313    314   5    -2.16731    -3.93296     0.98324  0.0
    344    312    313    314   5     0.00000     0.00000     0.67362  0.0
    345    312    313    314   5     0.00000     0.00000     0.67362  0.0
    312    313    314    315   5     0.00000    25.10400     0.00000  0.0
    312    313    314    316   5    13.65239    24.43456     0.00000  0.0
    313    314    316    317   5     0.00000     0.00000     3.07524  0.0
    313    314    316    346   5     0.00000     0.00000     0.00000  0.0
    313    314    316    347   5     0.00000     0.00000     0.00000  0.0
    315    314    316    317   5     0.00000     2.52295     0.00000  0.0
    315    314    316    346   5     0.00000     0.00000     0.00000  0.0
    315    314    316    347   5     0.00000     0.00000     0.00000  0.0
    314    316    317    318   5    -8.00818    -1.52298     2.46438  0.0
    314    316    317    348   5     0.00000     0.00000    -0.94140  0.0
    314    316    317    349   5     0.00000     0.00000    -0.94140  0.0
    346    316    317    318   5     0.00000     0.00000     1.25520  0.0
    346    316    317    348   5     0.00000     0.00000     1.25520  0.0
    346    316    317    349   5     0.00000     0.00000     1.25520  0.0
    347    316    317    318   5     0.00000     0.00000     1.25520  0.0
    347    316    317    348   5     0.00000     0.00000     1.25520  0.0
    347    316    317    349   5     0.00000     0.00000     1.25520  0.0
    316    317    318    319   5     4.74884    -0.63178     1.67360  0.0
    316    317    318    350   5     0.00000     0.00000     1.25520  0.0
    316    317    318    351   5     0.00000     0.00000     1.25520  0.0
    348    317    318    319   5     0.00000     0.00000     1.25520  0.0
    348    317    318    350   5     0.00000     0.00000     1.25520  0.0
    348    317    318    351   5     0.00000     0.00000     1.25520  0.0
    349    317    318    319   5     0.00000     0.00000     1.25520  0.0
    349    317    318    350   5     0.00000     0.00000     1.25520  0.0
    349    317    318    351   5     0.00000     0.00000     1.25520  0.0
    317    318    319    320   5     4.74884    -0.63178     1.67360  0.0
    317    318    319    352   5     0.00000     0.00000     1.25520  0.0
    317    318    319    353   5     0.00000     0.00000     1.25520  0.0
    350    318    319    320   5     0.00000     0.00000     1.25520  0.0
    350    318    319    352   5     0.00000     0.00000     1.25520  0.0
    350    318    319    353   5     0.00000     0.00000     1.25520  0.0
    351    318    319    320   5     0.00000     0.00000     1.25520  0.0
    351    318    319    352   5     0.00000     0.00000     1.25520  0.0
    351    318    319    353   5     0.00000     0.00000     1.25520  0.0
    318    319    320    321   5     4.74884    -0.63178     1.67360  0.0
    318    319    320    354   5     0.00000     0.00000     1.25520  0.0
    318    319    320    355   5     0.00000     0.00000     1.25520  0.0
    352    319    320    321   5     0.00000     0.00000     1.25520  0.0
    352    319    320    354   5     0.00000     0.00000     1.25520  0.0
    352    319    320    355   5     0.00000     0.00000     1.25520  0.0
    353    319    320    321   5     0.00000     0.00000     1.25520  0.0
    353    319    320    354   5     0.00000     0.00000     1.25520  0.0
    353    319    320    355   5     0.00000     0.00000     1.25520  0.0
    319    320    321    322   5     4.74884    -0.63178     1.67360  0.0
    319    320    321    356   5     0.00000     0.00000     1.25520  0.0
    319    320    321    357   5     0.00000     0.00000     1.25520  0.0
    354    320    321    322   5     0.00000     0.00000     1.25520  0.0
    354    320    321    356   5     0.00000     0.00000     1.25520  0.0
    354    320    321    357   5     0.00000     0.00000     1.25520  0.0
    355    320    321    322   5     0.00000     0.00000     1.25520  0.0
    355    320    321    356   5     0.00000     0.00000     1.25520  0.0
    355    320    321    357   5     0.00000     0.00000     1.25520  0.0
    320    321    322    323   5     4.74884    -0.63178     1.67360  0.0
    320    321    322    358   5     0.00000     0.00000     1.25520  0.0
    320    321    322    359   5     0.00000     0.00000     1.25520  0.0
    356    321    322    323   5     0.00000     0.00000     1.25520  0.0
    356    321    322    358   5     0.00000     0.00000     1.25520  0.0
    356    321    322    359   5     0.00000     0.00000     1.25520  0.0
    357    321    322    323   5     0.00000     0.00000     1.25520  0.0
    357    321    322    358   5     0.00000     0.00000     1.25520  0.0
    357    321    322    359   5     0.00000     0.00000     1.25520  0.0
    321    322    323    324   5    -8.00818    -1.52298     2.46438  0.0
    321    322    323    360   5     0.00000     0.00000     1.25520  0.0
    321    322    323    361   5     0.00000     0.00000     1.25520  0.0
    358    322    323    324   5     0.00000     0.00000    -0.94140  0.0
    358    322    323    360   5     0.00000     0.00000     1.25520  0.0
    358    322    323    361   5     0.00000     0.00000     1.25520  0.0
    359    322    323    324   5     0.00000     0.00000    -0.94140  0.0
    359    322    323    360   5     0.00000     0.00000     1.25520  0.0
    359    322    323    361   5     0.00000     0.00000     1.25520  0.0
    322    323    324    325   5     0.00000     2.52295     0.00000  0.0
    322    323    324    362   5     0.00000     0.00000     3.07524  0.0
    360    323    324    325   5     0.00000     0.00000     0.00000  0.0
    360    323    324    362   5     0.00000     0.00000     0.00000  0.0
    361    323    324    325   5     0.00000     0.00000     0.00000  0.0
    361    323    324    362   5     0.00000     0.00000     0.00000  0.0
    323    324    362    363   5    13.65239    24.43456     0.00000  0.0
    325    324    362    363   5     0.00000    25.10400     0.00000  0.0
    324    362    363    364   5    -2.16731    -3.93296     0.98324  0.0
    324    362    363    386   5     0.00000     0.00000     0.67362  0.0
    324    362    363    387   5     0.00000     0.00000     0.67362  0.0
    362    363    364    365   5     5.25092    -2.58990     2.28446  0.0
    362    363    364    388   5     0.00000     0.00000     1.95811  0.0
    362    363    364    389   5     0.00000     0.00000     1.95811  0.0
    386    363    364    365   5     0.00000     0.00000     1.25520  0.0
    386    363    364    388   5     0.00000     0.00000     1.25520  0.0
    386    363    364    389   5     0.00000     0.00000     1.25520  0.0
    387    363    364    365   5     0.00000     0.00000     1.25520  0.0
    387    363    364    388   5     0.00000     0.00000     1.25520  0.0
    387    363    364    389   5     0.00000     0.00000     1.25520  0.0
    363    364    365    366   5     4.74884    -0.63178     1.67360  0.0
    363    364    365    390   5     0.00000     0.00000     1.25520  0.0
    363    364    365    391   5     0.00000     0.00000     1.25520  0.0
    388    364    365    366   5     0.00000     0.00000     1.25520  0.0
    388    364    365    390   5     0.00000     0.00000     1.25520  0.0
    388    364    365    391   5     0.00000     0.00000     1.25520  0.0
    389    364    365    366   5     0.00000     0.00000     1.25520  0.0
    389    364    365    390   5     0.00000     0.00000     1.25520  0.0
    389    364    365    391   5     0.00000     0.00000     1.25520  0.0
    364    365    366    367   5     4.74884    -0.63178     1.67360  0.0
    364    365    366    392   5     0.00000     0.00000     1.25520  0.0
    364    365    366    393   5     0.00000     0.00000     1.25520  0.0
    390    365    366    367   5     0.00000     0.00000     1.25520  0.0
    390    365    366    392   5     0.00000     0.00000     1.25520  0.0
    390    365    366    393   5     0.00000     0.00000     1.25520  0.0
    391    365    366    367   5     0.00000     0.00000     1.25520  0.0
    391    365    366    392   5     0.00000     0.00000     1.25520  0.0
    391    365    366    393   5     0.00000     0.00000     1.25520  0.0
    365    366    367    368   5     4.74884    -0.63178     1.67360  0.0
    365    366    367    394   5     0.00000     0.00000     1.25520  0.0
    365    366    367    395   5     0.00000     0.00000     1.25520  0.0
    392    366    367    368   5     0.00000     0.00000     1.25520  0.0
    392    366    367    394   5     0.00000     0.00000     1.25520  0.0
    392    366    367    395   5     0.00000     0.00000     1.25520  0.0
    393    366    367    368   5     0.00000     0.00000     1.25520  0.0
    393    366    367    394   5     0.00000     0.00000     1.25520  0.0
    393    366    367    395   5     0.00000     0.00000     1.25520  0.0
    366    367    368    369   5     4.74884    -0.63178     1.67360  0.0
    366    367    368    396   5     0.00000     0.00000     1.25520  0.0
    366    367    368    397   5     0.00000     0.00000     1.25520  0.0
    394    367    368    369   5     0.00000     0.00000     1.25520  0.0
    394    367    368    396   5     0.00000     0.00000     1.25520  0.0
    394    367    368    397   5     0.00000     0.00000     1.25520  0.0
    395    367    368    369   5     0.00000     0.00000     1.25520  0.0
    395    367    368    396   5     0.00000     0.00000     1.25520  0.0
    395    367    368    397   5     0.00000     0.00000     1.25520  0.0
    367    368    369    370   5     4.74884    -0.63178     1.67360  0.0
    367    368    369    398   5     0.00000     0.00000     1.25520  0.0
    367    368    369    399   5     0.00000     0.00000     1.25520  0.0
    396    368    369    370   5     0.00000     0.00000     1.25520  0.0
    396    368    369    398   5     0.00000     0.00000     1.25520  0.0
    396    368    369    399   5     0.00000     0.00000     1.25520  0.0
    397    368    369    370   5     0.00000     0.00000     1.25520  0.0
    397    368    369    398   5     0.00000     0.00000     1.25520  0.0
    397    368    369    399   5     0.00000     0.00000     1.25520  0.0
    368    369    370    371   5     4.74884    -0.63178     1.67360  0.0
    368    369    370    400   5     0.00000     0.00000     1.25520  0.0
    368    369    370    401   5     0.00000     0.00000     1.25520  0.0
    398    369    370    371   5     0.00000     0.00000     1.25520  0.0
    398    369    370    400   5     0.00000     0.00000     1.25520  0.0
    398    369    370    401   5     0.00000     0.00000     1.25520  0.0
    399    369    370    371   5     0.00000     0.00000     1.25520  0.0
    399    369    370    400   5     0.00000     0.00000     1.25520  0.0
    399    369    370    401   5     0.00000     0.00000     1.25520  0.0
    369    370    371    372   5     4.74884    -0.63178     1.67360  0.0
    369    370    371    402   5     0.00000     0.00000     1.25520  0.0
    369    370    371    403   5     0.00000     0.00000     1.25520  0.0
    400    370    371    372   5     0.00000     0.00000     1.25520  0.0
    400    370    371    402   5     0.00000     0.00000     1.25520  0.0
    400    370    371    403   5     0.00000     0.00000     1.25520  0.0
    401    370    371    372   5     0.00000     0.00000     1.25520  0.0
    401    370    371    402   5     0.00000     0.00000     1.25520  0.0
    401    370    371    403   5     0.00000     0.00000     1.25520  0.0
    370    371    372    373   5     5.25092    -2.58990     2.28446  0.0
    370    371    372    404   5     0.00000     0.00000     1.25520  0.0
    370    371    372    405   5     0.00000     0.00000     1.25520  0.0
    402    371    372    373   5     0.00000     0.00000     1.95811  0.0
    402    371    372    404   5     0.00000     0.00000     1.25520  0.0
    402    371    372    405   5     0.00000     0.00000     1.25520  0.0
    403    371    372    373   5     0.00000     0.00000     1.95811  0.0
    403    371    372    404   5     0.00000     0.00000     1.25520  0.0
    403    371    372    405   5     0.00000     0.00000     1.25520  0.0
    371    372    373    374   5    -2.16731    -3.93296     0.98324  0.0
    404    372    373    374   5     0.00000     0.00000     0.67362  0.0
    405    372    373    374   5     0.00000     0.00000     0.67362  0.0
    372    373    374    375   5     0.00000    25.10400     0.00000  0.0
    372    373    374    376   5    13.65239    24.43456     0.00000  0.0
    373    374    376    377   5     0.00000     0.00000     3.07524  0.0
    373    374    376    406   5     0.00000     0.00000     0.00000  0.0
    373    374    376    407   5     0.00000     0.00000     0.00000  0.0
    375    374    376    377   5     0.00000     2.52295     0.00000  0.0
    375    374    376    406   5     0.00000     0.00000     0.00000  0.0
    375    374    376    407   5     0.00000     0.00000     0.00000  0.0
    374    376    377    378   5    -8.00818    -1.52298     2.46438  0.0
    374    376    377    408   5     0.00000     0.00000    -0.94140  0.0
    374    376    377    409   5     0.00000     0.00000    -0.94140  0.0
    406    376    377    378   5     0.00000     0.00000     1.25520  0.0
    406    376    377    408   5     0.00000     0.00000     1.25520  0.0
    406    376    377    409   5     0.00000     0.00000     1.25520  0.0
    407    376    377    378   5     0.00000     0.00000     1.25520  0.0
    407    376    377    408   5     0.00000     0.00000     1.25520  0.0
    407    376    377    409   5     0.00000     0.00000     1.25520  0.0
    376    377    378    379   5     4.74884    -0.63178     1.67360  0.0
    376    377    378    410   5     0.00000     0.00000     1.25520  0.0
    376    377    378    411   5     0.00000     0.00000     1.25520  0.0
    408    377    378    379   5     0.00000     0.00000     1.25520  0.0
    408    377    378    410   5     0.00000     0.00000     1.25520  0.0
    408    377    378    411   5     0.00000     0.00000     1.25520  0.0
    409    377    378    379   5     0.00000     0.00000     1.25520  0.0
    409    377    378    410   5     0.00000     0.00000     1.25520  0.0
    409    377    378    411   5     0.00000     0.00000     1.25520  0.0
    377    378    379    380   5     4.74884    -0.63178     1.67360  0.0
    377    378    379    412   5     0.00000     0.00000     1.25520  0.0
    377    378    379    413   5     0.00000     0.00000     1.25520  0.0
    410    378    379    380   5     0.00000     0.00000     1.25520  0.0
    410    378    379    412   5     0.00000     0.00000     1.25520  0.0
    410    378    379    413   5     0.00000     0.00000     1.25520  0.0
    411    378    379    380   5     0.00000     0.00000     1.25520  0.0
    411    378    379    412   5     0.00000     0.00000     1.25520  0.0
    411    378    379    413   5     0.00000     0.00000     1.25520  0.0
    378    379    380    381   5     4.74884    -0.63178     1.67360  0.0
    378    379    380    414   5     0.00000     0.00000     1.25520  0.0
    378    379    380    415   5     0.00000     0.00000     1.25520  0.0
    412    379    380    381   5     0.00000     0.00000     1.25520  0.0
    412    379    380    414   5     0.00000     0.00000     1.25520  0.0
    412    379    380    415   5     0.00000     0.00000     1.25520  0.0
    413    379    380    381   5     0.00000     0.00000     1.25520  0.0
    413    379    380    414   5     0.00000     0.00000     1.25520  0.0
    413    379    380    415   5     0.00000     0.00000     1.25520  0.0
    379    380    381    382   5     4.74884    -0.63178     1.67360  0.0
    379    380    381    416   5     0.00000     0.00000     1.25520  0.0
    379    380    381    417   5     0.00000     0.00000     1.25520  0.0
    414    380    381    382   5     0.00000     0.00000     1.25520  0.0
    414    380    381    416   5     0.00000     0.00000     1.25520  0.0
    414    380    381    417   5     0.00000     0.00000     1.25520  0.0
    415    380    381    382   5     0.00000     0.00000     1.25520  0.0
    415    380    381    416   5     0.00000     0.00000     1.25520  0.0
    415    380    381    417   5     0.00000     0.00000     1.25520  0.0
    380    381    382    383   5     4.74884    -0.63178     1.67360  0.0
    380    381    382    418   5     0.00000     0.00000     1.25520  0.0
    380    381    382    419   5     0.00000     0.00000     1.25520  0.0
    416    381    382    383   5     0.00000     0.00000     1.25520  0.0
    416    381    382    418   5     0.00000     0.00000     1.25520  0.0
    416    381    382    419   5     0.00000     0.00000     1.25520  0.0
    417    381    382    383   5     0.00000     0.00000     1.25520  0.0
    417    381    382    418   5     0.00000     0.00000     1.25520  0.0
    417    381    382    419   5     0.00000     0.00000     1.25520  0.0
    381    382    383    384   5    -8.00818    -1.52298     2.46438  0.0
    381    382    383    420   5     0.00000     0.00000     1.25520  0.0
    381    382    383    421   5     0.00000     0.00000     1.25520  0.0
    418    382    383    384   5     0.00000     0.00000    -0.94140  0.0
    418    382    383    420   5     0.00000     0.00000     1.25520  0.0
    418    382    383    421   5     0.00000     0.00000     1.25520  0.0
    419    382    383    384   5     0.00000     0.00000    -0.94140  0.0
    419    382    383    420   5     0.00000     0.00000     1.25520  0.0
    419    382    383    421   5     0.00000     0.00000     1.25520  0.0
    382    383    384    385   5     0.00000     2.52295     0.00000  0.0
    382    383    384    422   5     0.00000     0.00000     3.07524  0.0
    420    383    384    385   5     0.00000     0.00000     0.00000  0.0
    420    383    384    422   5     0.00000     0.00000     0.00000  0.0
    421    383    384    385   5     0.00000     0.00000     0.00000  0.0
    421    383    384    422   5     0.00000     0.00000     0.00000  0.0
    383    384    422    423   5    13.65239    24.43456     0.00000  0.0
    385    384    422    423   5     0.00000    25.10400     0.00000  0.0
    384    422    423    424   5    -2.16731    -3.93296     0.98324  0.0
    384    422    423    446   5     0.00000     0.00000     0.67362  0.0
    384    422    423    447   5     0.00000     0.00000     0.67362  0.0
    422    423    424    425   5     5.25092    -2.58990     2.28446  0.0
    422    423    424    448   5     0.00000     0.00000     1.95811  0.0
    422    423    424    449   5     0.00000     0.00000     1.95811  0.0
    446    423    424    425   5     0.00000     0.00000     1.25520  0.0
    446    423    424    448   5     0.00000     0.00000     1.25520  0.0
    446    423    424    449   5     0.00000     0.00000     1.25520  0.0
    447    423    424    425   5     0.00000     0.00000     1.25520  0.0
    447    423    424    448   5     0.00000     0.00000     1.25520  0.0
    447    423    424    449   5     0.00000     0.00000     1.25520  0.0
    423    424    425    426   5     4.74884    -0.63178     1.67360  0.0
    423    424    425    450   5     0.00000     0.00000     1.25520  0.0
    423    424    425    451   5     0.00000     0.00000     1.25520  0.0
    448    424    425    426   5     0.00000     0.00000     1.25520  0.0
    448    424    425    450   5     0.00000     0.00000     1.25520  0.0
    448    424    425    451   5     0.00000     0.00000     1.25520  0.0
    449    424    425    426   5     0.00000     0.00000     1.25520  0.0
    449    424    425    450   5     0.00000     0.00000     1.25520  0.0
    449    424    425    451   5     0.00000     0.00000     1.25520  0.0
    424    425    426    427   5     4.74884    -0.63178     1.67360  0.0
    424    425    426    452   5     0.00000     0.00000     1.25520  0.0
    424    425    426    453   5     0.00000     0.00000     1.25520  0.0
    450    425    426    427   5     0.00000     0.00000     1.25520  0.0
    450    425    426    452   5     0.00000     0.00000     1.25520  0.0
    450    425    426    453   5     0.00000     0.00000     1.25520  0.0
    451    425    426    427   5     0.00000     0.00000     1.25520  0.0
    451    425    426    452   5     0.00000     0.00000     1.25520  0.0
    451    425    426    453   5     0.00000     0.00000     1.25520  0.0
    425    426    427    428   5     4.74884    -0.63178     1.67360  0.0
    425    426    427    454   5     0.00000     0.00000     1.25520  0.0
    425    426    427    455   5     0.00000     0.00000     1.25520  0.0
    452    426    427    428   5     0.00000     0.00000     1.25520  0.0
    452    426    427    454   5     0.00000     0.00000     1.25520  0.0
    452    426    427    455   5     0.00000     0.00000     1.25520  0.0
    453    426    427    428   5     0.00000     0.00000     1.25520  0.0
    453    426    427    454   5     0.00000     0.00000     1.25520  0.0
    453    426    427    455   5     0.00000     0.00000     1.25520  0.0
    426    427    428    429   5     4.74884    -0.63178     1.67360  0.0
    426    427    428    456   5     0.00000     0.00000     1.25520  0.0
    426    427    428    457   5     0.00000     0.00000     1.25520  0.0
    454    427    428    429   5     0.00000     0.00000     1.25520  0.0
    454    427    428    456   5     0.00000     0.00000     1.25520  0.0
    454    427    428    457   5     0.00000     0.00000     1.25520  0.0
    455    427    428    429   5     0.00000     0.00000     1.25520  0.0
    455    427    428    456   5     0.00000     0.00000     1.25520  0.0
    455    427    428    457   5     0.00000     0.00000     1.25520  0.0
    427    428    429    430   5     4.74884    -0.63178     1.67360  0.0
    427    428    429    458   5     0.00000     0.00000     1.25520  0.0
    427    428    429    459   5     0.00000     0.00000     1.25520  0.0
    456    428    429    430   5     0.00000     0.00000     1.25520  0.0
    456    428    429    458   5     0.00000     0.00000     1.25520  0.0
    456    428    429    459   5     0.00000     0.00000     1.25520  0.0
    457    428    429    430   5     0.00000     0.00000     1.25520  0.0
    457    428    429    458   5     0.00000     0.00000     1.25520  0.0
    457    428    429    459   5     0.00000     0.00000     1.25520  0.0
    428    429    430    431   5     4.74884    -0.63178     1.67360  0.0
    428    429    430    460   5     0.00000     0.00000     1.25520  0.0
    428    429    430    461   5     0.00000     0.00000     1.25520  0.0
    458    429    430    431   5     0.00000     0.00000     1.25520  0.0
    458    429    430    460   5     0.00000     0.00000     1.25520  0.0
    458    429    430    461   5     0.00000     0.00000     1.25520  0.0
    459    429    430    431   5     0.00000     0.00000     1.25520  0.0
    459    429    430    460   5     0.00000     0.00000     1.25520  0.0
    459    429    430    461   5     0.00000     0.00000     1.25520  0.0
    429    430    431    432   5     4.74884    -0.63178     1.67360  0.0
    429    430    431    462   5     0.00000     0.00000     1.25520  0.0
    429    430    431    463   5     0.00000     0.00000     1.25520  0.0
    460    430    431    432   5     0.00000     0.00000     1.25520  0.0
    460    430    431    462   5     0.00000     0.00000     1.25520  0.0
    460    430    431    463   5     0.00000     0.00000     1.25520  0.0
    461    430    431    432   5     0.00000     0.00000     1.25520  0.0
    461    430    431    462   5     0.00000     0.00000     1.25520  0.0
    461    430    431    463   5     0.00000     0.00000     1.25520  0.0
    430    431    432    433   5     5.25092    -2.58990     2.28446  0.0
    430    431    432    464   5     0.00000     0.00000     1.25520  0.0
    430    431    432    465   5     0.00000     0.00000     1.25520  0.0
    462    431    432    433   5     0.00000     0.00000     1.95811  0.0
    462    431    432    464   5     0.00000     0.00000     1.25520  0.0
    462    431    432    465   5     0.00000     0.00000     1.25520  0.0
    463    431    432    433   5     0.00000     0.00000     1.95811  0.0
    463    431    432    464   5     0.00000     0.00000     1.25520  0.0
    463    431    432    465   5     0.00000     0.00000     1.25520  0.0
    431    432    433    434   5    -2.16731    -3.93296     0.98324  0.0
    464    432    433    434   5     0.00000     0.00000     0.67362  0.0
    465    432    433    434   5     0.00000     0.00000     0.67362  0.0
    432    433    434    435   5     0.00000    25.10400     0.00000  0.0
    432    433    434    436   5    13.65239    24.43456     0.00000  0.0
    433    434    436    437   5     0.00000     0.00000     3.07524  0.0
    433    434    436    466   5     0.00000     0.00000     0.00000  0.0
    433    434    436    467   5     0.00000     0.00000     0.00000  0.0
    435    434    436    437   5     0.00000     2.52295     0.00000  0.0
    435    434    436    466   5     0.00000     0.00000     0.00000  0.0
    435    434    436    467   5     0.00000     0.00000     0.00000  0.0
    434    436    437    438   5    -8.00818    -1.52298     2.46438  0.0
    434    436    437    468   5     0.00000     0.00000    -0.94140  0.0
    434    436    437    469   5     0.00000     0.00000    -0.94140  0.0
    466    436    437    438   5     0.00000     0.00000     1.25520  0.0
    466    436    437    468   5     0.00000     0.00000     1.25520  0.0
    466    436    437    469   5     0.00000     0.00000     1.25520  0.0
    467    436    437    438   5     0.00000     0.00000     1.25520  0.0
    467    436    437    468   5     0.00000     0.00000     1.25520  0.0
    467    436    437    469   5     0.00000     0.00000     1.25520  0.0
    436    437    438    439   5     4.74884    -0.63178     1.67360  0.0
    436    437    438    470   5     0.00000     0.00000     1.25520  0.0
    436    437    438    471   5     0.00000     0.00000     1.25520  0.0
    468    437    438    439   5     0.00000     0.00000     1.25520  0.0
    468    437    438    470   5     0.00000     0.00000     1.25520  0.0
    468    437    438    471   5     0.00000     0.00000     1.25520  0.0
    469    437    438    439   5     0.00000     0.00000     1.25520  0.0
    469    437    438    470   5     0.00000     0.00000     1.25520  0.0
    469    437    438    471   5     0.00000     0.00000     1.25520  0.0
    437    438    439    440   5     4.74884    -0.63178     1.67360  0.0
    437    438    439    472   5     0.00000     0.00000     1.25520  0.0
    437    438    439    473   5     0.00000     0.00000     1.25520  0.0
    470    438    439    440   5     0.00000     0.00000     1.25520  0.0
    470    438    439    472   5     0.00000     0.00000     1.25520  0.0
    470    438    439    473   5     0.00000     0.00000     1.25520  0.0
    471    438    439    440   5     0.00000     0.00000     1.25520  0.0
    471    438    439    472   5     0.00000     0.00000     1.25520  0.0
    471    438    439    473   5     0.00000     0.00000     1.25520  0.0
    438    439    440    441   5     4.74884    -0.63178     1.67360  0.0
    438    439    440    474   5     0.00000     0.00000     1.25520  0.0
    438    439    440    475   5     0.00000     0.00000     1.25520  0.0
    472    439    440    441   5     0.00000     0.00000     1.25520  0.0
    472    439    440    474   5     0.00000     0.00000     1.25520  0.0
    472    439    440    475   5     0.00000     0.00000     1.25520  0.0
    473    439    440    441   5     0.00000     0.00000     1.25520  0.0
    473    439    440    474   5     0.00000     0.00000     1.25520  0.0
    473    439    440    475   5     0.00000     0.00000     1.25520  0.0
    439    440    441    442   5     4.74884    -0.63178     1.67360  0.0
    439    440    441    476   5     0.00000     0.00000     1.25520  0.0
    439    440    441    477   5     0.00000     0.00000     1.25520  0.0
    474    440    441    442   5     0.00000     0.00000     1.25520  0.0
    474    440    441    476   5     0.00000     0.00000     1.25520  0.0
    474    440    441    477   5     0.00000     0.00000     1.25520  0.0
    475    440    441    442   5     0.00000     0.00000     1.25520  0.0
    475    440    441    476   5     0.00000     0.00000     1.25520  0.0
    475    440    441    477   5     0.00000     0.00000     1.25520  0.0
    440    441    442    443   5     4.74884    -0.63178     1.67360  0.0
    440    441    442    478   5     0.00000     0.00000     1.25520  0.0
    440    441    442    479   5     0.00000     0.00000     1.25520  0.0
    476    441    442    443   5     0.00000     0.00000     1.25520  0.0
    476    441    442    478   5     0.00000     0.00000     1.25520  0.0
    476    441    442    479   5     0.00000     0.00000     1.25520  0.0
    477    441    442    443   5     0.00000     0.00000     1.25520  0.0
    477    441    442    478   5     0.00000     0.00000     1.25520  0.0
    477    441    442    479   5     0.00000     0.00000     1.25520  0.0
    441    442    443    444   5    -8.00818    -1.52298     2.46438  0.0
    441    442    443    480   5     0.00000     0.00000     1.25520  0.0
    441    442    443    481   5     0.00000     0.00000     1.25520  0.0
    478    442    443    444   5     0.00000     0.00000    -0.94140  0.0
    478    442    443    480   5     0.00000     0.00000     1.25520  0.0
    478    442    443    481   5     0.00000     0.00000     1.25520  0.0
    479    442    443    444   5     0.00000     0.00000    -0.94140  0.0
    479    442    443    480   5     0.00000     0.00000     1.25520  0.0
    479    442    443    481   5     0.00000     0.00000     1.25520  0.0
    442    443    444    445   5     0.00000     2.52295     0.00000  0.0
    442    443    444    482   5     0.00000     0.00000     3.07524  0.0
    480    443    444    445   5     0.00000     0.00000     0.00000  0.0
    480    443    444    482   5     0.00000     0.00000     0.00000  0.0
    481    443    444    445   5     0.00000     0.00000     0.00000  0.0
    481    443    444    482   5     0.00000     0.00000     0.00000  0.0
    443    444    482    483   5    13.65239    24.43456     0.00000  0.0
    445    444    482    483   5     0.00000    25.10400     0.00000  0.0
    444    482    483    484   5    -2.16731    -3.93296     0.98324  0.0
    444    482    483    506   5     0.00000     0.00000     0.67362  0.0
    444    482    483    507   5     0.00000     0.00000     0.67362  0.0
    482    483    484    485   5     5.25092    -2.58990     2.28446  0.0
    482    483    484    508   5     0.00000     0.00000     1.95811  0.0
    482    483    484    509   5     0.00000     0.00000     1.95811  0.0
    506    483    484    485   5     0.00000     0.00000     1.25520  0.0
    506    483    484    508   5     0.00000     0.00000     1.25520  0.0
    506    483    484    509   5     0.00000     0.00000     1.25520  0.0
    507    483    484    485   5     0.00000     0.00000     1.25520  0.0
    507    483    484    508   5     0.00000     0.00000     1.25520  0.0
    507    483    484    509   5     0.00000     0.00000     1.25520  0.0
    483    484    485    486   5     4.74884    -0.63178     1.67360  0.0
    483    484    485    510   5     0.00000     0.00000     1.25520  0.0
    483    484    485    511   5     0.00000     0.00000     1.25520  0.0
    508    484    485    486   5     0.00000     0.00000     1.25520  0.0
    508    484    485    510   5     0.00000     0.00000     1.25520  0.0
    508    484    485    511   5     0.00000     0.00000     1.25520  0.0
    509    484    485    486   5     0.00000     0.00000     1.25520  0.0
    509    484    485    510   5     0.00000     0.00000     1.25520  0.0
    509    484    485    511   5     0.00000     0.00000     1.25520  0.0
    484    485    486    487   5     4.74884    -0.63178     1.67360  0.0
    484    485    486    512   5     0.00000     0.00000     1.25520  0.0
    484    485    486    513   5     0.00000     0.00000     1.25520  0.0
    510    485    486    487   5     0.00000     0.00000     1.25520  0.0
    510    485    486    512   5     0.00000     0.00000     1.25520  0.0
    510    485    486    513   5     0.00000     0.00000     1.25520  0.0
    511    485    486    487   5     0.00000     0.00000     1.25520  0.0
    511    485    486    512   5     0.00000     0.00000     1.25520  0.0
    511    485    486    513   5     0.00000     0.00000     1.25520  0.0
    485    486    487    488   5     4.74884    -0.63178     1.67360  0.0
    485    486    487    514   5     0.00000     0.00000     1.25520  0.0
    485    486    487    515   5     0.00000     0.00000     1.25520  0.0
    512    486    487    488   5     0.00000     0.00000     1.25520  0.0
    512    486    487    514   5     0.00000     0.00000     1.25520  0.0
    512    486    487    515   5     0.00000     0.00000     1.25520  0.0
    513    486    487    488   5     0.00000     0.00000     1.25520  0.0
    513    486    487    514   5     0.00000     0.00000     1.25520  0.0
    513    486    487    515   5     0.00000     0.00000     1.25520  0.0
    486    487    488    489   5     4.74884    -0.63178     1.67360  0.0
    486    487    488    516   5     0.00000     0.00000     1.25520  0.0
    486    487    488    517   5     0.00000     0.00000     1.25520  0.0
    514    487    488    489   5     0.00000     0.00000     1.25520  0.0
    514    487    488    516   5     0.00000     0.00000     1.25520  0.0
    514    487    488    517   5     0.00000     0.00000     1.25520  0.0
    515    487    488    489   5     0.00000     0.00000     1.25520  0.0
    515    487    488    516   5     0.00000     0.00000     1.25520  0.0
    515    487    488    517   5     0.00000     0.00000     1.25520  0.0
    487    488    489    490   5     4.74884    -0.63178     1.67360  0.0
    487    488    489    518   5     0.00000     0.00000     1.25520  0.0
    487    488    489    519   5     0.00000     0.00000     1.25520  0.0
    516    488    489    490   5     0.00000     0.00000     1.25520  0.0
    516    488    489    518   5     0.00000     0.00000     1.25520  0.0
    516    488    489    519   5     0.00000     0.00000     1.25520  0.0
    517    488    489    490   5     0.00000     0.00000     1.25520  0.0
    517    488    489    518   5     0.00000     0.00000     1.25520  0.0
    517    488    489    519   5     0.00000     0.00000     1.25520  0.0
    488    489    490    491   5     4.74884    -0.63178     1.67360  0.0
    488    489    490    520   5     0.00000     0.00000     1.25520  0.0
    488    489    490    521   5     0.00000     0.00000     1.25520  0.0
    518    489    490    491   5     0.00000     0.00000     1.25520  0.0
    518    489    490    520   5     0.00000     0.00000     1.25520  0.0
    518    489    490    521   5     0.00000     0.00000     1.25520  0.0
    519    489    490    491   5     0.00000     0.00000     1.25520  0.0
    519    489    490    520   5     0.00000     0.00000     1.25520  0.0
    519    489    490    521   5     0.00000     0.00000     1.25520  0.0
    489    490    491    492   5     4.74884    -0.63178     1.67360  0.0
    489    490    491    522   5     0.00000     0.00000     1.25520  0.0
    489    490    491    523   5     0.00000     0.00000     1.25520  0.0
    520    490    491    492   5     0.00000     0.00000     1.25520  0.0
    520    490    491    522   5     0.00000     0.00000     1.25520  0.0
    520    490    491    523   5     0.00000     0.00000     1.25520  0.0
    521    490    491    492   5     0.00000     0.00000     1.25520  0.0
    521    490    491    522   5     0.00000     0.00000     1.25520  0.0
    521    490    491    523   5     0.00000     0.00000     1.25520  0.0
    490    491    492    493   5     5.25092    -2.58990     2.28446  0.0
    490    491    492    524   5     0.00000     0.00000     1.25520  0.0
    490    491    492    525   5     0.00000     0.00000     1.25520  0.0
    522    491    492    493   5     0.00000     0.00000     1.95811  0.0
    522    491    492    524   5     0.00000     0.00000     1.25520  0.0
    522    491    492    525   5     0.00000     0.00000     1.25520  0.0
    523    491    492    493   5     0.00000     0.00000     1.95811  0.0
    523    491    492    524   5     0.00000     0.00000     1.25520  0.0
    523    491    492    525   5     0.00000     0.00000     1.25520  0.0
    491    492    493    494   5    -2.16731    -3.93296     0.98324  0.0
    524    492    493    494   5     0.00000     0.00000     0.67362  0.0
    525    492    493    494   5     0.00000     0.00000     0.67362  0.0
    492    493    494    495   5     0.00000    25.10400     0.00000  0.0
    492    493    494    496   5    13.65239    24.43456     0.00000  0.0
    493    494    496    497   5     0.00000     0.00000     3.07524  0.0
    493    494    496    526   5     0.00000     0.00000     0.00000  0.0
    493    494    496    527   5     0.00000     0.00000     0.00000  0.0
    495    494    496    497   5     0.00000     2.52295     0.00000  0.0
    495    494    496    526   5     0.00000     0.00000     0.00000  0.0
    495    494    496    527   5     0.00000     0.00000     0.00000  0.0
    494    496    497    498   5    -8.00818    -1.52298     2.46438  0.0
    494    496    497    528   5     0.00000     0.00000    -0.94140  0.0
    494    496    497    529   5     0.00000     0.00000    -0.94140  0.0
    526    496    497    498   5     0.00000     0.00000     1.25520  0.0
    526    496    497    528   5     0.00000     0.00000     1.25520  0.0
    526    496    497    529   5     0.00000     0.00000     1.25520  0.0
    527    496    497    498   5     0.00000     0.00000     1.25520  0.0
    527    496    497    528   5     0.00000     0.00000     1.25520  0.0
    527    496    497    529   5     0.00000     0.00000     1.25520  0.0
    496    497    498    499   5     4.74884    -0.63178     1.67360  0.0
    496    497    498    530   5     0.00000     0.00000     1.25520  0.0
    496    497    498    531   5     0.00000     0.00000     1.25520  0.0
    528    497    498    499   5     0.00000     0.00000     1.25520  0.0
    528    497    498    530   5     0.00000     0.00000     1.25520  0.0
    528    497    498    531   5     0.00000     0.00000     1.25520  0.0
    529    497    498    499   5     0.00000     0.00000     1.25520  0.0
    529    497    498    530   5     0.00000     0.00000     1.25520  0.0
    529    497    498    531   5     0.00000     0.00000     1.25520  0.0
    497    498    499    500   5     4.74884    -0.63178     1.67360  0.0
    497    498    499    532   5     0.00000     0.00000     1.25520  0.0
    497    498    499    533   5     0.00000     0.00000     1.25520  0.0
    530    498    499    500   5     0.00000     0.00000     1.25520  0.0
    530    498    499    532   5     0.00000     0.00000     1.25520  0.0
    530    498    499    533   5     0.00000     0.00000     1.25520  0.0
    531    498    499    500   5     0.00000     0.00000     1.25520  0.0
    531    498    499    532   5     0.00000     0.00000     1.25520  0.0
    531    498    499    533   5     0.00000     0.00000     1.25520  0.0
    498    499    500    501   5     4.74884    -0.63178     1.67360  0.0
    498    499    500    534   5     0.00000     0.00000     1.25520  0.0
    498    499    500    535   5     0.00000     0.00000     1.25520  0.0
    532    499    500    501   5     0.00000     0.00000     1.25520  0.0
    532    499    500    534   5     0.00000     0.00000     1.25520  0.0
    532    499    500    535   5     0.00000     0.00000     1.25520  0.0
    533    499    500    501   5     0.00000     0.00000     1.25520  0.0
    533    499    500    534   5     0.00000     0.00000     1.25520  0.0
    533    499    500    535   5     0.00000     0.00000     1.25520  0.0
    499    500    501    502   5     4.74884    -0.63178     1.67360  0.0
    499    500    501    536   5     0.00000     0.00000     1.25520  0.0
    499    500    501    537   5     0.00000     0.00000     1.25520  0.0
    534    500    501    502   5     0.00000     0.00000     1.25520  0.0
    534    500    501    536   5     0.00000     0.00000     1.25520  0.0
    534    500    501    537   5     0.00000     0.00000     1.25520  0.0
    535    500    501    502   5     0.00000     0.00000     1.25520  0.0
    535    500    501    536   5     0.00000     0.00000     1.25520  0.0
    535    500    501    537   5     0.00000     0.00000     1.25520  0.0
    500    501    502    503   5     4.74884    -0.63178     1.67360  0.0
    500    501    502    538   5     0.00000     0.00000     1.25520  0.0
    500    501    502    539   5     0.00000     0.00000     1.25520  0.0
    536    501    502    503   5     0.00000     0.00000     1.25520  0.0
    536    501    502    538   5     0.00000     0.00000     1.25520  0.0
    536    501    502    539   5     0.00000     0.00000     1.25520  0.0
    537    501    502    503   5     0.00000     0.00000     1.25520  0.0
    537    501    502    538   5     0.00000     0.00000     1.25520  0.0
    537    501    502    539   5     0.00000     0.00000     1.25520  0.0
    501    502    503    504   5    -8.00818    -1.52298     2.46438  0.0
    501    502    503    540   5     0.00000     0.00000     1.25520  0.0
    501    502    503    541   5     0.00000     0.00000     1.25520  0.0
    538    502    503    504   5     0.00000     0.00000    -0.94140  0.0
    538    502    503    540   5     0.00000     0.00000     1.25520  0.0
    538    502    503    541   5     0.00000     0.00000     1.25520  0.0
    539    502    503    504   5     0.00000     0.00000    -0.94140  0.0
    539    502    503    540   5     0.00000     0.00000     1.25520  0.0
    539    502    503    541   5     0.00000     0.00000     1.25520  0.0
    502    503    504    505   5     0.00000     2.52295     0.00000  0.0
    502    503    504    542   5     0.00000     0.00000     3.07524  0.0
    540    503    504    505   5     0.00000     0.00000     0.00000  0.0
    540    503    504    542   5     0.00000     0.00000     0.00000  0.0
    541    503    504    505   5     0.00000     0.00000     0.00000  0.0
    541    503    504    542   5     0.00000     0.00000     0.00000  0.0
    503    504    542    543   5    13.65239    24.43456     0.00000  0.0
    505    504    542    543   5     0.00000    25.10400     0.00000  0.0
    504    542    543    544   5    -2.16731    -3.93296     0.98324  0.0
    504    542    543    566   5     0.00000     0.00000     0.67362  0.0
    504    542    543    567   5     0.00000     0.00000     0.67362  0.0
    542    543    544    545   5     5.25092    -2.58990     2.28446  0.0
    542    543    544    568   5     0.00000     0.00000     1.95811  0.0
    542    543    544    569   5     0.00000     0.00000     1.95811  0.0
    566    543    544    545   5     0.00000     0.00000     1.25520  0.0
    566    543    544    568   5     0.00000     0.00000     1.25520  0.0
    566    543    544    569   5     0.00000     0.00000     1.25520  0.0
    567    543    544    545   5     0.00000     0.00000     1.25520  0.0
    567    543    544    568   5     0.00000     0.00000     1.25520  0.0
    567    543    544    569   5     0.00000     0.00000     1.25520  0.0
    543    544    545    546   5     4.74884    -0.63178     1.67360  0.0
    543    544    545    570   5     0.00000     0.00000     1.25520  0.0
    543    544    545    571   5     0.00000     0.00000     1.25520  0.0
    568    544    545    546   5     0.00000     0.00000     1.25520  0.0
    568    544    545    570   5     0.00000     0.00000     1.25520  0.0
    568    544    545    571   5     0.00000     0.00000     1.25520  0.0
    569    544    545    546   5     0.00000     0.00000     1.25520  0.0
    569    544    545    570   5     0.00000     0.00000     1.25520  0.0
    569    544    545    571   5     0.00000     0.00000     1.25520  0.0
    544    545    546    547   5     4.74884    -0.63178     1.67360  0.0
    544    545    546    572   5     0.00000     0.00000     1.25520  0.0
    544    545    546    573   5     0.00000     0.00000     1.25520  0.0
    570    545    546    547   5     0.00000     0.00000     1.25520  0.0
    570    545    546    572   5     0.00000     0.00000     1.25520  0.0
    570    545    546    573   5     0.00000     0.00000     1.25520  0.0
    571    545    546    547   5     0.00000     0.00000     1.25520  0.0
    571    545    546    572   5     0.00000     0.00000     1.25520  0.0
    571    545    546    573   5     0.00000     0.00000     1.25520  0.0
    545    546    547    548   5     4.74884    -0.63178     1.67360  0.0
    545    546    547    574   5     0.00000     0.00000     1.25520  0.0
    545    546    547    575   5     0.00000     0.00000     1.25520  0.0
    572    546    547    548   5     0.00000     0.00000     1.25520  0.0
    572    546    547    574   5     0.00000     0.00000     1.25520  0.0
    572    546    547    575   5     0.00000     0.00000     1.25520  0.0
    573    546    547    548   5     0.00000     0.00000     1.25520  0.0
    573    546    547    574   5     0.00000     0.00000     1.25520  0.0
    573    546    547    575   5     0.00000     0.00000     1.25520  0.0
    546    547    548    549   5     4.74884    -0.63178     1.67360  0.0
    546    547    548    576   5     0.00000     0.00000     1.25520  0.0
    546    547    548    577   5     0.00000     0.00000     1.25520  0.0
    574    547    548    549   5     0.00000     0.00000     1.25520  0.0
    574    547    548    576   5     0.00000     0.00000     1.25520  0.0
    574    547    548    577   5     0.00000     0.00000     1.25520  0.0
    575    547    548    549   5     0.00000     0.00000     1.25520  0.0
    575    547    548    576   5     0.00000     0.00000     1.25520  0.0
    575    547    548    577   5     0.00000     0.00000     1.25520  0.0
    547    548    549    550   5     4.74884    -0.63178     1.67360  0.0
    547    548    549    578   5     0.00000     0.00000     1.25520  0.0
    547    548    549    579   5     0.00000     0.00000     1.25520  0.0
    576    548    549    550   5     0.00000     0.00000     1.25520  0.0
    576    548    549    578   5     0.00000     0.00000     1.25520  0.0
    576    548    549    579   5     0.00000     0.00000     1.25520  0.0
    577    548    549    550   5     0.00000     0.00000     1.25520  0.0
    577    548    549    578   5     0.00000     0.00000     1.25520  0.0
    577    548    549    579   5     0.00000     0.00000     1.25520  0.0
    548    549    550    551   5     4.74884    -0.63178     1.67360  0.0
    548    549    550    580   5     0.00000     0.00000     1.25520  0.0
    548    549    550    581   5     0.00000     0.00000     1.25520  0.0
    578    549    550    551   5     0.00000     0.00000     1.25520  0.0
    578    549    550    580   5     0.00000     0.00000     1.25520  0.0
    578    549    550    581   5     0.00000     0.00000     1.25520  0.0
    579    549    550    551   5     0.00000     0.00000     1.25520  0.0
    579    549    550    580   5     0.00000     0.00000     1.25520  0.0
    579    549    550    581   5     0.00000     0.00000     1.25520  0.0
    549    550    551    552   5     4.74884    -0.63178     1.67360  0.0
    549    550    551    582   5     0.00000     0.00000     1.25520  0.0
    549    550    551    583   5     0.00000     0.00000     1.25520  0.0
    580    550    551    552   5     0.00000     0.00000     1.25520  0.0
    580    550    551    582   5     0.00000     0.00000     1.25520  0.0
    580    550    551    583   5     0.00000     0.00000     1.25520  0.0
    581    550    551    552   5     0.00000     0.00000     1.25520  0.0
    581    550    551    582   5     0.00000     0.00000     1.25520  0.0
    581    550    551    583   5     0.00000     0.00000     1.25520  0.0
    550    551    552    553   5     5.25092    -2.58990     2.28446  0.0
    550    551    552    584   5     0.00000     0.00000     1.25520  0.0
    550    551    552    585   5     0.00000     0.00000     1.25520  0.0
    582    551    552    553   5     0.00000     0.00000     1.95811  0.0
    582    551    552    584   5     0.00000     0.00000     1.25520  0.0
    582    551    552    585   5     0.00000     0.00000     1.25520  0.0
    583    551    552    553   5     0.00000     0.00000     1.95811  0.0
    583    551    552    584   5     0.00000     0.00000     1.25520  0.0
    583    551    552    585   5     0.00000     0.00000     1.25520  0.0
    551    552    553    554   5    -2.16731    -3.93296     0.98324  0.0
    584    552    553    554   5     0.00000     0.00000     0.67362  0.0
    585    552    553    554   5     0.00000     0.00000     0.67362  0.0
    552    553    554    555   5     0.00000    25.10400     0.00000  0.0
    552    553    554    556   5    13.65239    24.43456     0.00000  0.0
    553    554    556    557   5     0.00000     0.00000     3.07524  0.0
    553    554    556    586   5     0.00000     0.00000     0.00000  0.0
    553    554    556    587   5     0.00000     0.00000     0.00000  0.0
    555    554    556    557   5     0.00000     2.52295     0.00000  0.0
    555    554    556    586   5     0.00000     0.00000     0.00000  0.0
    555    554    556    587   5     0.00000     0.00000     0.00000  0.0
    554    556    557    558   5    -8.00818    -1.52298     2.46438  0.0
    554    556    557    588   5     0.00000     0.00000    -0.94140  0.0
    554    556    557    589   5     0.00000     0.00000    -0.94140  0.0
    586    556    557    558   5     0.00000     0.00000     1.25520  0.0
    586    556    557    588   5     0.00000     0.00000     1.25520  0.0
    586    556    557    589   5     0.00000     0.00000     1.25520  0.0
    587    556    557    558   5     0.00000     0.00000     1.25520  0.0
    587    556    557    588   5     0.00000     0.00000     1.25520  0.0
    587    556    557    589   5     0.00000     0.00000     1.25520  0.0
    556    557    558    559   5     4.74884    -0.63178     1.67360  0.0
    556    557    558    590   5     0.00000     0.00000     1.25520  0.0
    556    557    558    591   5     0.00000     0.00000     1.25520  0.0
    588    557    558    559   5     0.00000     0.00000     1.25520  0.0
    588    557    558    590   5     0.00000     0.00000     1.25520  0.0
    588    557    558    591   5     0.00000     0.00000     1.25520  0.0
    589    557    558    559   5     0.00000     0.00000     1.25520  0.0
    589    557    558    590   5     0.00000     0.00000     1.25520  0.0
    589    557    558    591   5     0.00000     0.00000     1.25520  0.0
    557    558    559    560   5     4.74884    -0.63178     1.67360  0.0
    557    558    559    592   5     0.00000     0.00000     1.25520  0.0
    557    558    559    593   5     0.00000     0.00000     1.25520  0.0
    590    558    559    560   5     0.00000     0.00000     1.25520  0.0
    590    558    559    592   5     0.00000     0.00000     1.25520  0.0
    590    558    559    593   5     0.00000     0.00000     1.25520  0.0
    591    558    559    560   5     0.00000     0.00000     1.25520  0.0
    591    558    559    592   5     0.00000     0.00000     1.25520  0.0
    591    558    559    593   5     0.00000     0.00000     1.25520  0.0
    558    559    560    561   5     4.74884    -0.63178     1.67360  0.0
    558    559    560    594   5     0.00000     0.00000     1.25520  0.0
    558    559    560    595   5     0.00000     0.00000     1.25520  0.0
    592    559    560    561   5     0.00000     0.00000     1.25520  0.0
    592    559    560    594   5     0.00000     0.00000     1.25520  0.0
    592    559    560    595   5     0.00000     0.00000     1.25520  0.0
    593    559    560    561   5     0.00000     0.00000     1.25520  0.0
    593    559    560    594   5     0.00000     0.00000     1.25520  0.0
    593    559    560    595   5     0.00000     0.00000     1.25520  0.0
    559    560    561    562   5     4.74884    -0.63178     1.67360  0.0
    559    560    561    596   5     0.00000     0.00000     1.25520  0.0
    559    560    561    597   5     0.00000     0.00000     1.25520  0.0
    594    560    561    562   5     0.00000     0.00000     1.25520  0.0
    594    560    561    596   5     0.00000     0.00000     1.25520  0.0
    594    560    561    597   5     0.00000     0.00000     1.25520  0.0
    595    560    561    562   5     0.00000     0.00000     1.25520  0.0
    595    560    561    596   5     0.00000     0.00000     1.25520  0.0
    595    560    561    597   5     0.00000     0.00000     1.25520  0.0
    560    561    562    563   5     4.74884    -0.63178     1.67360  0.0
    560    561    562    598   5     0.00000     0.00000     1.25520  0.0
    560    561    562    599   5     0.00000     0.00000     1.25520  0.0
    596    561    562    563   5     0.00000     0.00000     1.25520  0.0
    596    561    562    598   5     0.00000     0.00000     1.25520  0.0
    596    561    562    599   5     0.00000     0.00000     1.25520  0.0
    597    561    562    563   5     0.00000     0.00000     1.25520  0.0
    597    561    562    598   5     0.00000     0.00000     1.25520  0.0
    597    561    562    599   5     0.00000     0.00000     1.25520  0.0
    561    562    563    564   5    -8.00818    -1.52298     2.46438  0.0
    561    562    563    600   5     0.00000     0.00000     1.25520  0.0
    561    562    563    601   5     0.00000     0.00000     1.25520  0.0
    598    562    563    564   5     0.00000     0.00000    -0.94140  0.0
    598    562    563    600   5     0.00000     0.00000     1.25520  0.0
    598    562    563    601   5     0.00000     0.00000     1.25520  0.0
    599    562    563    564   5     0.00000     0.00000    -0.94140  0.0
    599    562    563    600   5     0.00000     0.00000     1.25520  0.0
    599    562    563    601   5     0.00000     0.00000     1.25520  0.0
    562    563    564    565   5     0.00000     2.52295     0.00000  0.0
    562    563    564    602   5     0.00000     0.00000     3.07524  0.0
    600    563    564    565   5     0.00000     0.00000     0.00000  0.0
    600    563    564    602   5     0.00000     0.00000     0.00000  0.0
    601    563    564    565   5     0.00000     0.00000     0.00000  0.0
    601    563    564    602   5     0.00000     0.00000     0.00000  0.0
    563    564    602    603   5    13.65239    24.43456     0.00000  0.0
    565    564    602    603   5     0.00000    25.10400     0.00000  0.0
    564    602    603    604   5    -2.16731    -3.93296     0.98324  0.0
    564    602    603    626   5     0.00000     0.00000     0.67362  0.0
    564    602    603    627   5     0.00000     0.00000     0.67362  0.0
    602    603    604    605   5     5.25092    -2.58990     2.28446  0.0
    602    603    604    628   5     0.00000     0.00000     1.95811  0.0
    602    603    604    629   5     0.00000     0.00000     1.95811  0.0
    626    603    604    605   5     0.00000     0.00000     1.25520  0.0
    626    603    604    628   5     0.00000     0.00000     1.25520  0.0
    626    603    604    629   5     0.00000     0.00000     1.25520  0.0
    627    603    604    605   5     0.00000     0.00000     1.25520  0.0
    627    603    604    628   5     0.00000     0.00000     1.25520  0.0
    627    603    604    629   5     0.00000     0.00000     1.25520  0.0
    603    604    605    606   5     4.74884    -0.63178     1.67360  0.0
    603    604    605    630   5     0.00000     0.00000     1.25520  0.0
    603    604    605    631   5     0.00000     0.00000     1.25520  0.0
    628    604    605    606   5     0.00000     0.00000     1.25520  0.0
    628    604    605    630   5     0.00000     0.00000     1.25520  0.0
    628    604    605    631   5     0.00000     0.00000     1.25520  0.0
    629    604    605    606   5     0.00000     0.00000     1.25520  0.0
    629    604    605    630   5     0.00000     0.00000     1.25520  0.0
    629    604    605    631   5     0.00000     0.00000     1.25520  0.0
    604    605    606    607   5     4.74884    -0.63178     1.67360  0.0
    604    605    606    632   5     0.00000     0.00000     1.25520  0.0
    604    605    606    633   5     0.00000     0.00000     1.25520  0.0
    630    605    606    607   5     0.00000     0.00000     1.25520  0.0
    630    605    606    632   5     0.00000     0.00000     1.25520  0.0
    630    605    606    633   5     0.00000     0.00000     1.25520  0.0
    631    605    606    607   5     0.00000     0.00000     1.25520  0.0
    631    605    606    632   5     0.00000     0.00000     1.25520  0.0
    631    605    606    633   5     0.00000     0.00000     1.25520  0.0
    605    606    607    608   5     4.74884    -0.63178     1.67360  0.0
    605    606    607    634   5     0.00000     0.00000     1.25520  0.0
    605    606    607    635   5     0.00000     0.00000     1.25520  0.0
    632    606    607    608   5     0.00000     0.00000     1.25520  0.0
    632    606    607    634   5     0.00000     0.00000     1.25520  0.0
    632    606    607    635   5     0.00000     0.00000     1.25520  0.0
    633    606    607    608   5     0.00000     0.00000     1.25520  0.0
    633    606    607    634   5     0.00000     0.00000     1.25520  0.0
    633    606    607    635   5     0.00000     0.00000     1.25520  0.0
    606    607    608    609   5     4.74884    -0.63178     1.67360  0.0
    606    607    608    636   5     0.00000     0.00000     1.25520  0.0
    606    607    608    637   5     0.00000     0.00000     1.25520  0.0
    634    607    608    609   5     0.00000     0.00000     1.25520  0.0
    634    607    608    636   5     0.00000     0.00000     1.25520  0.0
    634    607    608    637   5     0.00000     0.00000     1.25520  0.0
    635    607    608    609   5     0.00000     0.00000     1.25520  0.0
    635    607    608    636   5     0.00000     0.00000     1.25520  0.0
    635    607    608    637   5     0.00000     0.00000     1.25520  0.0
    607    608    609    610   5     4.74884    -0.63178     1.67360  0.0
    607    608    609    638   5     0.00000     0.00000     1.25520  0.0
    607    608    609    639   5     0.00000     0.00000     1.25520  0.0
    636    608    609    610   5     0.00000     0.00000     1.25520  0.0
    636    608    609    638   5     0.00000     0.00000     1.25520  0.0
    636    608    609    639   5     0.00000     0.00000     1.25520  0.0
    637    608    609    610   5     0.00000     0.00000     1.25520  0.0
    637    608    609    638   5     0.00000     0.00000     1.25520  0.0
    637    608    609    639   5     0.00000     0.00000     1.25520  0.0
    608    609    610    611   5     4.74884    -0.63178     1.67360  0.0
    608    609    610    640   5     0.00000     0.00000     1.25520  0.0
    608    609    610    641   5     0.00000     0.00000     1.25520  0.0
    638    609    610    611   5     0.00000     0.00000     1.25520  0.0
    638    609    610    640   5     0.00000     0.00000     1.25520  0.0
    638    609    610    641   5     0.00000     0.00000     1.25520  0.0
    639    609    610    611   5     0.00000     0.00000     1.25520  0.0
    639    609    610    640   5     0.00000     0.00000     1.25520  0.0
    639    609    610    641   5     0.00000     0.00000     1.25520  0.0
    609    610    611    612   5     4.74884    -0.63178     1.67360  0.0
    609    610    611    642   5     0.00000     0.00000     1.25520  0.0
    609    610    611    643   5     0.00000     0.00000     1.25520  0.0
    640    610    611    612   5     0.00000     0.00000     1.25520  0.0
    640    610    611    642   5     0.00000     0.00000     1.25520  0.0
    640    610    611    643   5     0.00000     0.00000     1.25520  0.0
    641    610    611    612   5     0.00000     0.00000     1.25520  0.0
    641    610    611    642   5     0.00000     0.00000     1.25520  0.0
    641    610    611    643   5     0.00000     0.00000     1.25520  0.0
    610    611    612    613   5     5.25092    -2.58990     2.28446  0.0
    610    611    612    644   5     0.00000     0.00000     1.25520  0.0
    610    611    612    645   5     0.00000     0.00000     1.25520  0.0
    642    611    612    613   5     0.00000     0.00000     1.95811  0.0
    642    611    612    644   5     0.00000     0.00000     1.25520  0.0
    642    611    612    645   5     0.00000     0.00000     1.25520  0.0
    643    611    612    613   5     0.00000     0.00000     1.95811  0.0
    643    611    612    644   5     0.00000     0.00000     1.25520  0.0
    643    611    612    645   5     0.00000     0.00000     1.25520  0.0
    611    612    613    614   5    -2.16731    -3.93296     0.98324  0.0
    644    612    613    614   5     0.00000     0.00000     0.67362  0.0
    645    612    613    614   5     0.00000     0.00000     0.67362  0.0
    612    613    614    615   5     0.00000    25.10400     0.00000  0.0
    612    613    614    616   5    13.65239    24.43456     0.00000  0.0
    613    614    616    617   5     0.00000     0.00000     3.07524  0.0
    613    614    616    646   5     0.00000     0.00000     0.00000  0.0
    613    614    616    647   5     0.00000     0.00000     0.00000  0.0
    615    614    616    617   5     0.00000     2.52295     0.00000  0.0
    615    614    616    646   5     0.00000     0.00000     0.00000  0.0
    615    614    616    647   5     0.00000     0.00000     0.00000  0.0
    614    616    617    618   5    -8.00818    -1.52298     2.46438  0.0
    614    616    617    648   5     0.00000     0.00000    -0.94140  0.0
    614    616    617    649   5     0.00000     0.00000    -0.94140  0.0
    646    616    617    618   5     0.00000     0.00000     1.25520  0.0
    646    616    617    648   5     0.00000     0.00000     1.25520  0.0
    646    616    617    649   5     0.00000     0.00000     1.25520  0.0
    647    616    617    618   5     0.00000     0.00000     1.25520  0.0
    647    616    617    648   5     0.00000     0.00000     1.25520  0.0
    647    616    617    649   5     0.00000     0.00000     1.25520  0.0
    616    617    618    619   5     4.74884    -0.63178     1.67360  0.0
    616    617    618    650   5     0.00000     0.00000     1.25520  0.0
    616    617    618    651   5     0.00000     0.00000     1.25520  0.0
    648    617    618    619   5     0.00000     0.00000     1.25520  0.0
    648    617    618    650   5     0.00000     0.00000     1.25520  0.0
    648    617    618    651   5     0.00000     0.00000     1.25520  0.0
    649    617    618    619   5     0.00000     0.00000     1.25520  0.0
    649    617    618    650   5     0.00000     0.00000     1.25520  0.0
    649    617    618    651   5     0.00000     0.00000     1.25520  0.0
    617    618    619    620   5     4.74884    -0.63178     1.67360  0.0
    617    618    619    652   5     0.00000     0.00000     1.25520  0.0
    617    618    619    653   5     0.00000     0.00000     1.25520  0.0
    650    618    619    620   5     0.00000     0.00000     1.25520  0.0
    650    618    619    652   5     0.00000     0.00000     1.25520  0.0
    650    618    619    653   5     0.00000     0.00000     1.25520  0.0
    651    618    619    620   5     0.00000     0.00000     1.25520  0.0
    651    618    619    652   5     0.00000     0.00000     1.25520  0.0
    651    618    619    653   5     0.00000     0.00000     1.25520  0.0
    618    619    620    621   5     4.74884    -0.63178     1.67360  0.0
    618    619    620    654   5     0.00000     0.00000     1.25520  0.0
    618    619    620    655   5     0.00000     0.00000     1.25520  0.0
    652    619    620    621   5     0.00000     0.00000     1.25520  0.0
    652    619    620    654   5     0.00000     0.00000     1.25520  0.0
    652    619    620    655   5     0.00000     0.00000     1.25520  0.0
    653    619    620    621   5     0.00000     0.00000     1.25520  0.0
    653    619    620    654   5     0.00000     0.00000     1.25520  0.0
    653    619    620    655   5     0.00000     0.00000     1.25520  0.0
    619    620    621    622   5     4.74884    -0.63178     1.67360  0.0
    619    620    621    656   5     0.00000     0.00000     1.25520  0.0
    619    620    621    657   5     0.00000     0.00000     1.25520  0.0
    654    620    621    622   5     0.00000     0.00000     1.25520  0.0
    654    620    621    656   5     0.00000     0.00000     1.25520  0.0
    654    620    621    657   5     0.00000     0.00000     1.25520  0.0
    655    620    621    622   5     0.00000     0.00000     1.25520  0.0
    655    620    621    656   5     0.00000     0.00000     1.25520  0.0
    655    620    621    657   5     0.00000     0.00000     1.25520  0.0
    620    621    622    623   5     4.74884    -0.63178     1.67360  0.0
    620    621    622    658   5     0.00000     0.00000     1.25520  0.0
    620    621    622    659   5     0.00000     0.00000     1.25520  0.0
    656    621    622    623   5     0.00000     0.00000     1.25520  0.0
    656    621    622    658   5     0.00000     0.00000     1.25520  0.0
    656    621    622    659   5     0.00000     0.00000     1.25520  0.0
    657    621    622    623   5     0.00000     0.00000     1.25520  0.0
    657    621    622    658   5     0.00000     0.00000     1.25520  0.0
    657    621    622    659   5     0.00000     0.00000     1.25520  0.0
    621    622    623    624   5    -8.00818    -1.52298     2.46438  0.0
    621    622    623    660   5     0.00000     0.00000     1.25520  0.0
    621    622    623    661   5     0.00000     0.00000     1.25520  0.0
    658    622    623    624   5     0.00000     0.00000    -0.94140  0.0
    658    622    623    660   5     0.00000     0.00000     1.25520  0.0
    658    622    623    661   5     0.00000     0.00000     1.25520  0.0
    659    622    623    624   5     0.00000     0.00000    -0.94140  0.0
    659    622    623    660   5     0.00000     0.00000     1.25520  0.0
    659    622    623    661   5     0.00000     0.00000     1.25520  0.0
    622    623    624    625   5     0.00000     2.52295     0.00000  0.0
    622    623    624    662   5     0.00000     0.00000     3.07524  0.0
    660    623    624    625   5     0.00000     0.00000     0.00000  0.0
    660    623    624    662   5     0.00000     0.00000     0.00000  0.0
    661    623    624    625   5     0.00000     0.00000     0.00000  0.0
    661    623    624    662   5     0.00000     0.00000     0.00000  0.0
    623    624    662    663   5    13.65239    24.43456     0.00000  0.0
    625    624    662    663   5     0.00000    25.10400     0.00000  0.0
    624    662    663    664   5    -2.16731    -3.93296     0.98324  0.0
    624    662    663    686   5     0.00000     0.00000     0.67362  0.0
    624    662    663    687   5     0.00000     0.00000     0.67362  0.0
    662    663    664    665   5     5.25092    -2.58990     2.28446  0.0
    662    663    664    688   5     0.00000     0.00000     1.95811  0.0
    662    663    664    689   5     0.00000     0.00000     1.95811  0.0
    686    663    664    665   5     0.00000     0.00000     1.25520  0.0
    686    663    664    688   5     0.00000     0.00000     1.25520  0.0
    686    663    664    689   5     0.00000     0.00000     1.25520  0.0
    687    663    664    665   5     0.00000     0.00000     1.25520  0.0
    687    663    664    688   5     0.00000     0.00000     1.25520  0.0
    687    663    664    689   5     0.00000     0.00000     1.25520  0.0
    663    664    665    666   5     4.74884    -0.63178     1.67360  0.0
    663    664    665    690   5     0.00000     0.00000     1.25520  0.0
    663    664    665    691   5     0.00000     0.00000     1.25520  0.0
    688    664    665    666   5     0.00000     0.00000     1.25520  0.0
    688    664    665    690   5     0.00000     0.00000     1.25520  0.0
    688    664    665    691   5     0.00000     0.00000     1.25520  0.0
    689    664    665    666   5     0.00000     0.00000     1.25520  0.0
    689    664    665    690   5     0.00000     0.00000     1.25520  0.0
    689    664    665    691   5     0.00000     0.00000     1.25520  0.0
    664    665    666    667   5     4.74884    -0.63178     1.67360  0.0
    664    665    666    692   5     0.00000     0.00000     1.25520  0.0
    664    665    666    693   5     0.00000     0.00000     1.25520  0.0
    690    665    666    667   5     0.00000     0.00000     1.25520  0.0
    690    665    666    692   5     0.00000     0.00000     1.25520  0.0
    690    665    666    693   5     0.00000     0.00000     1.25520  0.0
    691    665    666    667   5     0.00000     0.00000     1.25520  0.0
    691    665    666    692   5     0.00000     0.00000     1.25520  0.0
    691    665    666    693   5     0.00000     0.00000     1.25520  0.0
    665    666    667    668   5     4.74884    -0.63178     1.67360  0.0
    665    666    667    694   5     0.00000     0.00000     1.25520  0.0
    665    666    667    695   5     0.00000     0.00000     1.25520  0.0
    692    666    667    668   5     0.00000     0.00000     1.25520  0.0
    692    666    667    694   5     0.00000     0.00000     1.25520  0.0
    692    666    667    695   5     0.00000     0.00000     1.25520  0.0
    693    666    667    668   5     0.00000     0.00000     1.25520  0.0
    693    666    667    694   5     0.00000     0.00000     1.25520  0.0
    693    666    667    695   5     0.00000     0.00000     1.25520  0.0
    666    667    668    669   5     4.74884    -0.63178     1.67360  0.0
    666    667    668    696   5     0.00000     0.00000     1.25520  0.0
    666    667    668    697   5     0.00000     0.00000     1.25520  0.0
    694    667    668    669   5     0.00000     0.00000     1.25520  0.0
    694    667    668    696   5     0.00000     0.00000     1.25520  0.0
    694    667    668    697   5     0.00000     0.00000     1.25520  0.0
    695    667    668    669   5     0.00000     0.00000     1.25520  0.0
    695    667    668    696   5     0.00000     0.00000     1.25520  0.0
    695    667    668    697   5     0.00000     0.00000     1.25520  0.0
    667    668    669    670   5     4.74884    -0.63178     1.67360  0.0
    667    668    669    698   5     0.00000     0.00000     1.25520  0.0
    667    668    669    699   5     0.00000     0.00000     1.25520  0.0
    696    668    669    670   5     0.00000     0.00000     1.25520  0.0
    696    668    669    698   5     0.00000     0.00000     1.25520  0.0
    696    668    669    699   5     0.00000     0.00000     1.25520  0.0
    697    668    669    670   5     0.00000     0.00000     1.25520  0.0
    697    668    669    698   5     0.00000     0.00000     1.25520  0.0
    697    668    669    699   5     0.00000     0.00000     1.25520  0.0
    668    669    670    671   5     4.74884    -0.63178     1.67360  0.0
    668    669    670    700   5     0.00000     0.00000     1.25520  0.0
    668    669    670    701   5     0.00000     0.00000     1.25520  0.0
    698    669    670    671   5     0.00000     0.00000     1.25520  0.0
    698    669    670    700   5     0.00000     0.00000     1.25520  0.0
    698    669    670    701   5     0.00000     0.00000     1.25520  0.0
    699    669    670    671   5     0.00000     0.00000     1.25520  0.0
    699    669    670    700   5     0.00000     0.00000     1.25520  0.0
    699    669    670    701   5     0.00000     0.00000     1.25520  0.0
    669    670    671    672   5     4.74884    -0.63178     1.67360  0.0
    669    670    671    702   5     0.00000     0.00000     1.25520  0.0
    669    670    671    703   5     0.00000     0.00000     1.25520  0.0
    700    670    671    672   5     0.00000     0.00000     1.25520  0.0
    700    670    671    702   5     0.00000     0.00000     1.25520  0.0
    700    670    671    703   5     0.00000     0.00000     1.25520  0.0
    701    670    671    672   5     0.00000     0.00000     1.25520  0.0
    701    670    671    702   5     0.00000     0.00000     1.25520  0.0
    701    670    671    703   5     0.00000     0.00000     1.25520  0.0
    670    671    672    673   5     5.25092    -2.58990     2.28446  0.0
    670    671    672    704   5     0.00000     0.00000     1.25520  0.0
    670    671    672    705   5     0.00000     0.00000     1.25520  0.0
    702    671    672    673   5     0.00000     0.00000     1.95811  0.0
    702    671    672    704   5     0.00000     0.00000     1.25520  0.0
    702    671    672    705   5     0.00000     0.00000     1.25520  0.0
    703    671    672    673   5     0.00000     0.00000     1.95811  0.0
    703    671    672    704   5     0.00000     0.00000     1.25520  0.0
    703    671    672    705   5     0.00000     0.00000     1.25520  0.0
    671    672    673    674   5    -2.16731    -3.93296     0.98324  0.0
    704    672    673    674   5     0.00000     0.00000     0.67362  0.0
    705    672    673    674   5     0.00000     0.00000     0.67362  0.0
    672    673    674    675   5     0.00000    25.10400     0.00000  0.0
    672    673    674    676   5    13.65239    24.43456     0.00000  0.0
    673    674    676    677   5     0.00000     0.00000     3.07524  0.0
    673    674    676    706   5     0.00000     0.00000     0.00000  0.0
    673    674    676    707   5     0.00000     0.00000     0.00000  0.0
    675    674    676    677   5     0.00000     2.52295     0.00000  0.0
    675    674    676    706   5     0.00000     0.00000     0.00000  0.0
    675    674    676    707   5     0.00000     0.00000     0.00000  0.0
    674    676    677    678   5    -8.00818    -1.52298     2.46438  0.0
    674    676    677    708   5     0.00000     0.00000    -0.94140  0.0
    674    676    677    709   5     0.00000     0.00000    -0.94140  0.0
    706    676    677    678   5     0.00000     0.00000     1.25520  0.0
    706    676    677    708   5     0.00000     0.00000     1.25520  0.0
    706    676    677    709   5     0.00000     0.00000     1.25520  0.0
    707    676    677    678   5     0.00000     0.00000     1.25520  0.0
    707    676    677    708   5     0.00000     0.00000     1.25520  0.0
    707    676    677    709   5     0.00000     0.00000     1.25520  0.0
    676    677    678    679   5     4.74884    -0.63178     1.67360  0.0
    676    677    678    710   5     0.00000     0.00000     1.25520  0.0
    676    677    678    711   5     0.00000     0.00000     1.25520  0.0
    708    677    678    679   5     0.00000     0.00000     1.25520  0.0
    708    677    678    710   5     0.00000     0.00000     1.25520  0.0
    708    677    678    711   5     0.00000     0.00000     1.25520  0.0
    709    677    678    679   5     0.00000     0.00000     1.25520  0.0
    709    677    678    710   5     0.00000     0.00000     1.25520  0.0
    709    677    678    711   5     0.00000     0.00000     1.25520  0.0
    677    678    679    680   5     4.74884    -0.63178     1.67360  0.0
    677    678    679    712   5     0.00000     0.00000     1.25520  0.0
    677    678    679    713   5     0.00000     0.00000     1.25520  0.0
    710    678    679    680   5     0.00000     0.00000     1.25520  0.0
    710    678    679    712   5     0.00000     0.00000     1.25520  0.0
    710    678    679    713   5     0.00000     0.00000     1.25520  0.0
    711    678    679    680   5     0.00000     0.00000     1.25520  0.0
    711    678    679    712   5     0.00000     0.00000     1.25520  0.0
    711    678    679    713   5     0.00000     0.00000     1.25520  0.0
    678    679    680    681   5     4.74884    -0.63178     1.67360  0.0
    678    679    680    714   5     0.00000     0.00000     1.25520  0.0
    678    679    680    715   5     0.00000     0.00000     1.25520  0.0
    712    679    680    681   5     0.00000     0.00000     1.25520  0.0
    712    679    680    714   5     0.00000     0.00000     1.25520  0.0
    712    679    680    715   5     0.00000     0.00000     1.25520  0.0
    713    679    680    681   5     0.00000     0.00000     1.25520  0.0
    713    679    680    714   5     0.00000     0.00000     1.25520  0.0
    713    679    680    715   5     0.00000     0.00000     1.25520  0.0
    679    680    681    682   5     4.74884    -0.63178     1.67360  0.0
    679    680    681    716   5     0.00000     0.00000     1.25520  0.0
    679    680    681    717   5     0.00000     0.00000     1.25520  0.0
    714    680    681    682   5     0.00000     0.00000     1.25520  0.0
    714    680    681    716   5     0.00000     0.00000     1.25520  0.0
    714    680    681    717   5     0.00000     0.00000     1.25520  0.0
    715    680    681    682   5     0.00000     0.00000     1.25520  0.0
    715    680    681    716   5     0.00000     0.00000     1.25520  0.0
    715    680    681    717   5     0.00000     0.00000     1.25520  0.0
    680    681    682    683   5     4.74884    -0.63178     1.67360  0.0
    680    681    682    718   5     0.00000     0.00000     1.25520  0.0
    680    681    682    719   5     0.00000     0.00000     1.25520  0.0
    716    681    682    683   5     0.00000     0.00000     1.25520  0.0
    716    681    682    718   5     0.00000     0.00000     1.25520  0.0
    716    681    682    719   5     0.00000     0.00000     1.25520  0.0
    717    681    682    683   5     0.00000     0.00000     1.25520  0.0
    717    681    682    718   5     0.00000     0.00000     1.25520  0.0
    717    681    682    719   5     0.00000     0.00000     1.25520  0.0
    681    682    683    684   5    -8.00818    -1.52298     2.46438  0.0
    681    682    683    720   5     0.00000     0.00000     1.25520  0.0
    681    682    683    721   5     0.00000     0.00000     1.25520  0.0
    718    682    683    684   5     0.00000     0.00000    -0.94140  0.0
    718    682    683    720   5     0.00000     0.00000     1.25520  0.0
    718    682    683    721   5     0.00000     0.00000     1.25520  0.0
    719    682    683    684   5     0.00000     0.00000    -0.94140  0.0
    719    682    683    720   5     0.00000     0.00000     1.25520  0.0
    719    682    683    721   5     0.00000     0.00000     1.25520  0.0
    682    683    684    685   5     0.00000     2.52295     0.00000  0.0
    682    683    684    722   5     0.00000     0.00000     3.07524  0.0
    720    683    684    685   5     0.00000     0.00000     0.00000  0.0
    720    683    684    722   5     0.00000     0.00000     0.00000  0.0
    721    683    684    685   5     0.00000     0.00000     0.00000  0.0
    721    683    684    722   5     0.00000     0.00000     0.00000  0.0
    683    684    722    723   5    13.65239    24.43456     0.00000  0.0
    685    684    722    723   5     0.00000    25.10400     0.00000  0.0
    684    722    723    724   5    -2.16731    -3.93296     0.98324  0.0
    684    722    723    746   5     0.00000     0.00000     0.67362  0.0
    684    722    723    747   5     0.00000     0.00000     0.67362  0.0
    722    723    724    725   5     5.25092    -2.58990     2.28446  0.0
    722    723    724    748   5     0.00000     0.00000     1.95811  0.0
    722    723    724    749   5     0.00000     0.00000     1.95811  0.0
    746    723    724    725   5     0.00000     0.00000     1.25520  0.0
    746    723    724    748   5     0.00000     0.00000     1.25520  0.0
    746    723    724    749   5     0.00000     0.00000     1.25520  0.0
    747    723    724    725   5     0.00000     0.00000     1.25520  0.0
    747    723    724    748   5     0.00000     0.00000     1.25520  0.0
    747    723    724    749   5     0.00000     0.00000     1.25520  0.0
    723    724    725    726   5     4.74884    -0.63178     1.67360  0.0
    723    724    725    750   5     0.00000     0.00000     1.25520  0.0
    723    724    725    751   5     0.00000     0.00000     1.25520  0.0
    748    724    725    726   5     0.00000     0.00000     1.25520  0.0
    748    724    725    750   5     0.00000     0.00000     1.25520  0.0
    748    724    725    751   5     0.00000     0.00000     1.25520  0.0
    749    724    725    726   5     0.00000     0.00000     1.25520  0.0
    749    724    725    750   5     0.00000     0.00000     1.25520  0.0
    749    724    725    751   5     0.00000     0.00000     1.25520  0.0
    724    725    726    727   5     4.74884    -0.63178     1.67360  0.0
    724    725    726    752   5     0.00000     0.00000     1.25520  0.0
    724    725    726    753   5     0.00000     0.00000     1.25520  0.0
    750    725    726    727   5     0.00000     0.00000     1.25520  0.0
    750    725    726    752   5     0.00000     0.00000     1.25520  0.0
    750    725    726    753   5     0.00000     0.00000     1.25520  0.0
    751    725    726    727   5     0.00000     0.00000     1.25520  0.0
    751    725    726    752   5     0.00000     0.00000     1.25520  0.0
    751    725    726    753   5     0.00000     0.00000     1.25520  0.0
    725    726    727    728   5     4.74884    -0.63178     1.67360  0.0
    725    726    727    754   5     0.00000     0.00000     1.25520  0.0
    725    726    727    755   5     0.00000     0.00000     1.25520  0.0
    752    726    727    728   5     0.00000     0.00000     1.25520  0.0
    752    726    727    754   5     0.00000     0.00000     1.25520  0.0
    752    726    727    755   5     0.00000     0.00000     1.25520  0.0
    753    726    727    728   5     0.00000     0.00000     1.25520  0.0
    753    726    727    754   5     0.00000     0.00000     1.25520  0.0
    753    726    727    755   5     0.00000     0.00000     1.25520  0.0
    726    727    728    729   5     4.74884    -0.63178     1.67360  0.0
    726    727    728    756   5     0.00000     0.00000     1.25520  0.0
    726    727    728    757   5     0.00000     0.00000     1.25520  0.0
    754    727    728    729   5     0.00000     0.00000     1.25520  0.0
    754    727    728    756   5     0.00000     0.00000     1.25520  0.0
    754    727    728    757   5     0.00000     0.00000     1.25520  0.0
    755    727    728    729   5     0.00000     0.00000     1.25520  0.0
    755    727    728    756   5     0.00000     0.00000     1.25520  0.0
    755    727    728    757   5     0.00000     0.00000     1.25520  0.0
    727    728    729    730   5     4.74884    -0.63178     1.67360  0.0
    727    728    729    758   5     0.00000     0.00000     1.25520  0.0
    727    728    729    759   5     0.00000     0.00000     1.25520  0.0
    756    728    729    730   5     0.00000     0.00000     1.25520  0.0
    756    728    729    758   5     0.00000     0.00000     1.25520  0.0
    756    728    729    759   5     0.00000     0.00000     1.25520  0.0
    757    728    729    730   5     0.00000     0.00000     1.25520  0.0
    757    728    729    758   5     0.00000     0.00000     1.25520  0.0
    757    728    729    759   5     0.00000     0.00000     1.25520  0.0
    728    729    730    731   5     4.74884    -0.63178     1.67360  0.0
    728    729    730    760   5     0.00000     0.00000     1.25520  0.0
    728    729    730    761   5     0.00000     0.00000     1.25520  0.0
    758    729    730    731   5     0.00000     0.00000     1.25520  0.0
    758    729    730    760   5     0.00000     0.00000     1.25520  0.0
    758    729    730    761   5     0.00000     0.00000     1.25520  0.0
    759    729    730    731   5     0.00000     0.00000     1.25520  0.0
    759    729    730    760   5     0.00000     0.00000     1.25520  0.0
    759    729    730    761   5     0.00000     0.00000     1.25520  0.0
    729    730    731    732   5     4.74884    -0.63178     1.67360  0.0
    729    730    731    762   5     0.00000     0.00000     1.25520  0.0
    729    730    731    763   5     0.00000     0.00000     1.25520  0.0
    760    730    731    732   5     0.00000     0.00000     1.25520  0.0
    760    730    731    762   5     0.00000     0.00000     1.25520  0.0
    760    730    731    763   5     0.00000     0.00000     1.25520  0.0
    761    730    731    732   5     0.00000     0.00000     1.25520  0.0
    761    730    731    762   5     0.00000     0.00000     1.25520  0.0
    761    730    731    763   5     0.00000     0.00000     1.25520  0.0
    730    731    732    733   5     5.25092    -2.58990     2.28446  0.0
    730    731    732    764   5     0.00000     0.00000     1.25520  0.0
    730    731    732    765   5     0.00000     0.00000     1.25520  0.0
    762    731    732    733   5     0.00000     0.00000     1.95811  0.0
    762    731    732    764   5     0.00000     0.00000     1.25520  0.0
    762    731    732    765   5     0.00000     0.00000     1.25520  0.0
    763    731    732    733   5     0.00000     0.00000     1.95811  0.0
    763    731    732    764   5     0.00000     0.00000     1.25520  0.0
    763    731    732    765   5     0.00000     0.00000     1.25520  0.0
    731    732    733    734   5    -2.16731    -3.93296     0.98324  0.0
    764    732    733    734   5     0.00000     0.00000     0.67362  0.0
    765    732    733    734   5     0.00000     0.00000     0.67362  0.0
    732    733    734    735   5     0.00000    25.10400     0.00000  0.0
    732    733    734    736   5    13.65239    24.43456     0.00000  0.0
    733    734    736    737   5     0.00000     0.00000     3.07524  0.0
    733    734    736    766   5     0.00000     0.00000     0.00000  0.0
    733    734    736    767   5     0.00000     0.00000     0.00000  0.0
    735    734    736    737   5     0.00000     2.52295     0.00000  0.0
    735    734    736    766   5     0.00000     0.00000     0.00000  0.0
    735    734    736    767   5     0.00000     0.00000     0.00000  0.0
    734    736    737    738   5    -8.00818    -1.52298     2.46438  0.0
    734    736    737    768   5     0.00000     0.00000    -0.94140  0.0
    734    736    737    769   5     0.00000     0.00000    -0.94140  0.0
    766    736    737    738   5     0.00000     0.00000     1.25520  0.0
    766    736    737    768   5     0.00000     0.00000     1.25520  0.0
    766    736    737    769   5     0.00000     0.00000     1.25520  0.0
    767    736    737    738   5     0.00000     0.00000     1.25520  0.0
    767    736    737    768   5     0.00000     0.00000     1.25520  0.0
    767    736    737    769   5     0.00000     0.00000     1.25520  0.0
    736    737    738    739   5     4.74884    -0.63178     1.67360  0.0
    736    737    738    770   5     0.00000     0.00000     1.25520  0.0
    736    737    738    771   5     0.00000     0.00000     1.25520  0.0
    768    737    738    739   5     0.00000     0.00000     1.25520  0.0
    768    737    738    770   5     0.00000     0.00000     1.25520  0.0
    768    737    738    771   5     0.00000     0.00000     1.25520  0.0
    769    737    738    739   5     0.00000     0.00000     1.25520  0.0
    769    737    738    770   5     0.00000     0.00000     1.25520  0.0
    769    737    738    771   5     0.00000     0.00000     1.25520  0.0
    737    738    739    740   5     4.74884    -0.63178     1.67360  0.0
    737    738    739    772   5     0.00000     0.00000     1.25520  0.0
    737    738    739    773   5     0.00000     0.00000     1.25520  0.0
    770    738    739    740   5     0.00000     0.00000     1.25520  0.0
    770    738    739    772   5     0.00000     0.00000     1.25520  0.0
    770    738    739    773   5     0.00000     0.00000     1.25520  0.0
    771    738    739    740   5     0.00000     0.00000     1.25520  0.0
    771    738    739    772   5     0.00000     0.00000     1.25520  0.0
    771    738    739    773   5     0.00000     0.00000     1.25520  0.0
    738    739    740    741   5     4.74884    -0.63178     1.67360  0.0
    738    739    740    774   5     0.00000     0.00000     1.25520  0.0
    738    739    740    775   5     0.00000     0.00000     1.25520  0.0
    772    739    740    741   5     0.00000     0.00000     1.25520  0.0
    772    739    740    774   5     0.00000     0.00000     1.25520  0.0
    772    739    740    775   5     0.00000     0.00000     1.25520  0.0
    773    739    740    741   5     0.00000     0.00000     1.25520  0.0
    773    739    740    774   5     0.00000     0.00000     1.25520  0.0
    773    739    740    775   5     0.00000     0.00000     1.25520  0.0
    739    740    741    742   5     4.74884    -0.63178     1.67360  0.0
    739    740    741    776   5     0.00000     0.00000     1.25520  0.0
    739    740    741    777   5     0.00000     0.00000     1.25520  0.0
    774    740    741    742   5     0.00000     0.00000     1.25520  0.0
    774    740    741    776   5     0.00000     0.00000     1.25520  0.0
    774    740    741    777   5     0.00000     0.00000     1.25520  0.0
    775    740    741    742   5     0.00000     0.00000     1.25520  0.0
    775    740    741    776   5     0.00000     0.00000     1.25520  0.0
    775    740    741    777   5     0.00000     0.00000     1.25520  0.0
    740    741    742    743   5     4.74884    -0.63178     1.67360  0.0
    740    741    742    778   5     0.00000     0.00000     1.25520  0.0
    740    741    742    779   5     0.00000     0.00000     1.25520  0.0
    776    741    742    743   5     0.00000     0.00000     1.25520  0.0
    776    741    742    778   5     0.00000     0.00000     1.25520  0.0
    776    741    742    779   5     0.00000     0.00000     1.25520  0.0
    777    741    742    743   5     0.00000     0.00000     1.25520  0.0
    777    741    742    778   5     0.00000     0.00000     1.25520  0.0
    777    741    742    779   5     0.00000     0.00000     1.25520  0.0
    741    742    743    744   5    -8.00818    -1.52298     2.46438  0.0
    741    742    743    780   5     0.00000     0.00000     1.25520  0.0
    741    742    743    781   5     0.00000     0.00000     1.25520  0.0
    778    742    743    744   5     0.00000     0.00000    -0.94140  0.0
    778    742    743    780   5     0.00000     0.00000     1.25520  0.0
    778    742    743    781   5     0.00000     0.00000     1.25520  0.0
    779    742    743    744   5     0.00000     0.00000    -0.94140  0.0
    779    742    743    780   5     0.00000     0.00000     1.25520  0.0
    779    742    743    781   5     0.00000     0.00000     1.25520  0.0
    742    743    744    745   5     0.00000     2.52295     0.00000  0.0
    742    743    744    782   5     0.00000     0.00000     3.07524  0.0
    780    743    744    745   5     0.00000     0.00000     0.00000  0.0
    780    743    744    782   5     0.00000     0.00000     0.00000  0.0
    781    743    744    745   5     0.00000     0.00000     0.00000  0.0
    781    743    744    782   5     0.00000     0.00000     0.00000  0.0
    743    744    782    783   5    13.65239    24.43456     0.00000  0.0
    745    744    782    783   5     0.00000    25.10400     0.00000  0.0
    744    782    783    784   5    -2.16731    -3.93296     0.98324  0.0
    744    782    783    806   5     0.00000     0.00000     0.67362  0.0
    744    782    783    807   5     0.00000     0.00000     0.67362  0.0
    782    783    784    785   5     5.25092    -2.58990     2.28446  0.0
    782    783    784    808   5     0.00000     0.00000     1.95811  0.0
    782    783    784    809   5     0.00000     0.00000     1.95811  0.0
    806    783    784    785   5     0.00000     0.00000     1.25520  0.0
    806    783    784    808   5     0.00000     0.00000     1.25520  0.0
    806    783    784    809   5     0.00000     0.00000     1.25520  0.0
    807    783    784    785   5     0.00000     0.00000     1.25520  0.0
    807    783    784    808   5     0.00000     0.00000     1.25520  0.0
    807    783    784    809   5     0.00000     0.00000     1.25520  0.0
    783    784    785    786   5     4.74884    -0.63178     1.67360  0.0
    783    784    785    810   5     0.00000     0.00000     1.25520  0.0
    783    784    785    811   5     0.00000     0.00000     1.25520  0.0
    808    784    785    786   5     0.00000     0.00000     1.25520  0.0
    808    784    785    810   5     0.00000     0.00000     1.25520  0.0
    808    784    785    811   5     0.00000     0.00000     1.25520  0.0
    809    784    785    786   5     0.00000     0.00000     1.25520  0.0
    809    784    785    810   5     0.00000     0.00000     1.25520  0.0
    809    784    785    811   5     0.00000     0.00000     1.25520  0.0
    784    785    786    787   5     4.74884    -0.63178     1.67360  0.0
    784    785    786    812   5     0.00000     0.00000     1.25520  0.0
    784    785    786    813   5     0.00000     0.00000     1.25520  0.0
    810    785    786    787   5     0.00000     0.00000     1.25520  0.0
    810    785    786    812   5     0.00000     0.00000     1.25520  0.0
    810    785    786    813   5     0.00000     0.00000     1.25520  0.0
    811    785    786    787   5     0.00000     0.00000     1.25520  0.0
    811    785    786    812   5     0.00000     0.00000     1.25520  0.0
    811    785    786    813   5     0.00000     0.00000     1.25520  0.0
    785    786    787    788   5     4.74884    -0.63178     1.67360  0.0
    785    786    787    814   5     0.00000     0.00000     1.25520  0.0
    785    786    787    815   5     0.00000     0.00000     1.25520  0.0
    812    786    787    788   5     0.00000     0.00000     1.25520  0.0
    812    786    787    814   5     0.00000     0.00000     1.25520  0.0
    812    786    787    815   5     0.00000     0.00000     1.25520  0.0
    813    786    787    788   5     0.00000     0.00000     1.25520  0.0
    813    786    787    814   5     0.00000     0.00000     1.25520  0.0
    813    786    787    815   5     0.00000     0.00000     1.25520  0.0
    786    787    788    789   5     4.74884    -0.63178     1.67360  0.0
    786    787    788    816   5     0.00000     0.00000     1.25520  0.0
    786    787    788    817   5     0.00000     0.00000     1.25520  0.0
    814    787    788    789   5     0.00000     0.00000     1.25520  0.0
    814    787    788    816   5     0.00000     0.00000     1.25520  0.0
    814    787    788    817   5     0.00000     0.00000     1.25520  0.0
    815    787    788    789   5     0.00000     0.00000     1.25520  0.0
    815    787    788    816   5     0.00000     0.00000     1.25520  0.0
    815    787    788    817   5     0.00000     0.00000     1.25520  0.0
    787    788    789    790   5     4.74884    -0.63178     1.67360  0.0
    787    788    789    818   5     0.00000     0.00000     1.25520  0.0
    787    788    789    819   5     0.00000     0.00000     1.25520  0.0
    816    788    789    790   5     0.00000     0.00000     1.25520  0.0
    816    788    789    818   5     0.00000     0.00000     1.25520  0.0
    816    788    789    819   5     0.00000     0.00000     1.25520  0.0
    817    788    789    790   5     0.00000     0.00000     1.25520  0.0
    817    788    789    818   5     0.00000     0.00000     1.25520  0.0
    817    788    789    819   5     0.00000     0.00000     1.25520  0.0
    788    789    790    791   5     4.74884    -0.63178     1.67360  0.0
    788    789    790    820   5     0.00000     0.00000     1.25520  0.0
    788    789    790    821   5     0.00000     0.00000     1.25520  0.0
    818    789    790    791   5     0.00000     0.00000     1.25520  0.0
    818    789    790    820   5     0.00000     0.00000     1.25520  0.0
    818    789    790    821   5     0.00000     0.00000     1.25520  0.0
    819    789    790    791   5     0.00000     0.00000     1.25520  0.0
    819    789    790    820   5     0.00000     0.00000     1.25520  0.0
    819    789    790    821   5     0.00000     0.00000     1.25520  0.0
    789    790    791    792   5     4.74884    -0.63178     1.67360  0.0
    789    790    791    822   5     0.00000     0.00000     1.25520  0.0
    789    790    791    823   5     0.00000     0.00000     1.25520  0.0
    820    790    791    792   5     0.00000     0.00000     1.25520  0.0
    820    790    791    822   5     0.00000     0.00000     1.25520  0.0
    820    790    791    823   5     0.00000     0.00000     1.25520  0.0
    821    790    791    792   5     0.00000     0.00000     1.25520  0.0
    821    790    791    822   5     0.00000     0.00000     1.25520  0.0
    821    790    791    823   5     0.00000     0.00000     1.25520  0.0
    790    791    792    793   5     5.25092    -2.58990     2.28446  0.0
    790    791    792    824   5     0.00000     0.00000     1.25520  0.0
    790    791    792    825   5     0.00000     0.00000     1.25520  0.0
    822    791    792    793   5     0.00000     0.00000     1.95811  0.0
    822    791    792    824   5     0.00000     0.00000     1.25520  0.0
    822    791    792    825   5     0.00000     0.00000     1.25520  0.0
    823    791    792    793   5     0.00000     0.00000     1.95811  0.0
    823    791    792    824   5     0.00000     0.00000     1.25520  0.0
    823    791    792    825   5     0.00000     0.00000     1.25520  0.0
    791    792    793    794   5    -2.16731    -3.93296     0.98324  0.0
    824    792    793    794   5     0.00000     0.00000     0.67362  0.0
    825    792    793    794   5     0.00000     0.00000     0.67362  0.0
    792    793    794    795   5     0.00000    25.10400     0.00000  0.0
    792    793    794    796   5    13.65239    24.43456     0.00000  0.0
    793    794    796    797   5     0.00000     0.00000     3.07524  0.0
    793    794    796    826   5     0.00000     0.00000     0.00000  0.0
    793    794    796    827   5     0.00000     0.00000     0.00000  0.0
    795    794    796    797   5     0.00000     2.52295     0.00000  0.0
    795    794    796    826   5     0.00000     0.00000     0.00000  0.0
    795    794    796    827   5     0.00000     0.00000     0.00000  0.0
    794    796    797    798   5    -8.00818    -1.52298     2.46438  0.0
    794    796    797    828   5     0.00000     0.00000    -0.94140  0.0
    794    796    797    829   5     0.00000     0.00000    -0.94140  0.0
    826    796    797    798   5     0.00000     0.00000     1.25520  0.0
    826    796    797    828   5     0.00000     0.00000     1.25520  0.0
    826    796    797    829   5     0.00000     0.00000     1.25520  0.0
    827    796    797    798   5     0.00000     0.00000     1.25520  0.0
    827    796    797    828   5     0.00000     0.00000     1.25520  0.0
    827    796    797    829   5     0.00000     0.00000     1.25520  0.0
    796    797    798    799   5     4.74884    -0.63178     1.67360  0.0
    796    797    798    830   5     0.00000     0.00000     1.25520  0.0
    796    797    798    831   5     0.00000     0.00000     1.25520  0.0
    828    797    798    799   5     0.00000     0.00000     1.25520  0.0
    828    797    798    830   5     0.00000     0.00000     1.25520  0.0
    828    797    798    831   5     0.00000     0.00000     1.25520  0.0
    829    797    798    799   5     0.00000     0.00000     1.25520  0.0
    829    797    798    830   5     0.00000     0.00000     1.25520  0.0
    829    797    798    831   5     0.00000     0.00000     1.25520  0.0
    797    798    799    800   5     4.74884    -0.63178     1.67360  0.0
    797    798    799    832   5     0.00000     0.00000     1.25520  0.0
    797    798    799    833   5     0.00000     0.00000     1.25520  0.0
    830    798    799    800   5     0.00000     0.00000     1.25520  0.0
    830    798    799    832   5     0.00000     0.00000     1.25520  0.0
    830    798    799    833   5     0.00000     0.00000     1.25520  0.0
    831    798    799    800   5     0.00000     0.00000     1.25520  0.0
    831    798    799    832   5     0.00000     0.00000     1.25520  0.0
    831    798    799    833   5     0.00000     0.00000     1.25520  0.0
    798    799    800    801   5     4.74884    -0.63178     1.67360  0.0
    798    799    800    834   5     0.00000     0.00000     1.25520  0.0
    798    799    800    835   5     0.00000     0.00000     1.25520  0.0
    832    799    800    801   5     0.00000     0.00000     1.25520  0.0
    832    799    800    834   5     0.00000     0.00000     1.25520  0.0
    832    799    800    835   5     0.00000     0.00000     1.25520  0.0
    833    799    800    801   5     0.00000     0.00000     1.25520  0.0
    833    799    800    834   5     0.00000     0.00000     1.25520  0.0
    833    799    800    835   5     0.00000     0.00000     1.25520  0.0
    799    800    801    802   5     4.74884    -0.63178     1.67360  0.0
    799    800    801    836   5     0.00000     0.00000     1.25520  0.0
    799    800    801    837   5     0.00000     0.00000     1.25520  0.0
    834    800    801    802   5     0.00000     0.00000     1.25520  0.0
    834    800    801    836   5     0.00000     0.00000     1.25520  0.0
    834    800    801    837   5     0.00000     0.00000     1.25520  0.0
    835    800    801    802   5     0.00000     0.00000     1.25520  0.0
    835    800    801    836   5     0.00000     0.00000     1.25520  0.0
    835    800    801    837   5     0.00000     0.00000     1.25520  0.0
    800    801    802    803   5     4.74884    -0.63178     1.67360  0.0
    800    801    802    838   5     0.00000     0.00000     1.25520  0.0
    800    801    802    839   5     0.00000     0.00000     1.25520  0.0
    836    801    802    803   5     0.00000     0.00000     1.25520  0.0
    836    801    802    838   5     0.00000     0.00000     1.25520  0.0
    836    801    802    839   5     0.00000     0.00000     1.25520  0.0
    837    801    802    803   5     0.00000     0.00000     1.25520  0.0
    837    801    802    838   5     0.00000     0.00000     1.25520  0.0
    837    801    802    839   5     0.00000     0.00000     1.25520  0.0
    801    802    803    804   5    -8.00818    -1.52298     2.46438  0.0
    801    802    803    840   5     0.00000     0.00000     1.25520  0.0
    801    802    803    841   5     0.00000     0.00000     1.25520  0.0
    838    802    803    804   5     0.00000     0.00000    -0.94140  0.0
    838    802    803    840   5     0.00000     0.00000     1.25520  0.0
    838    802    803    841   5     0.00000     0.00000     1.25520  0.0
    839    802    803    804   5     0.00000     0.00000    -0.94140  0.0
    839    802    803    840   5     0.00000     0.00000     1.25520  0.0
    839    802    803    841   5     0.00000     0.00000     1.25520  0.0
    802    803    804    805   5     0.00000     2.52295     0.00000  0.0
    802    803    804    842   5     0.00000     0.00000     3.07524  0.0
    840    803    804    805   5     0.00000     0.00000     0.00000  0.0
    840    803    804    842   5     0.00000     0.00000     0.00000  0.0
    841    803    804    805   5     0.00000     0.00000     0.00000  0.0
    841    803    804    842   5     0.00000     0.00000     0.00000  0.0
    803    804    842    843   5    13.65239    24.43456     0.00000  0.0
    805    804    842    843   5     0.00000    25.10400     0.00000  0.0
    804    842    843    844   5    -2.16731    -3.93296     0.98324  0.0
    804    842    843    866   5     0.00000     0.00000     0.67362  0.0
    804    842    843    867   5     0.00000     0.00000     0.67362  0.0
    842    843    844    845   5     5.25092    -2.58990     2.28446  0.0
    842    843    844    868   5     0.00000     0.00000     1.95811  0.0
    842    843    844    869   5     0.00000     0.00000     1.95811  0.0
    866    843    844    845   5     0.00000     0.00000     1.25520  0.0
    866    843    844    868   5     0.00000     0.00000     1.25520  0.0
    866    843    844    869   5     0.00000     0.00000     1.25520  0.0
    867    843    844    845   5     0.00000     0.00000     1.25520  0.0
    867    843    844    868   5     0.00000     0.00000     1.25520  0.0
    867    843    844    869   5     0.00000     0.00000     1.25520  0.0
    843    844    845    846   5     4.74884    -0.63178     1.67360  0.0
    843    844    845    870   5     0.00000     0.00000     1.25520  0.0
    843    844    845    871   5     0.00000     0.00000     1.25520  0.0
    868    844    845    846   5     0.00000     0.00000     1.25520  0.0
    868    844    845    870   5     0.00000     0.00000     1.25520  0.0
    868    844    845    871   5     0.00000     0.00000     1.25520  0.0
    869    844    845    846   5     0.00000     0.00000     1.25520  0.0
    869    844    845    870   5     0.00000     0.00000     1.25520  0.0
    869    844    845    871   5     0.00000     0.00000     1.25520  0.0
    844    845    846    847   5     4.74884    -0.63178     1.67360  0.0
    844    845    846    872   5     0.00000     0.00000     1.25520  0.0
    844    845    846    873   5     0.00000     0.00000     1.25520  0.0
    870    845    846    847   5     0.00000     0.00000     1.25520  0.0
    870    845    846    872   5     0.00000     0.00000     1.25520  0.0
    870    845    846    873   5     0.00000     0.00000     1.25520  0.0
    871    845    846    847   5     0.00000     0.00000     1.25520  0.0
    871    845    846    872   5     0.00000     0.00000     1.25520  0.0
    871    845    846    873   5     0.00000     0.00000     1.25520  0.0
    845    846    847    848   5     4.74884    -0.63178     1.67360  0.0
    845    846    847    874   5     0.00000     0.00000     1.25520  0.0
    845    846    847    875   5     0.00000     0.00000     1.25520  0.0
    872    846    847    848   5     0.00000     0.00000     1.25520  0.0
    872    846    847    874   5     0.00000     0.00000     1.25520  0.0
    872    846    847    875   5     0.00000     0.00000     1.25520  0.0
    873    846    847    848   5     0.00000     0.00000     1.25520  0.0
    873    846    847    874   5     0.00000     0.00000     1.25520  0.0
    873    846    847    875   5     0.00000     0.00000     1.25520  0.0
    846    847    848    849   5     4.74884    -0.63178     1.67360  0.0
    846    847    848    876   5     0.00000     0.00000     1.25520  0.0
    846    847    848    877   5     0.00000     0.00000     1.25520  0.0
    874    847    848    849   5     0.00000     0.00000     1.25520  0.0
    874    847    848    876   5     0.00000     0.00000     1.25520  0.0
    874    847    848    877   5     0.00000     0.00000     1.25520  0.0
    875    847    848    849   5     0.00000     0.00000     1.25520  0.0
    875    847    848    876   5     0.00000     0.00000     1.25520  0.0
    875    847    848    877   5     0.00000     0.00000     1.25520  0.0
    847    848    849    850   5     4.74884    -0.63178     1.67360  0.0
    847    848    849    878   5     0.00000     0.00000     1.25520  0.0
    847    848    849    879   5     0.00000     0.00000     1.25520  0.0
    876    848    849    850   5     0.00000     0.00000     1.25520  0.0
    876    848    849    878   5     0.00000     0.00000     1.25520  0.0
    876    848    849    879   5     0.00000     0.00000     1.25520  0.0
    877    848    849    850   5     0.00000     0.00000     1.25520  0.0
    877    848    849    878   5     0.00000     0.00000     1.25520  0.0
    877    848    849    879   5     0.00000     0.00000     1.25520  0.0
    848    849    850    851   5     4.74884    -0.63178     1.67360  0.0
    848    849    850    880   5     0.00000     0.00000     1.25520  0.0
    848    849    850    881   5     0.00000     0.00000     1.25520  0.0
    878    849    850    851   5     0.00000     0.00000     1.25520  0.0
    878    849    850    880   5     0.00000     0.00000     1.25520  0.0
    878    849    850    881   5     0.00000     0.00000     1.25520  0.0
    879    849    850    851   5     0.00000     0.00000     1.25520  0.0
    879    849    850    880   5     0.00000     0.00000     1.25520  0.0
    879    849    850    881   5     0.00000     0.00000     1.25520  0.0
    849    850    851    852   5     4.74884    -0.63178     1.67360  0.0
    849    850    851    882   5     0.00000     0.00000     1.25520  0.0
    849    850    851    883   5     0.00000     0.00000     1.25520  0.0
    880    850    851    852   5     0.00000     0.00000     1.25520  0.0
    880    850    851    882   5     0.00000     0.00000     1.25520  0.0
    880    850    851    883   5     0.00000     0.00000     1.25520  0.0
    881    850    851    852   5     0.00000     0.00000     1.25520  0.0
    881    850    851    882   5     0.00000     0.00000     1.25520  0.0
    881    850    851    883   5     0.00000     0.00000     1.25520  0.0
    850    851    852    853   5     5.25092    -2.58990     2.28446  0.0
    850    851    852    884   5     0.00000     0.00000     1.25520  0.0
    850    851    852    885   5     0.00000     0.00000     1.25520  0.0
    882    851    852    853   5     0.00000     0.00000     1.95811  0.0
    882    851    852    884   5     0.00000     0.00000     1.25520  0.0
    882    851    852    885   5     0.00000     0.00000     1.25520  0.0
    883    851    852    853   5     0.00000     0.00000     1.95811  0.0
    883    851    852    884   5     0.00000     0.00000     1.25520  0.0
    883    851    852    885   5     0.00000     0.00000     1.25520  0.0
    851    852    853    854   5    -2.16731    -3.93296     0.98324  0.0
    884    852    853    854   5     0.00000     0.00000     0.67362  0.0
    885    852    853    854   5     0.00000     0.00000     0.67362  0.0
    852    853    854    855   5     0.00000    25.10400     0.00000  0.0
    852    853    854    856   5    13.65239    24.43456     0.00000  0.0
    853    854    856    857   5     0.00000     0.00000     3.07524  0.0
    853    854    856    886   5     0.00000     0.00000     0.00000  0.0
    853    854    856    887   5     0.00000     0.00000     0.00000  0.0
    855    854    856    857   5     0.00000     2.52295     0.00000  0.0
    855    854    856    886   5     0.00000     0.00000     0.00000  0.0
    855    854    856    887   5     0.00000     0.00000     0.00000  0.0
    854    856    857    858   5    -8.00818    -1.52298     2.46438  0.0
    854    856    857    888   5     0.00000     0.00000    -0.94140  0.0
    854    856    857    889   5     0.00000     0.00000    -0.94140  0.0
    886    856    857    858   5     0.00000     0.00000     1.25520  0.0
    886    856    857    888   5     0.00000     0.00000     1.25520  0.0
    886    856    857    889   5     0.00000     0.00000     1.25520  0.0
    887    856    857    858   5     0.00000     0.00000     1.25520  0.0
    887    856    857    888   5     0.00000     0.00000     1.25520  0.0
    887    856    857    889   5     0.00000     0.00000     1.25520  0.0
    856    857    858    859   5     4.74884    -0.63178     1.67360  0.0
    856    857    858    890   5     0.00000     0.00000     1.25520  0.0
    856    857    858    891   5     0.00000     0.00000     1.25520  0.0
    888    857    858    859   5     0.00000     0.00000     1.25520  0.0
    888    857    858    890   5     0.00000     0.00000     1.25520  0.0
    888    857    858    891   5     0.00000     0.00000     1.25520  0.0
    889    857    858    859   5     0.00000     0.00000     1.25520  0.0
    889    857    858    890   5     0.00000     0.00000     1.25520  0.0
    889    857    858    891   5     0.00000     0.00000     1.25520  0.0
    857    858    859    860   5     4.74884    -0.63178     1.67360  0.0
    857    858    859    892   5     0.00000     0.00000     1.25520  0.0
    857    858    859    893   5     0.00000     0.00000     1.25520  0.0
    890    858    859    860   5     0.00000     0.00000     1.25520  0.0
    890    858    859    892   5     0.00000     0.00000     1.25520  0.0
    890    858    859    893   5     0.00000     0.00000     1.25520  0.0
    891    858    859    860   5     0.00000     0.00000     1.25520  0.0
    891    858    859    892   5     0.00000     0.00000     1.25520  0.0
    891    858    859    893   5     0.00000     0.00000     1.25520  0.0
    858    859    860    861   5     4.74884    -0.63178     1.67360  0.0
    858    859    860    894   5     0.00000     0.00000     1.25520  0.0
    858    859    860    895   5     0.00000     0.00000     1.25520  0.0
    892    859    860    861   5     0.00000     0.00000     1.25520  0.0
    892    859    860    894   5     0.00000     0.00000     1.25520  0.0
    892    859    860    895   5     0.00000     0.00000     1.25520  0.0
    893    859    860    861   5     0.00000     0.00000     1.25520  0.0
    893    859    860    894   5     0.00000     0.00000     1.25520  0.0
    893    859    860    895   5     0.00000     0.00000     1.25520  0.0
    859    860    861    862   5     4.74884    -0.63178     1.67360  0.0
    859    860    861    896   5     0.00000     0.00000     1.25520  0.0
    859    860    861    897   5     0.00000     0.00000     1.25520  0.0
    894    860    861    862   5     0.00000     0.00000     1.25520  0.0
    894    860    861    896   5     0.00000     0.00000     1.25520  0.0
    894    860    861    897   5     0.00000     0.00000     1.25520  0.0
    895    860    861    862   5     0.00000     0.00000     1.25520  0.0
    895    860    861    896   5     0.00000     0.00000     1.25520  0.0
    895    860    861    897   5     0.00000     0.00000     1.25520  0.0
    860    861    862    863   5     4.74884    -0.63178     1.67360  0.0
    860    861    862    898   5     0.00000     0.00000     1.25520  0.0
    860    861    862    899   5     0.00000     0.00000     1.25520  0.0
    896    861    862    863   5     0.00000     0.00000     1.25520  0.0
    896    861    862    898   5     0.00000     0.00000     1.25520  0.0
    896    861    862    899   5     0.00000     0.00000     1.25520  0.0
    897    861    862    863   5     0.00000     0.00000     1.25520  0.0
    897    861    862    898   5     0.00000     0.00000     1.25520  0.0
    897    861    862    899   5     0.00000     0.00000     1.25520  0.0
    861    862    863    864   5    -8.00818    -1.52298     2.46438  0.0
    861    862    863    900   5     0.00000     0.00000     1.25520  0.0
    861    862    863    901   5     0.00000     0.00000     1.25520  0.0
    898    862    863    864   5     0.00000     0.00000    -0.94140  0.0
    898    862    863    900   5     0.00000     0.00000     1.25520  0.0
    898    862    863    901   5     0.00000     0.00000     1.25520  0.0
    899    862    863    864   5     0.00000     0.00000    -0.94140  0.0
    899    862    863    900   5     0.00000     0.00000     1.25520  0.0
    899    862    863    901   5     0.00000     0.00000     1.25520  0.0
    862    863    864    865   5     0.00000     2.52295     0.00000  0.0
    862    863    864    902   5     0.00000     0.00000     3.07524  0.0
    900    863    864    865   5     0.00000     0.00000     0.00000  0.0
    900    863    864    902   5     0.00000     0.00000     0.00000  0.0
    901    863    864    865   5     0.00000     0.00000     0.00000  0.0
    901    863    864    902   5     0.00000     0.00000     0.00000  0.0
    863    864    902    903   5    13.65239    24.43456     0.00000  0.0
    865    864    902    903   5     0.00000    25.10400     0.00000  0.0
    864    902    903    904   5    -2.16731    -3.93296     0.98324  0.0
    864    902    903    926   5     0.00000     0.00000     0.67362  0.0
    864    902    903    927   5     0.00000     0.00000     0.67362  0.0
    902    903    904    905   5     5.25092    -2.58990     2.28446  0.0
    902    903    904    928   5     0.00000     0.00000     1.95811  0.0
    902    903    904    929   5     0.00000     0.00000     1.95811  0.0
    926    903    904    905   5     0.00000     0.00000     1.25520  0.0
    926    903    904    928   5     0.00000     0.00000     1.25520  0.0
    926    903    904    929   5     0.00000     0.00000     1.25520  0.0
    927    903    904    905   5     0.00000     0.00000     1.25520  0.0
    927    903    904    928   5     0.00000     0.00000     1.25520  0.0
    927    903    904    929   5     0.00000     0.00000     1.25520  0.0
    903    904    905    906   5     4.74884    -0.63178     1.67360  0.0
    903    904    905    930   5     0.00000     0.00000     1.25520  0.0
    903    904    905    931   5     0.00000     0.00000     1.25520  0.0
    928    904    905    906   5     0.00000     0.00000     1.25520  0.0
    928    904    905    930   5     0.00000     0.00000     1.25520  0.0
    928    904    905    931   5     0.00000     0.00000     1.25520  0.0
    929    904    905    906   5     0.00000     0.00000     1.25520  0.0
    929    904    905    930   5     0.00000     0.00000     1.25520  0.0
    929    904    905    931   5     0.00000     0.00000     1.25520  0.0
    904    905    906    907   5     4.74884    -0.63178     1.67360  0.0
    904    905    906    932   5     0.00000     0.00000     1.25520  0.0
    904    905    906    933   5     0.00000     0.00000     1.25520  0.0
    930    905    906    907   5     0.00000     0.00000     1.25520  0.0
    930    905    906    932   5     0.00000     0.00000     1.25520  0.0
    930    905    906    933   5     0.00000     0.00000     1.25520  0.0
    931    905    906    907   5     0.00000     0.00000     1.25520  0.0
    931    905    906    932   5     0.00000     0.00000     1.25520  0.0
    931    905    906    933   5     0.00000     0.00000     1.25520  0.0
    905    906    907    908   5     4.74884    -0.63178     1.67360  0.0
    905    906    907    934   5     0.00000     0.00000     1.25520  0.0
    905    906    907    935   5     0.00000     0.00000     1.25520  0.0
    932    906    907    908   5     0.00000     0.00000     1.25520  0.0
    932    906    907    934   5     0.00000     0.00000     1.25520  0.0
    932    906    907    935   5     0.00000     0.00000     1.25520  0.0
    933    906    907    908   5     0.00000     0.00000     1.25520  0.0
    933    906    907    934   5     0.00000     0.00000     1.25520  0.0
    933    906    907    935   5     0.00000     0.00000     1.25520  0.0
    906    907    908    909   5     4.74884    -0.63178     1.67360  0.0
    906    907    908    936   5     0.00000     0.00000     1.25520  0.0
    906    907    908    937   5     0.00000     0.00000     1.25520  0.0
    934    907    908    909   5     0.00000     0.00000     1.25520  0.0
    934    907    908    936   5     0.00000     0.00000     1.25520  0.0
    934    907    908    937   5     0.00000     0.00000     1.25520  0.0
    935    907    908    909   5     0.00000     0.00000     1.25520  0.0
    935    907    908    936   5     0.00000     0.00000     1.25520  0.0
    935    907    908    937   5     0.00000     0.00000     1.25520  0.0
    907    908    909    910   5     4.74884    -0.63178     1.67360  0.0
    907    908    909    938   5     0.00000     0.00000     1.25520  0.0
    907    908    909    939   5     0.00000     0.00000     1.25520  0.0
    936    908    909    910   5     0.00000     0.00000     1.25520  0.0
    936    908    909    938   5     0.00000     0.00000     1.25520  0.0
    936    908    909    939   5     0.00000     0.00000     1.25520  0.0
    937    908    909    910   5     0.00000     0.00000     1.25520  0.0
    937    908    909    938   5     0.00000     0.00000     1.25520  0.0
    937    908    909    939   5     0.00000     0.00000     1.25520  0.0
    908    909    910    911   5     4.74884    -0.63178     1.67360  0.0
    908    909    910    940   5     0.00000     0.00000     1.25520  0.0
    908    909    910    941   5     0.00000     0.00000     1.25520  0.0
    938    909    910    911   5     0.00000     0.00000     1.25520  0.0
    938    909    910    940   5     0.00000     0.00000     1.25520  0.0
    938    909    910    941   5     0.00000     0.00000     1.25520  0.0
    939    909    910    911   5     0.00000     0.00000     1.25520  0.0
    939    909    910    940   5     0.00000     0.00000     1.25520  0.0
    939    909    910    941   5     0.00000     0.00000     1.25520  0.0
    909    910    911    912   5     4.74884    -0.63178     1.67360  0.0
    909    910    911    942   5     0.00000     0.00000     1.25520  0.0
    909    910    911    943   5     0.00000     0.00000     1.25520  0.0
    940    910    911    912   5     0.00000     0.00000     1.25520  0.0
    940    910    911    942   5     0.00000     0.00000     1.25520  0.0
    940    910    911    943   5     0.00000     0.00000     1.25520  0.0
    941    910    911    912   5     0.00000     0.00000     1.25520  0.0
    941    910    911    942   5     0.00000     0.00000     1.25520  0.0
    941    910    911    943   5     0.00000     0.00000     1.25520  0.0
    910    911    912    913   5     5.25092    -2.58990     2.28446  0.0
    910    911    912    944   5     0.00000     0.00000     1.25520  0.0
    910    911    912    945   5     0.00000     0.00000     1.25520  0.0
    942    911    912    913   5     0.00000     0.00000     1.95811  0.0
    942    911    912    944   5     0.00000     0.00000     1.25520  0.0
    942    911    912    945   5     0.00000     0.00000     1.25520  0.0
    943    911    912    913   5     0.00000     0.00000     1.95811  0.0
    943    911    912    944   5     0.00000     0.00000     1.25520  0.0
    943    911    912    945   5     0.00000     0.00000     1.25520  0.0
    911    912    913    914   5    -2.16731    -3.93296     0.98324  0.0
    944    912    913    914   5     0.00000     0.00000     0.67362  0.0
    945    912    913    914   5     0.00000     0.00000     0.67362  0.0
    912    913    914    915   5     0.00000    25.10400     0.00000  0.0
    912    913    914    916   5    13.65239    24.43456     0.00000  0.0
    913    914    916    917   5     0.00000     0.00000     3.07524  0.0
    913    914    916    946   5     0.00000     0.00000     0.00000  0.0
    913    914    916    947   5     0.00000     0.00000     0.00000  0.0
    915    914    916    917   5     0.00000     2.52295     0.00000  0.0
    915    914    916    946   5     0.00000     0.00000     0.00000  0.0
    915    914    916    947   5     0.00000     0.00000     0.00000  0.0
    914    916    917    918   5    -8.00818    -1.52298     2.46438  0.0
    914    916    917    948   5     0.00000     0.00000    -0.94140  0.0
    914    916    917    949   5     0.00000     0.00000    -0.94140  0.0
    946    916    917    918   5     0.00000     0.00000     1.25520  0.0
    946    916    917    948   5     0.00000     0.00000     1.25520  0.0
    946    916    917    949   5     0.00000     0.00000     1.25520  0.0
    947    916    917    918   5     0.00000     0.00000     1.25520  0.0
    947    916    917    948   5     0.00000     0.00000     1.25520  0.0
    947    916    917    949   5     0.00000     0.00000     1.25520  0.0
    916    917    918    919   5     4.74884    -0.63178     1.67360  0.0
    916    917    918    950   5     0.00000     0.00000     1.25520  0.0
    916    917    918    951   5     0.00000     0.00000     1.25520  0.0
    948    917    918    919   5     0.00000     0.00000     1.25520  0.0
    948    917    918    950   5     0.00000     0.00000     1.25520  0.0
    948    917    918    951   5     0.00000     0.00000     1.25520  0.0
    949    917    918    919   5     0.00000     0.00000     1.25520  0.0
    949    917    918    950   5     0.00000     0.00000     1.25520  0.0
    949    917    918    951   5     0.00000     0.00000     1.25520  0.0
    917    918    919    920   5     4.74884    -0.63178     1.67360  0.0
    917    918    919    952   5     0.00000     0.00000     1.25520  0.0
    917    918    919    953   5     0.00000     0.00000     1.25520  0.0
    950    918    919    920   5     0.00000     0.00000     1.25520  0.0
    950    918    919    952   5     0.00000     0.00000     1.25520  0.0
    950    918    919    953   5     0.00000     0.00000     1.25520  0.0
    951    918    919    920   5     0.00000     0.00000     1.25520  0.0
    951    918    919    952   5     0.00000     0.00000     1.25520  0.0
    951    918    919    953   5     0.00000     0.00000     1.25520  0.0
    918    919    920    921   5     4.74884    -0.63178     1.67360  0.0
    918    919    920    954   5     0.00000     0.00000     1.25520  0.0
    918    919    920    955   5     0.00000     0.00000     1.25520  0.0
    952    919    920    921   5     0.00000     0.00000     1.25520  0.0
    952    919    920    954   5     0.00000     0.00000     1.25520  0.0
    952    919    920    955   5     0.00000     0.00000     1.25520  0.0
    953    919    920    921   5     0.00000     0.00000     1.25520  0.0
    953    919    920    954   5     0.00000     0.00000     1.25520  0.0
    953    919    920    955   5     0.00000     0.00000     1.25520  0.0
    919    920    921    922   5     4.74884    -0.63178     1.67360  0.0
    919    920    921    956   5     0.00000     0.00000     1.25520  0.0
    919    920    921    957   5     0.00000     0.00000     1.25520  0.0
    954    920    921    922   5     0.00000     0.00000     1.25520  0.0
    954    920    921    956   5     0.00000     0.00000     1.25520  0.0
    954    920    921    957   5     0.00000     0.00000     1.25520  0.0
    955    920    921    922   5     0.00000     0.00000     1.25520  0.0
    955    920    921    956   5     0.00000     0.00000     1.25520  0.0
    955    920    921    957   5     0.00000     0.00000     1.25520  0.0
    920    921    922    923   5     4.74884    -0.63178     1.67360  0.0
    920    921    922    958   5     0.00000     0.00000     1.25520  0.0
    920    921    922    959   5     0.00000     0.00000     1.25520  0.0
    956    921    922    923   5     0.00000     0.00000     1.25520  0.0
    956    921    922    958   5     0.00000     0.00000     1.25520  0.0
    956    921    922    959   5     0.00000     0.00000     1.25520  0.0
    957    921    922    923   5     0.00000     0.00000     1.25520  0.0
    957    921    922    958   5     0.00000     0.00000     1.25520  0.0
    957    921    922    959   5     0.00000     0.00000     1.25520  0.0
    921    922    923    924   5    -8.00818    -1.52298     2.46438  0.0
    921    922    923    960   5     0.00000     0.00000     1.25520  0.0
    921    922    923    961   5     0.00000     0.00000     1.25520  0.0
    958    922    923    924   5     0.00000     0.00000    -0.94140  0.0
    958    922    923    960   5     0.00000     0.00000     1.25520  0.0
    958    922    923    961   5     0.00000     0.00000     1.25520  0.0
    959    922    923    924   5     0.00000     0.00000    -0.94140  0.0
    959    922    923    960   5     0.00000     0.00000     1.25520  0.0
    959    922    923    961   5     0.00000     0.00000     1.25520  0.0
    922    923    924    925   5     0.00000     2.52295     0.00000  0.0
    922    923    924    962   5     0.00000     0.00000     3.07524  0.0
    960    923    924    925   5     0.00000     0.00000     0.00000  0.0
    960    923    924    962   5     0.00000     0.00000     0.00000  0.0
    961    923    924    925   5     0.00000     0.00000     0.00000  0.0
    961    923    924    962   5     0.00000     0.00000     0.00000  0.0
    923    924    962    963   5    13.65239    24.43456     0.00000  0.0
    925    924    962    963   5     0.00000    25.10400     0.00000  0.0
    924    962    963    964   5    -2.16731    -3.93296     0.98324  0.0
    924    962    963    986   5     0.00000     0.00000     0.67362  0.0
    924    962    963    987   5     0.00000     0.00000     0.67362  0.0
    962    963    964    965   5     5.25092    -2.58990     2.28446  0.0
    962    963    964    988   5     0.00000     0.00000     1.95811  0.0
    962    963    964    989   5     0.00000     0.00000     1.95811  0.0
    986    963    964    965   5     0.00000     0.00000     1.25520  0.0
    986    963    964    988   5     0.00000     0.00000     1.25520  0.0
    986    963    964    989   5     0.00000     0.00000     1.25520  0.0
    987    963    964    965   5     0.00000     0.00000     1.25520  0.0
    987    963    964    988   5     0.00000     0.00000     1.25520  0.0
    987    963    964    989   5     0.00000     0.00000     1.25520  0.0
    963    964    965    966   5     4.74884    -0.63178     1.67360  0.0
    963    964    965    990   5     0.00000     0.00000     1.25520  0.0
    963    964    965    991   5     0.00000     0.00000     1.25520  0.0
    988    964    965    966   5     0.00000     0.00000     1.25520  0.0
    988    964    965    990   5     0.00000     0.00000     1.25520  0.0
    988    964    965    991   5     0.00000     0.00000     1.25520  0.0
    989    964    965    966   5     0.00000     0.00000     1.25520  0.0
    989    964    965    990   5     0.00000     0.00000     1.25520  0.0
    989    964    965    991   5     0.00000     0.00000     1.25520  0.0
    964    965    966    967   5     4.74884    -0.63178     1.67360  0.0
    964    965    966    992   5     0.00000     0.00000     1.25520  0.0
    964    965    966    993   5     0.00000     0.00000     1.25520  0.0
    990    965    966    967   5     0.00000     0.00000     1.25520  0.0
    990    965    966    992   5     0.00000     0.00000     1.25520  0.0
    990    965    966    993   5     0.00000     0.00000     1.25520  0.0
    991    965    966    967   5     0.00000     0.00000     1.25520  0.0
    991    965    966    992   5     0.00000     0.00000     1.25520  0.0
    991    965    966    993   5     0.00000     0.00000     1.25520  0.0
    965    966    967    968   5     4.74884    -0.63178     1.67360  0.0
    965    966    967    994   5     0.00000     0.00000     1.25520  0.0
    965    966    967    995   5     0.00000     0.00000     1.25520  0.0
    992    966    967    968   5     0.00000     0.00000     1.25520  0.0
    992    966    967    994   5     0.00000     0.00000     1.25520  0.0
    992    966    967    995   5     0.00000     0.00000     1.25520  0.0
    993    966    967    968   5     0.00000     0.00000     1.25520  0.0
    993    966    967    994   5     0.00000     0.00000     1.25520  0.0
    993    966    967    995   5     0.00000     0.00000     1.25520  0.0
    966    967    968    969   5     4.74884    -0.63178     1.67360  0.0
    966    967    968    996   5     0.00000     0.00000     1.25520  0.0
    966    967    968    997   5     0.00000     0.00000     1.25520  0.0
    994    967    968    969   5     0.00000     0.00000     1.25520  0.0
    994    967    968    996   5     0.00000     0.00000     1.25520  0.0
    994    967    968    997   5     0.00000     0.00000     1.25520  0.0
    995    967    968    969   5     0.00000     0.00000     1.25520  0.0
    995    967    968    996   5     0.00000     0.00000     1.25520  0.0
    995    967    968    997   5     0.00000     0.00000     1.25520  0.0
    967    968    969    970   5     4.74884    -0.63178     1.67360  0.0
    967    968    969    998   5     0.00000     0.00000     1.25520  0.0
    967    968    969    999   5     0.00000     0.00000     1.25520  0.0
    996    968    969    970   5     0.00000     0.00000     1.25520  0.0
    996    968    969    998   5     0.00000     0.00000     1.25520  0.0
    996    968    969    999   5     0.00000     0.00000     1.25520  0.0
    997    968    969    970   5     0.00000     0.00000     1.25520  0.0
    997    968    969    998   5     0.00000     0.00000     1.25520  0.0
    997    968    969    999   5     0.00000     0.00000     1.25520  0.0
    968    969    970    971   5     4.74884    -0.63178     1.67360  0.0
    968    969    970   1000   5     0.00000     0.00000     1.25520  0.0
    968    969    970   1001   5     0.00000     0.00000     1.25520  0.0
    998    969    970    971   5     0.00000     0.00000     1.25520  0.0
    998    969    970   1000   5     0.00000     0.00000     1.25520  0.0
    998    969    970   1001   5     0.00000     0.00000     1.25520  0.0
    999    969    970    971   5     0.00000     0.00000     1.25520  0.0
    999    969    970   1000   5     0.00000     0.00000     1.25520  0.0
    999    969    970   1001   5     0.00000     0.00000     1.25520  0.0
    969    970    971    972   5     4.74884    -0.63178     1.67360  0.0
    969    970    971   1002   5     0.00000     0.00000     1.25520  0.0
    969    970    971   1003   5     0.00000     0.00000     1.25520  0.0
   1000    970    971    972   5     0.00000     0.00000     1.25520  0.0
   1000    970    971   1002   5     0.00000     0.00000     1.25520  0.0
   1000    970    971   1003   5     0.00000     0.00000     1.25520  0.0
   1001    970    971    972   5     0.00000     0.00000     1.25520  0.0
   1001    970    971   1002   5     0.00000     0.00000     1.25520  0.0
   1001    970    971   1003   5     0.00000     0.00000     1.25520  0.0
    970    971    972    973   5     5.25092    -2.58990     2.28446  0.0
    970    971    972   1004   5     0.00000     0.00000     1.25520  0.0
    970    971    972   1005   5     0.00000     0.00000     1.25520  0.0
   1002    971    972    973   5     0.00000     0.00000     1.95811  0.0
   1002    971    972   1004   5     0.00000     0.00000     1.25520  0.0
   1002    971    972   1005   5     0.00000     0.00000     1.25520  0.0
   1003    971    972    973   5     0.00000     0.00000     1.95811  0.0
   1003    971    972   1004   5     0.00000     0.00000     1.25520  0.0
   1003    971    972   1005   5     0.00000     0.00000     1.25520  0.0
    971    972    973    974   5    -2.16731    -3.93296     0.98324  0.0
   1004    972    973    974   5     0.00000     0.00000     0.67362  0.0
   1005    972    973    974   5     0.00000     0.00000     0.67362  0.0
    972    973    974    975   5     0.00000    25.10400     0.00000  0.0
    972    973    974    976   5    13.65239    24.43456     0.00000  0.0
    973    974    976    977   5     0.00000     0.00000     3.07524  0.0
    973    974    976   1006   5     0.00000     0.00000     0.00000  0.0
    973    974    976   1007   5     0.00000     0.00000     0.00000  0.0
    975    974    976    977   5     0.00000     2.52295     0.00000  0.0
    975    974    976   1006   5     0.00000     0.00000     0.00000  0.0
    975    974    976   1007   5     0.00000     0.00000     0.00000  0.0
    974    976    977    978   5    -8.00818    -1.52298     2.46438  0.0
    974    976    977   1008   5     0.00000     0.00000    -0.94140  0.0
    974    976    977   1009   5     0.00000     0.00000    -0.94140  0.0
   1006    976    977    978   5     0.00000     0.00000     1.25520  0.0
   1006    976    977   1008   5     0.00000     0.00000     1.25520  0.0
   1006    976    977   1009   5     0.00000     0.00000     1.25520  0.0
   1007    976    977    978   5     0.00000     0.00000     1.25520  0.0
   1007    976    977   1008   5     0.00000     0.00000     1.25520  0.0
   1007    976    977   1009   5     0.00000     0.00000     1.25520  0.0
    976    977    978    979   5     4.74884    -0.63178     1.67360  0.0
    976    977    978   1010   5     0.00000     0.00000     1.25520  0.0
    976    977    978   1011   5     0.00000     0.00000     1.25520  0.0
   1008    977    978    979   5     0.00000     0.00000     1.25520  0.0
   1008    977    978   1010   5     0.00000     0.00000     1.25520  0.0
   1008    977    978   1011   5     0.00000     0.00000     1.25520  0.0
   1009    977    978    979   5     0.00000     0.00000     1.25520  0.0
   1009    977    978   1010   5     0.00000     0.00000     1.25520  0.0
   1009    977    978   1011   5     0.00000     0.00000     1.25520  0.0
    977    978    979    980   5     4.74884    -0.63178     1.67360  0.0
    977    978    979   1012   5     0.00000     0.00000     1.25520  0.0
    977    978    979   1013   5     0.00000     0.00000     1.25520  0.0
   1010    978    979    980   5     0.00000     0.00000     1.25520  0.0
   1010    978    979   1012   5     0.00000     0.00000     1.25520  0.0
   1010    978    979   1013   5     0.00000     0.00000     1.25520  0.0
   1011    978    979    980   5     0.00000     0.00000     1.25520  0.0
   1011    978    979   1012   5     0.00000     0.00000     1.25520  0.0
   1011    978    979   1013   5     0.00000     0.00000     1.25520  0.0
    978    979    980    981   5     4.74884    -0.63178     1.67360  0.0
    978    979    980   1014   5     0.00000     0.00000     1.25520  0.0
    978    979    980   1015   5     0.00000     0.00000     1.25520  0.0
   1012    979    980    981   5     0.00000     0.00000     1.25520  0.0
   1012    979    980   1014   5     0.00000     0.00000     1.25520  0.0
   1012    979    980   1015   5     0.00000     0.00000     1.25520  0.0
   1013    979    980    981   5     0.00000     0.00000     1.25520  0.0
   1013    979    980   1014   5     0.00000     0.00000     1.25520  0.0
   1013    979    980   1015   5     0.00000     0.00000     1.25520  0.0
    979    980    981    982   5     4.74884    -0.63178     1.67360  0.0
    979    980    981   1016   5     0.00000     0.00000     1.25520  0.0
    979    980    981   1017   5     0.00000     0.00000     1.25520  0.0
   1014    980    981    982   5     0.00000     0.00000     1.25520  0.0
   1014    980    981   1016   5     0.00000     0.00000     1.25520  0.0
   1014    980    981   1017   5     0.00000     0.00000     1.25520  0.0
   1015    980    981    982   5     0.00000     0.00000     1.25520  0.0
   1015    980    981   1016   5     0.00000     0.00000     1.25520  0.0
   1015    980    981   1017   5     0.00000     0.00000     1.25520  0.0
    980    981    982    983   5     4.74884    -0.63178     1.67360  0.0
    980    981    982   1018   5     0.00000     0.00000     1.25520  0.0
    980    981    982   1019   5     0.00000     0.00000     1.25520  0.0
   1016    981    982    983   5     0.00000     0.00000     1.25520  0.0
   1016    981    982   1018   5     0.00000     0.00000     1.25520  0.0
   1016    981    982   1019   5     0.00000     0.00000     1.25520  0.0
   1017    981    982    983   5     0.00000     0.00000     1.25520  0.0
   1017    981    982   1018   5     0.00000     0.00000     1.25520  0.0
   1017    981    982   1019   5     0.00000     0.00000     1.25520  0.0
    981    982    983    984   5    -8.00818    -1.52298     2.46438  0.0
    981    982    983   1020   5     0.00000     0.00000     1.25520  0.0
    981    982    983   1021   5     0.00000     0.00000     1.25520  0.0
   1018    982    983    984   5     0.00000     0.00000    -0.94140  0.0
   1018    982    983   1020   5     0.00000     0.00000     1.25520  0.0
   1018    982    983   1021   5     0.00000     0.00000     1.25520  0.0
   1019    982    983    984   5     0.00000     0.00000    -0.94140  0.0
   1019    982    983   1020   5     0.00000     0.00000     1.25520  0.0
   1019    982    983   1021   5     0.00000     0.00000     1.25520  0.0
    982    983    984    985   5     0.00000     2.52295     0.00000  0.0
    982    983    984   1022   5     0.00000     0.00000     3.07524  0.0
   1020    983    984    985   5     0.00000     0.00000     0.00000  0.0
   1020    983    984   1022   5     0.00000     0.00000     0.00000  0.0
   1021    983    984    985   5     0.00000     0.00000     0.00000  0.0
   1021    983    984   1022   5     0.00000     0.00000     0.00000  0.0
    983    984   1022   1023   5    13.65239    24.43456     0.00000  0.0
    985    984   1022   1023   5     0.00000    25.10400     0.00000  0.0
    984   1022   1023   1024   5    -2.16731    -3.93296     0.98324  0.0
    984   1022   1023   1046   5     0.00000     0.00000     0.67362  0.0
    984   1022   1023   1047   5     0.00000     0.00000     0.67362  0.0
   1022   1023   1024   1025   5     5.25092    -2.58990     2.28446  0.0
   1022   1023   1024   1048   5     0.00000     0.00000     1.95811  0.0
   1022   1023   1024   1049   5     0.00000     0.00000     1.95811  0.0
   1046   1023   1024   1025   5     0.00000     0.00000     1.25520  0.0
   1046   1023   1024   1048   5     0.00000     0.00000     1.25520  0.0
   1046   1023   1024   1049   5     0.00000     0.00000     1.25520  0.0
   1047   1023   1024   1025   5     0.00000     0.00000     1.25520  0.0
   1047   1023   1024   1048   5     0.00000     0.00000     1.25520  0.0
   1047   1023   1024   1049   5     0.00000     0.00000     1.25520  0.0
   1023   1024   1025   1026   5     4.74884    -0.63178     1.67360  0.0
   1023   1024   1025   1050   5     0.00000     0.00000     1.25520  0.0
   1023   1024   1025   1051   5     0.00000     0.00000     1.25520  0.0
   1048   1024   1025   1026   5     0.00000     0.00000     1.25520  0.0
   1048   1024   1025   1050   5     0.00000     0.00000     1.25520  0.0
   1048   1024   1025   1051   5     0.00000     0.00000     1.25520  0.0
   1049   1024   1025   1026   5     0.00000     0.00000     1.25520  0.0
   1049   1024   1025   1050   5     0.00000     0.00000     1.25520  0.0
   1049   1024   1025   1051   5     0.00000     0.00000     1.25520  0.0
   1024   1025   1026   1027   5     4.74884    -0.63178     1.67360  0.0
   1024   1025   1026   1052   5     0.00000     0.00000     1.25520  0.0
   1024   1025   1026   1053   5     0.00000     0.00000     1.25520  0.0
   1050   1025   1026   1027   5     0.00000     0.00000     1.25520  0.0
   1050   1025   1026   1052   5     0.00000     0.00000     1.25520  0.0
   1050   1025   1026   1053   5     0.00000     0.00000     1.25520  0.0
   1051   1025   1026   1027   5     0.00000     0.00000     1.25520  0.0
   1051   1025   1026   1052   5     0.00000     0.00000     1.25520  0.0
   1051   1025   1026   1053   5     0.00000     0.00000     1.25520  0.0
   1025   1026   1027   1028   5     4.74884    -0.63178     1.67360  0.0
   1025   1026   1027   1054   5     0.00000     0.00000     1.25520  0.0
   1025   1026   1027   1055   5     0.00000     0.00000     1.25520  0.0
   1052   1026   1027   1028   5     0.00000     0.00000     1.25520  0.0
   1052   1026   1027   1054   5     0.00000     0.00000     1.25520  0.0
   1052   1026   1027   1055   5     0.00000     0.00000     1.25520  0.0
   1053   1026   1027   1028   5     0.00000     0.00000     1.25520  0.0
   1053   1026   1027   1054   5     0.00000     0.00000     1.25520  0.0
   1053   1026   1027   1055   5     0.00000     0.00000     1.25520  0.0
   1026   1027   1028   1029   5     4.74884    -0.63178     1.67360  0.0
   1026   1027   1028   1056   5     0.00000     0.00000     1.25520  0.0
   1026   1027   1028   1057   5     0.00000     0.00000     1.25520  0.0
   1054   1027   1028   1029   5     0.00000     0.00000     1.25520  0.0
   1054   1027   1028   1056   5     0.00000     0.00000     1.25520  0.0
   1054   1027   1028   1057   5     0.00000     0.00000     1.25520  0.0
   1055   1027   1028   1029   5     0.00000     0.00000     1.25520  0.0
   1055   1027   1028   1056   5     0.00000     0.00000     1.25520  0.0
   1055   1027   1028   1057   5     0.00000     0.00000     1.25520  0.0
   1027   1028   1029   1030   5     4.74884    -0.63178     1.67360  0.0
   1027   1028   1029   1058   5     0.00000     0.00000     1.25520  0.0
   1027   1028   1029   1059   5     0.00000     0.00000     1.25520  0.0
   1056   1028   1029   1030   5     0.00000     0.00000     1.25520  0.0
   1056   1028   1029   1058   5     0.00000     0.00000     1.25520  0.0
   1056   1028   1029   1059   5     0.00000     0.00000     1.25520  0.0
   1057   1028   1029   1030   5     0.00000     0.00000     1.25520  0.0
   1057   1028   1029   1058   5     0.00000     0.00000     1.25520  0.0
   1057   1028   1029   1059   5     0.00000     0.00000     1.25520  0.0
   1028   1029   1030   1031   5     4.74884    -0.63178     1.67360  0.0
   1028   1029   1030   1060   5     0.00000     0.00000     1.25520  0.0
   1028   1029   1030   1061   5     0.00000     0.00000     1.25520  0.0
   1058   1029   1030   1031   5     0.00000     0.00000     1.25520  0.0
   1058   1029   1030   1060   5     0.00000     0.00000     1.25520  0.0
   1058   1029   1030   1061   5     0.00000     0.00000     1.25520  0.0
   1059   1029   1030   1031   5     0.00000     0.00000     1.25520  0.0
   1059   1029   1030   1060   5     0.00000     0.00000     1.25520  0.0
   1059   1029   1030   1061   5     0.00000     0.00000     1.25520  0.0
   1029   1030   1031   1032   5     4.74884    -0.63178     1.67360  0.0
   1029   1030   1031   1062   5     0.00000     0.00000     1.25520  0.0
   1029   1030   1031   1063   5     0.00000     0.00000     1.25520  0.0
   1060   1030   1031   1032   5     0.00000     0.00000     1.25520  0.0
   1060   1030   1031   1062   5     0.00000     0.00000     1.25520  0.0
   1060   1030   1031   1063   5     0.00000     0.00000     1.25520  0.0
   1061   1030   1031   1032   5     0.00000     0.00000     1.25520  0.0
   1061   1030   1031   1062   5     0.00000     0.00000     1.25520  0.0
   1061   1030   1031   1063   5     0.00000     0.00000     1.25520  0.0
   1030   1031   1032   1033   5     5.25092    -2.58990     2.28446  0.0
   1030   1031   1032   1064   5     0.00000     0.00000     1.25520  0.0
   1030   1031   1032   1065   5     0.00000     0.00000     1.25520  0.0
   1062   1031   1032   1033   5     0.00000     0.00000     1.95811  0.0
   1062   1031   1032   1064   5     0.00000     0.00000     1.25520  0.0
   1062   1031   1032   1065   5     0.00000     0.00000     1.25520  0.0
   1063   1031   1032   1033   5     0.00000     0.00000     1.95811  0.0
   1063   1031   1032   1064   5     0.00000     0.00000     1.25520  0.0
   1063   1031   1032   1065   5     0.00000     0.00000     1.25520  0.0
   1031   1032   1033   1034   5    -2.16731    -3.93296     0.98324  0.0
   1064   1032   1033   1034   5     0.00000     0.00000     0.67362  0.0
   1065   1032   1033   1034   5     0.00000     0.00000     0.67362  0.0
   1032   1033   1034   1035   5     0.00000    25.10400     0.00000  0.0
   1032   1033   1034   1036   5    13.65239    24.43456     0.00000  0.0
   1033   1034   1036   1037   5     0.00000     0.00000     3.07524  0.0
   1033   1034   1036   1066   5     0.00000     0.00000     0.00000  0.0
   1033   1034   1036   1067   5     0.00000     0.00000     0.00000  0.0
   1035   1034   1036   1037   5     0.00000     2.52295     0.00000  0.0
   1035   1034   1036   1066   5     0.00000     0.00000     0.00000  0.0
   1035   1034   1036   1067   5     0.00000     0.00000     0.00000  0.0
   1034   1036   1037   1038   5    -8.00818    -1.52298     2.46438  0.0
   1034   1036   1037   1068   5     0.00000     0.00000    -0.94140  0.0
   1034   1036   1037   1069   5     0.00000     0.00000    -0.94140  0.0
   1066   1036   1037   1038   5     0.00000     0.00000     1.25520  0.0
   1066   1036   1037   1068   5     0.00000     0.00000     1.25520  0.0
   1066   1036   1037   1069   5     0.00000     0.00000     1.25520  0.0
   1067   1036   1037   1038   5     0.00000     0.00000     1.25520  0.0
   1067   1036   1037   1068   5     0.00000     0.00000     1.25520  0.0
   1067   1036   1037   1069   5     0.00000     0.00000     1.25520  0.0
   1036   1037   1038   1039   5     4.74884    -0.63178     1.67360  0.0
   1036   1037   1038   1070   5     0.00000     0.00000     1.25520  0.0
   1036   1037   1038   1071   5     0.00000     0.00000     1.25520  0.0
   1068   1037   1038   1039   5     0.00000     0.00000     1.25520  0.0
   1068   1037   1038   1070   5     0.00000     0.00000     1.25520  0.0
   1068   1037   1038   1071   5     0.00000     0.00000     1.25520  0.0
   1069   1037   1038   1039   5     0.00000     0.00000     1.25520  0.0
   1069   1037   1038   1070   5     0.00000     0.00000     1.25520  0.0
   1069   1037   1038   1071   5     0.00000     0.00000     1.25520  0.0
   1037   1038   1039   1040   5     4.74884    -0.63178     1.67360  0.0
   1037   1038   1039   1072   5     0.00000     0.00000     1.25520  0.0
   1037   1038   1039   1073   5     0.00000     0.00000     1.25520  0.0
   1070   1038   1039   1040   5     0.00000     0.00000     1.25520  0.0
   1070   1038   1039   1072   5     0.00000     0.00000     1.25520  0.0
   1070   1038   1039   1073   5     0.00000     0.00000     1.25520  0.0
   1071   1038   1039   1040   5     0.00000     0.00000     1.25520  0.0
   1071   1038   1039   1072   5     0.00000     0.00000     1.25520  0.0
   1071   1038   1039   1073   5     0.00000     0.00000     1.25520  0.0
   1038   1039   1040   1041   5     4.74884    -0.63178     1.67360  0.0
   1038   1039   1040   1074   5     0.00000     0.00000     1.25520  0.0
   1038   1039   1040   1075   5     0.00000     0.00000     1.25520  0.0
   1072   1039   1040   1041   5     0.00000     0.00000     1.25520  0.0
   1072   1039   1040   1074   5     0.00000     0.00000     1.25520  0.0
   1072   1039   1040   1075   5     0.00000     0.00000     1.25520  0.0
   1073   1039   1040   1041   5     0.00000     0.00000     1.25520  0.0
   1073   1039   1040   1074   5     0.00000     0.00000     1.25520  0.0
   1073   1039   1040   1075   5     0.00000     0.00000     1.25520  0.0
   1039   1040   1041   1042   5     4.74884    -0.63178     1.67360  0.0
   1039   1040   1041   1076   5     0.00000     0.00000     1.25520  0.0
   1039   1040   1041   1077   5     0.00000     0.00000     1.25520  0.0
   1074   1040   1041   1042   5     0.00000     0.00000     1.25520  0.0
   1074   1040   1041   1076   5     0.00000     0.00000     1.25520  0.0
   1074   1040   1041   1077   5     0.00000     0.00000     1.25520  0.0
   1075   1040   1041   1042   5     0.00000     0.00000     1.25520  0.0
   1075   1040   1041   1076   5     0.00000     0.00000     1.25520  0.0
   1075   1040   1041   1077   5     0.00000     0.00000     1.25520  0.0
   1040   1041   1042   1043   5     4.74884    -0.63178     1.67360  0.0
   1040   1041   1042   1078   5     0.00000     0.00000     1.25520  0.0
   1040   1041   1042   1079   5     0.00000     0.00000     1.25520  0.0
   1076   1041   1042   1043   5     0.00000     0.00000     1.25520  0.0
   1076   1041   1042   1078   5     0.00000     0.00000     1.25520  0.0
   1076   1041   1042   1079   5     0.00000     0.00000     1.25520  0.0
   1077   1041   1042   1043   5     0.00000     0.00000     1.25520  0.0
   1077   1041   1042   1078   5     0.00000     0.00000     1.25520  0.0
   1077   1041   1042   1079   5     0.00000     0.00000     1.25520  0.0
   1041   1042   1043   1044   5    -8.00818    -1.52298     2.46438  0.0
   1041   1042   1043   1080   5     0.00000     0.00000     1.25520  0.0
   1041   1042   1043   1081   5     0.00000     0.00000     1.25520  0.0
   1078   1042   1043   1044   5     0.00000     0.00000    -0.94140  0.0
   1078   1042   1043   1080   5     0.00000     0.00000     1.25520  0.0
   1078   1042   1043   1081   5     0.00000     0.00000     1.25520  0.0
   1079   1042   1043   1044   5     0.00000     0.00000    -0.94140  0.0
   1079   1042   1043   1080   5     0.00000     0.00000     1.25520  0.0
   1079   1042   1043   1081   5     0.00000     0.00000     1.25520  0.0
   1042   1043   1044   1045   5     0.00000     2.52295     0.00000  0.0
   1042   1043   1044   1082   5     0.00000     0.00000     3.07524  0.0
   1080   1043   1044   1045   5     0.00000     0.00000     0.00000  0.0
   1080   1043   1044   1082   5     0.00000     0.00000     0.00000  0.0
   1081   1043   1044   1045   5     0.00000     0.00000     0.00000  0.0
   1081   1043   1044   1082   5     0.00000     0.00000     0.00000  0.0
   1043   1044   1082   1083   5    13.65239    24.43456     0.00000  0.0
   1045   1044   1082   1083   5     0.00000    25.10400     0.00000  0.0
   1044   1082   1083   1084   5    -2.16731    -3.93296     0.98324  0.0
   1044   1082   1083   1106   5     0.00000     0.00000     0.67362  0.0
   1044   1082   1083   1107   5     0.00000     0.00000     0.67362  0.0
   1082   1083   1084   1085   5     5.25092    -2.58990     2.28446  0.0
   1082   1083   1084   1108   5     0.00000     0.00000     1.95811  0.0
   1082   1083   1084   1109   5     0.00000     0.00000     1.95811  0.0
   1106   1083   1084   1085   5     0.00000     0.00000     1.25520  0.0
   1106   1083   1084   1108   5     0.00000     0.00000     1.25520  0.0
   1106   1083   1084   1109   5     0.00000     0.00000     1.25520  0.0
   1107   1083   1084   1085   5     0.00000     0.00000     1.25520  0.0
   1107   1083   1084   1108   5     0.00000     0.00000     1.25520  0.0
   1107   1083   1084   1109   5     0.00000     0.00000     1.25520  0.0
   1083   1084   1085   1086   5     4.74884    -0.63178     1.67360  0.0
   1083   1084   1085   1110   5     0.00000     0.00000     1.25520  0.0
   1083   1084   1085   1111   5     0.00000     0.00000     1.25520  0.0
   1108   1084   1085   1086   5     0.00000     0.00000     1.25520  0.0
   1108   1084   1085   1110   5     0.00000     0.00000     1.25520  0.0
   1108   1084   1085   1111   5     0.00000     0.00000     1.25520  0.0
   1109   1084   1085   1086   5     0.00000     0.00000     1.25520  0.0
   1109   1084   1085   1110   5     0.00000     0.00000     1.25520  0.0
   1109   1084   1085   1111   5     0.00000     0.00000     1.25520  0.0
   1084   1085   1086   1087   5     4.74884    -0.63178     1.67360  0.0
   1084   1085   1086   1112   5     0.00000     0.00000     1.25520  0.0
   1084   1085   1086   1113   5     0.00000     0.00000     1.25520  0.0
   1110   1085   1086   1087   5     0.00000     0.00000     1.25520  0.0
   1110   1085   1086   1112   5     0.00000     0.00000     1.25520  0.0
   1110   1085   1086   1113   5     0.00000     0.00000     1.25520  0.0
   1111   1085   1086   1087   5     0.00000     0.00000     1.25520  0.0
   1111   1085   1086   1112   5     0.00000     0.00000     1.25520  0.0
   1111   1085   1086   1113   5     0.00000     0.00000     1.25520  0.0
   1085   1086   1087   1088   5     4.74884    -0.63178     1.67360  0.0
   1085   1086   1087   1114   5     0.00000     0.00000     1.25520  0.0
   1085   1086   1087   1115   5     0.00000     0.00000     1.25520  0.0
   1112   1086   1087   1088   5     0.00000     0.00000     1.25520  0.0
   1112   1086   1087   1114   5     0.00000     0.00000     1.25520  0.0
   1112   1086   1087   1115   5     0.00000     0.00000     1.25520  0.0
   1113   1086   1087   1088   5     0.00000     0.00000     1.25520  0.0
   1113   1086   1087   1114   5     0.00000     0.00000     1.25520  0.0
   1113   1086   1087   1115   5     0.00000     0.00000     1.25520  0.0
   1086   1087   1088   1089   5     4.74884    -0.63178     1.67360  0.0
   1086   1087   1088   1116   5     0.00000     0.00000     1.25520  0.0
   1086   1087   1088   1117   5     0.00000     0.00000     1.25520  0.0
   1114   1087   1088   1089   5     0.00000     0.00000     1.25520  0.0
   1114   1087   1088   1116   5     0.00000     0.00000     1.25520  0.0
   1114   1087   1088   1117   5     0.00000     0.00000     1.25520  0.0
   1115   1087   1088   1089   5     0.00000     0.00000     1.25520  0.0
   1115   1087   1088   1116   5     0.00000     0.00000     1.25520  0.0
   1115   1087   1088   1117   5     0.00000     0.00000     1.25520  0.0
   1087   1088   1089   1090   5     4.74884    -0.63178     1.67360  0.0
   1087   1088   1089   1118   5     0.00000     0.00000     1.25520  0.0
   1087   1088   1089   1119   5     0.00000     0.00000     1.25520  0.0
   1116   1088   1089   1090   5     0.00000     0.00000     1.25520  0.0
   1116   1088   1089   1118   5     0.00000     0.00000     1.25520  0.0
   1116   1088   1089   1119   5     0.00000     0.00000     1.25520  0.0
   1117   1088   1089   1090   5     0.00000     0.00000     1.25520  0.0
   1117   1088   1089   1118   5     0.00000     0.00000     1.25520  0.0
   1117   1088   1089   1119   5     0.00000     0.00000     1.25520  0.0
   1088   1089   1090   1091   5     4.74884    -0.63178     1.67360  0.0
   1088   1089   1090   1120   5     0.00000     0.00000     1.25520  0.0
   1088   1089   1090   1121   5     0.00000     0.00000     1.25520  0.0
   1118   1089   1090   1091   5     0.00000     0.00000     1.25520  0.0
   1118   1089   1090   1120   5     0.00000     0.00000     1.25520  0.0
   1118   1089   1090   1121   5     0.00000     0.00000     1.25520  0.0
   1119   1089   1090   1091   5     0.00000     0.00000     1.25520  0.0
   1119   1089   1090   1120   5     0.00000     0.00000     1.25520  0.0
   1119   1089   1090   1121   5     0.00000     0.00000     1.25520  0.0
   1089   1090   1091   1092   5     4.74884    -0.63178     1.67360  0.0
   1089   1090   1091   1122   5     0.00000     0.00000     1.25520  0.0
   1089   1090   1091   1123   5     0.00000     0.00000     1.25520  0.0
   1120   1090   1091   1092   5     0.00000     0.00000     1.25520  0.0
   1120   1090   1091   1122   5     0.00000     0.00000     1.25520  0.0
   1120   1090   1091   1123   5     0.00000     0.00000     1.25520  0.0
   1121   1090   1091   1092   5     0.00000     0.00000     1.25520  0.0
   1121   1090   1091   1122   5     0.00000     0.00000     1.25520  0.0
   1121   1090   1091   1123   5     0.00000     0.00000     1.25520  0.0
   1090   1091   1092   1093   5     5.25092    -2.58990     2.28446  0.0
   1090   1091   1092   1124   5     0.00000     0.00000     1.25520  0.0
   1090   1091   1092   1125   5     0.00000     0.00000     1.25520  0.0
   1122   1091   1092   1093   5     0.00000     0.00000     1.95811  0.0
   1122   1091   1092   1124   5     0.00000     0.00000     1.25520  0.0
   1122   1091   1092   1125   5     0.00000     0.00000     1.25520  0.0
   1123   1091   1092   1093   5     0.00000     0.00000     1.95811  0.0
   1123   1091   1092   1124   5     0.00000     0.00000     1.25520  0.0
   1123   1091   1092   1125   5     0.00000     0.00000     1.25520  0.0
   1091   1092   1093   1094   5    -2.16731    -3.93296     0.98324  0.0
   1124   1092   1093   1094   5     0.00000     0.00000     0.67362  0.0
   1125   1092   1093   1094   5     0.00000     0.00000     0.67362  0.0
   1092   1093   1094   1095   5     0.00000    25.10400     0.00000  0.0
   1092   1093   1094   1096   5    13.65239    24.43456     0.00000  0.0
   1093   1094   1096   1097   5     0.00000     0.00000     3.07524  0.0
   1093   1094   1096   1126   5     0.00000     0.00000     0.00000  0.0
   1093   1094   1096   1127   5     0.00000     0.00000     0.00000  0.0
   1095   1094   1096   1097   5     0.00000     2.52295     0.00000  0.0
   1095   1094   1096   1126   5     0.00000     0.00000     0.00000  0.0
   1095   1094   1096   1127   5     0.00000     0.00000     0.00000  0.0
   1094   1096   1097   1098   5    -8.00818    -1.52298     2.46438  0.0
   1094   1096   1097   1128   5     0.00000     0.00000    -0.94140  0.0
   1094   1096   1097   1129   5     0.00000     0.00000    -0.94140  0.0
   1126   1096   1097   1098   5     0.00000     0.00000     1.25520  0.0
   1126   1096   1097   1128   5     0.00000     0.00000     1.25520  0.0
   1126   1096   1097   1129   5     0.00000     0.00000     1.25520  0.0
   1127   1096   1097   1098   5     0.00000     0.00000     1.25520  0.0
   1127   1096   1097   1128   5     0.00000     0.00000     1.25520  0.0
   1127   1096   1097   1129   5     0.00000     0.00000     1.25520  0.0
   1096   1097   1098   1099   5     4.74884    -0.63178     1.67360  0.0
   1096   1097   1098   1130   5     0.00000     0.00000     1.25520  0.0
   1096   1097   1098   1131   5     0.00000     0.00000     1.25520  0.0
   1128   1097   1098   1099   5     0.00000     0.00000     1.25520  0.0
   1128   1097   1098   1130   5     0.00000     0.00000     1.25520  0.0
   1128   1097   1098   1131   5     0.00000     0.00000     1.25520  0.0
   1129   1097   1098   1099   5     0.00000     0.00000     1.25520  0.0
   1129   1097   1098   1130   5     0.00000     0.00000     1.25520  0.0
   1129   1097   1098   1131   5     0.00000     0.00000     1.25520  0.0
   1097   1098   1099   1100   5     4.74884    -0.63178     1.67360  0.0
   1097   1098   1099   1132   5     0.00000     0.00000     1.25520  0.0
   1097   1098   1099   1133   5     0.00000     0.00000     1.25520  0.0
   1130   1098   1099   1100   5     0.00000     0.00000     1.25520  0.0
   1130   1098   1099   1132   5     0.00000     0.00000     1.25520  0.0
   1130   1098   1099   1133   5     0.00000     0.00000     1.25520  0.0
   1131   1098   1099   1100   5     0.00000     0.00000     1.25520  0.0
   1131   1098   1099   1132   5     0.00000     0.00000     1.25520  0.0
   1131   1098   1099   1133   5     0.00000     0.00000     1.25520  0.0
   1098   1099   1100   1101   5     4.74884    -0.63178     1.67360  0.0
   1098   1099   1100   1134   5     0.00000     0.00000     1.25520  0.0
   1098   1099   1100   1135   5     0.00000     0.00000     1.25520  0.0
   1132   1099   1100   1101   5     0.00000     0.00000     1.25520  0.0
   1132   1099   1100   1134   5     0.00000     0.00000     1.25520  0.0
   1132   1099   1100   1135   5     0.00000     0.00000     1.25520  0.0
   1133   1099   1100   1101   5     0.00000     0.00000     1.25520  0.0
   1133   1099   1100   1134   5     0.00000     0.00000     1.25520  0.0
   1133   1099   1100   1135   5     0.00000     0.00000     1.25520  0.0
   1099   1100   1101   1102   5     4.74884    -0.63178     1.67360  0.0
   1099   1100   1101   1136   5     0.00000     0.00000     1.25520  0.0
   1099   1100   1101   1137   5     0.00000     0.00000     1.25520  0.0
   1134   1100   1101   1102   5     0.00000     0.00000     1.25520  0.0
   1134   1100   1101   1136   5     0.00000     0.00000     1.25520  0.0
   1134   1100   1101   1137   5     0.00000     0.00000     1.25520  0.0
   1135   1100   1101   1102   5     0.00000     0.00000     1.25520  0.0
   1135   1100   1101   1136   5     0.00000     0.00000     1.25520  0.0
   1135   1100   1101   1137   5     0.00000     0.00000     1.25520  0.0
   1100   1101   1102   1103   5     4.74884    -0.63178     1.67360  0.0
   1100   1101   1102   1138   5     0.00000     0.00000     1.25520  0.0
   1100   1101   1102   1139   5     0.00000     0.00000     1.25520  0.0
   1136   1101   1102   1103   5     0.00000     0.00000     1.25520  0.0
   1136   1101   1102   1138   5     0.00000     0.00000     1.25520  0.0
   1136   1101   1102   1139   5     0.00000     0.00000     1.25520  0.0
   1137   1101   1102   1103   5     0.00000     0.00000     1.25520  0.0
   1137   1101   1102   1138   5     0.00000     0.00000     1.25520  0.0
   1137   1101   1102   1139   5     0.00000     0.00000     1.25520  0.0
   1101   1102   1103   1104   5    -8.00818    -1.52298     2.46438  0.0
   1101   1102   1103   1140   5     0.00000     0.00000     1.25520  0.0
   1101   1102   1103   1141   5     0.00000     0.00000     1.25520  0.0
   1138   1102   1103   1104   5     0.00000     0.00000    -0.94140  0.0
   1138   1102   1103   1140   5     0.00000     0.00000     1.25520  0.0
   1138   1102   1103   1141   5     0.00000     0.00000     1.25520  0.0
   1139   1102   1103   1104   5     0.00000     0.00000    -0.94140  0.0
   1139   1102   1103   1140   5     0.00000     0.00000     1.25520  0.0
   1139   1102   1103   1141   5     0.00000     0.00000     1.25520  0.0
   1102   1103   1104   1105   5     0.00000     2.52295     0.00000  0.0
   1102   1103   1104   1142   5     0.00000     0.00000     3.07524  0.0
   1140   1103   1104   1105   5     0.00000     0.00000     0.00000  0.0
   1140   1103   1104   1142   5     0.00000     0.00000     0.00000  0.0
   1141   1103   1104   1105   5     0.00000     0.00000     0.00000  0.0
   1141   1103   1104   1142   5     0.00000     0.00000     0.00000  0.0
   1103   1104   1142   1143   5    13.65239    24.43456     0.00000  0.0
   1105   1104   1142   1143   5     0.00000    25.10400     0.00000  0.0
   1104   1142   1143   1144   5    -2.16731    -3.93296     0.98324  0.0
   1104   1142   1143   1166   5     0.00000     0.00000     0.67362  0.0
   1104   1142   1143   1167   5     0.00000     0.00000     0.67362  0.0
   1142   1143   1144   1145   5     5.25092    -2.58990     2.28446  0.0
   1142   1143   1144   1168   5     0.00000     0.00000     1.95811  0.0
   1142   1143   1144   1169   5     0.00000     0.00000     1.95811  0.0
   1166   1143   1144   1145   5     0.00000     0.00000     1.25520  0.0
   1166   1143   1144   1168   5     0.00000     0.00000     1.25520  0.0
   1166   1143   1144   1169   5     0.00000     0.00000     1.25520  0.0
   1167   1143   1144   1145   5     0.00000     0.00000     1.25520  0.0
   1167   1143   1144   1168   5     0.00000     0.00000     1.25520  0.0
   1167   1143   1144   1169   5     0.00000     0.00000     1.25520  0.0
   1143   1144   1145   1146   5     4.74884    -0.63178     1.67360  0.0
   1143   1144   1145   1170   5     0.00000     0.00000     1.25520  0.0
   1143   1144   1145   1171   5     0.00000     0.00000     1.25520  0.0
   1168   1144   1145   1146   5     0.00000     0.00000     1.25520  0.0
   1168   1144   1145   1170   5     0.00000     0.00000     1.25520  0.0
   1168   1144   1145   1171   5     0.00000     0.00000     1.25520  0.0
   1169   1144   1145   1146   5     0.00000     0.00000     1.25520  0.0
   1169   1144   1145   1170   5     0.00000     0.00000     1.25520  0.0
   1169   1144   1145   1171   5     0.00000     0.00000     1.25520  0.0
   1144   1145   1146   1147   5     4.74884    -0.63178     1.67360  0.0
   1144   1145   1146   1172   5     0.00000     0.00000     1.25520  0.0
   1144   1145   1146   1173   5     0.00000     0.00000     1.25520  0.0
   1170   1145   1146   1147   5     0.00000     0.00000     1.25520  0.0
   1170   1145   1146   1172   5     0.00000     0.00000     1.25520  0.0
   1170   1145   1146   1173   5     0.00000     0.00000     1.25520  0.0
   1171   1145   1146   1147   5     0.00000     0.00000     1.25520  0.0
   1171   1145   1146   1172   5     0.00000     0.00000     1.25520  0.0
   1171   1145   1146   1173   5     0.00000     0.00000     1.25520  0.0
   1145   1146   1147   1148   5     4.74884    -0.63178     1.67360  0.0
   1145   1146   1147   1174   5     0.00000     0.00000     1.25520  0.0
   1145   1146   1147   1175   5     0.00000     0.00000     1.25520  0.0
   1172   1146   1147   1148   5     0.00000     0.00000     1.25520  0.0
   1172   1146   1147   1174   5     0.00000     0.00000     1.25520  0.0
   1172   1146   1147   1175   5     0.00000     0.00000     1.25520  0.0
   1173   1146   1147   1148   5     0.00000     0.00000     1.25520  0.0
   1173   1146   1147   1174   5     0.00000     0.00000     1.25520  0.0
   1173   1146   1147   1175   5     0.00000     0.00000     1.25520  0.0
   1146   1147   1148   1149   5     4.74884    -0.63178     1.67360  0.0
   1146   1147   1148   1176   5     0.00000     0.00000     1.25520  0.0
   1146   1147   1148   1177   5     0.00000     0.00000     1.25520  0.0
   1174   1147   1148   1149   5     0.00000     0.00000     1.25520  0.0
   1174   1147   1148   1176   5     0.00000     0.00000     1.25520  0.0
   1174   1147   1148   1177   5     0.00000     0.00000     1.25520  0.0
   1175   1147   1148   1149   5     0.00000     0.00000     1.25520  0.0
   1175   1147   1148   1176   5     0.00000     0.00000     1.25520  0.0
   1175   1147   1148   1177   5     0.00000     0.00000     1.25520  0.0
   1147   1148   1149   1150   5     4.74884    -0.63178     1.67360  0.0
   1147   1148   1149   1178   5     0.00000     0.00000     1.25520  0.0
   1147   1148   1149   1179   5     0.00000     0.00000     1.25520  0.0
   1176   1148   1149   1150   5     0.00000     0.00000     1.25520  0.0
   1176   1148   1149   1178   5     0.00000     0.00000     1.25520  0.0
   1176   1148   1149   1179   5     0.00000     0.00000     1.25520  0.0
   1177   1148   1149   1150   5     0.00000     0.00000     1.25520  0.0
   1177   1148   1149   1178   5     0.00000     0.00000     1.25520  0.0
   1177   1148   1149   1179   5     0.00000     0.00000     1.25520  0.0
   1148   1149   1150   1151   5     4.74884    -0.63178     1.67360  0.0
   1148   1149   1150   1180   5     0.00000     0.00000     1.25520  0.0
   1148   1149   1150   1181   5     0.00000     0.00000     1.25520  0.0
   1178   1149   1150   1151   5     0.00000     0.00000     1.25520  0.0
   1178   1149   1150   1180   5     0.00000     0.00000     1.25520  0.0
   1178   1149   1150   1181   5     0.00000     0.00000     1.25520  0.0
   1179   1149   1150   1151   5     0.00000     0.00000     1.25520  0.0
   1179   1149   1150   1180   5     0.00000     0.00000     1.25520  0.0
   1179   1149   1150   1181   5     0.00000     0.00000     1.25520  0.0
   1149   1150   1151   1152   5     4.74884    -0.63178     1.67360  0.0
   1149   1150   1151   1182   5     0.00000     0.00000     1.25520  0.0
   1149   1150   1151   1183   5     0.00000     0.00000     1.25520  0.0
   1180   1150   1151   1152   5     0.00000     0.00000     1.25520  0.0
   1180   1150   1151   1182   5     0.00000     0.00000     1.25520  0.0
   1180   1150   1151   1183   5     0.00000     0.00000     1.25520  0.0
   1181   1150   1151   1152   5     0.00000     0.00000     1.25520  0.0
   1181   1150   1151   1182   5     0.00000     0.00000     1.25520  0.0
   1181   1150   1151   1183   5     0.00000     0.00000     1.25520  0.0
   1150   1151   1152   1153   5     5.25092    -2.58990     2.28446  0.0
   1150   1151   1152   1184   5     0.00000     0.00000     1.25520  0.0
   1150   1151   1152   1185   5     0.00000     0.00000     1.25520  0.0
   1182   1151   1152   1153   5     0.00000     0.00000     1.95811  0.0
   1182   1151   1152   1184   5     0.00000     0.00000     1.25520  0.0
   1182   1151   1152   1185   5     0.00000     0.00000     1.25520  0.0
   1183   1151   1152   1153   5     0.00000     0.00000     1.95811  0.0
   1183   1151   1152   1184   5     0.00000     0.00000     1.25520  0.0
   1183   1151   1152   1185   5     0.00000     0.00000     1.25520  0.0
   1151   1152   1153   1154   5    -2.16731    -3.93296     0.98324  0.0
   1184   1152   1153   1154   5     0.00000     0.00000     0.67362  0.0
   1185   1152   1153   1154   5     0.00000     0.00000     0.67362  0.0
   1152   1153   1154   1155   5     0.00000    25.10400     0.00000  0.0
   1152   1153   1154   1156   5    13.65239    24.43456     0.00000  0.0
   1153   1154   1156   1157   5     0.00000     0.00000     3.07524  0.0
   1153   1154   1156   1186   5     0.00000     0.00000     0.00000  0.0
   1153   1154   1156   1187   5     0.00000     0.00000     0.00000  0.0
   1155   1154   1156   1157   5     0.00000     2.52295     0.00000  0.0
   1155   1154   1156   1186   5     0.00000     0.00000     0.00000  0.0
   1155   1154   1156   1187   5     0.00000     0.00000     0.00000  0.0
   1154   1156   1157   1158   5    -8.00818    -1.52298     2.46438  0.0
   1154   1156   1157   1188   5     0.00000     0.00000    -0.94140  0.0
   1154   1156   1157   1189   5     0.00000     0.00000    -0.94140  0.0
   1186   1156   1157   1158   5     0.00000     0.00000     1.25520  0.0
   1186   1156   1157   1188   5     0.00000     0.00000     1.25520  0.0
   1186   1156   1157   1189   5     0.00000     0.00000     1.25520  0.0
   1187   1156   1157   1158   5     0.00000     0.00000     1.25520  0.0
   1187   1156   1157   1188   5     0.00000     0.00000     1.25520  0.0
   1187   1156   1157   1189   5     0.00000     0.00000     1.25520  0.0
   1156   1157   1158   1159   5     4.74884    -0.63178     1.67360  0.0
   1156   1157   1158   1190   5     0.00000     0.00000     1.25520  0.0
   1156   1157   1158   1191   5     0.00000     0.00000     1.25520  0.0
   1188   1157   1158   1159   5     0.00000     0.00000     1.25520  0.0
   1188   1157   1158   1190   5     0.00000     0.00000     1.25520  0.0
   1188   1157   1158   1191   5     0.00000     0.00000     1.25520  0.0
   1189   1157   1158   1159   5     0.00000     0.00000     1.25520  0.0
   1189   1157   1158   1190   5     0.00000     0.00000     1.25520  0.0
   1189   1157   1158   1191   5     0.00000     0.00000     1.25520  0.0
   1157   1158   1159   1160   5     4.74884    -0.63178     1.67360  0.0
   1157   1158   1159   1192   5     0.00000     0.00000     1.25520  0.0
   1157   1158   1159   1193   5     0.00000     0.00000     1.25520  0.0
   1190   1158   1159   1160   5     0.00000     0.00000     1.25520  0.0
   1190   1158   1159   1192   5     0.00000     0.00000     1.25520  0.0
   1190   1158   1159   1193   5     0.00000     0.00000     1.25520  0.0
   1191   1158   1159   1160   5     0.00000     0.00000     1.25520  0.0
   1191   1158   1159   1192   5     0.00000     0.00000     1.25520  0.0
   1191   1158   1159   1193   5     0.00000     0.00000     1.25520  0.0
   1158   1159   1160   1161   5     4.74884    -0.63178     1.67360  0.0
   1158   1159   1160   1194   5     0.00000     0.00000     1.25520  0.0
   1158   1159   1160   1195   5     0.00000     0.00000     1.25520  0.0
   1192   1159   1160   1161   5     0.00000     0.00000     1.25520  0.0
   1192   1159   1160   1194   5     0.00000     0.00000     1.25520  0.0
   1192   1159   1160   1195   5     0.00000     0.00000     1.25520  0.0
   1193   1159   1160   1161   5     0.00000     0.00000     1.25520  0.0
   1193   1159   1160   1194   5     0.00000     0.00000     1.25520  0.0
   1193   1159   1160   1195   5     0.00000     0.00000     1.25520  0.0
   1159   1160   1161   1162   5     4.74884    -0.63178     1.67360  0.0
   1159   1160   1161   1196   5     0.00000     0.00000     1.25520  0.0
   1159   1160   1161   1197   5     0.00000     0.00000     1.25520  0.0
   1194   1160   1161   1162   5     0.00000     0.00000     1.25520  0.0
   1194   1160   1161   1196   5     0.00000     0.00000     1.25520  0.0
   1194   1160   1161   1197   5     0.00000     0.00000     1.25520  0.0
   1195   1160   1161   1162   5     0.00000     0.00000     1.25520  0.0
   1195   1160   1161   1196   5     0.00000     0.00000     1.25520  0.0
   1195   1160   1161   1197   5     0.00000     0.00000     1.25520  0.0
   1160   1161   1162   1163   5     4.74884    -0.63178     1.67360  0.0
   1160   1161   1162   1198   5     0.00000     0.00000     1.25520  0.0
   1160   1161   1162   1199   5     0.00000     0.00000     1.25520  0.0
   1196   1161   1162   1163   5     0.00000     0.00000     1.25520  0.0
   1196   1161   1162   1198   5     0.00000     0.00000     1.25520  0.0
   1196   1161   1162   1199   5     0.00000     0.00000     1.25520  0.0
   1197   1161   1162   1163   5     0.00000     0.00000     1.25520  0.0
   1197   1161   1162   1198   5     0.00000     0.00000     1.25520  0.0
   1197   1161   1162   1199   5     0.00000     0.00000     1.25520  0.0
   1161   1162   1163   1164   5    -8.00818    -1.52298     2.46438  0.0
   1161   1162   1163   1200   5     0.00000     0.00000     1.25520  0.0
   1161   1162   1163   1201   5     0.00000     0.00000     1.25520  0.0
   1198   1162   1163   1164   5     0.00000     0.00000    -0.94140  0.0
   1198   1162   1163   1200   5     0.00000     0.00000     1.25520  0.0
   1198   1162   1163   1201   5     0.00000     0.00000     1.25520  0.0
   1199   1162   1163   1164   5     0.00000     0.00000    -0.94140  0.0
   1199   1162   1163   1200   5     0.00000     0.00000     1.25520  0.0
   1199   1162   1163   1201   5     0.00000     0.00000     1.25520  0.0
   1162   1163   1164   1165   5     0.00000     2.52295     0.00000  0.0
   1162   1163   1164   1202   5     6.23834    -0.04184     0.00000  0.0
   1200   1163   1164   1165   5     0.00000     0.00000     0.00000  0.0
   1200   1163   1164   1202   5     0.00000     0.00000     0.00000  0.0
   1201   1163   1164   1165   5     0.00000     0.00000     0.00000  0.0
   1201   1163   1164   1202   5     0.00000     0.00000     0.00000  0.0

[ dihedrals ]
; Improper dihedrals
; h   i   j   k   funct
     12     14     13     15   5     0.00000    87.86400     0.00000  0.0
     22     24     23     62   5     0.00000    87.86400     0.00000  0.0
     73     75     74     76   5     0.00000    87.86400     0.00000  0.0
     83     85     84    122   5     0.00000    87.86400     0.00000  0.0
    133    135    134    136   5     0.00000    87.86400     0.00000  0.0
    143    145    144    182   5     0.00000    87.86400     0.00000  0.0
    193    195    194    196   5     0.00000    87.86400     0.00000  0.0
    203    205    204    242   5     0.00000    87.86400     0.00000  0.0
    253    255    254    256   5     0.00000    87.86400     0.00000  0.0
    263    265    264    302   5     0.00000    87.86400     0.00000  0.0
    313    315    314    316   5     0.00000    87.86400     0.00000  0.0
    323    325    324    362   5     0.00000    87.86400     0.00000  0.0
    373    375    374    376   5     0.00000    87.86400     0.00000  0.0
    383    385    384    422   5     0.00000    87.86400     0.00000  0.0
    433    435    434    436   5     0.00000    87.86400     0.00000  0.0
    443    445    444    482   5     0.00000    87.86400     0.00000  0.0
    493    495    494    496   5     0.00000    87.86400     0.00000  0.0
    503    505    504    542   5     0.00000    87.86400     0.00000  0.0
    553    555    554    556   5     0.00000    87.86400     0.00000  0.0
    563    565    564    602   5     0.00000    87.86400     0.00000  0.0
    613    615    614    616   5     0.00000    87.86400     0.00000  0.0
    623    625    624    662   5     0.00000    87.86400     0.00000  0.0
    673    675    674    676   5     0.00000    87.86400     0.00000  0.0
    683    685    684    722   5     0.00000    87.86400     0.00000  0.0
    733    735    734    736   5     0.00000    87.86400     0.00000  0.0
    743    745    744    782   5     0.00000    87.86400     0.00000  0.0
    793    795    794    796   5     0.00000    87.86400     0.00000  0.0
    803    805    804    842   5     0.00000    87.86400     0.00000  0.0
    853    855    854    856   5     0.00000    87.86400     0.00000  0.0
    863    865    864    902   5     0.00000    87.86400     0.00000  0.0
    913    915    914    916   5     0.00000    87.86400     0.00000  0.0
    923    925    924    962   5     0.00000    87.86400     0.00000  0.0
    973    975    974    976   5     0.00000    87.86400     0.00000  0.0
    983    985    984   1022   5     0.00000    87.86400     0.00000  0.0
   1033   1035   1034   1036   5     0.00000    87.86400     0.00000  0.0
   1043   1045   1044   1082   5     0.00000    87.86400     0.00000  0.0
   1093   1095   1094   1096   5     0.00000    87.86400     0.00000  0.0
   1103   1105   1104   1142   5     0.00000    87.86400     0.00000  0.0
   1153   1155   1154   1156   5     0.00000    87.86400     0.00000  0.0
   1163   1165   1164   1202   5     0.00000    87.86400     0.00000  0.0
