Control file title. For DL_FIELD 4.10
49282
    1MOL     O1    1   6.335   6.274   4.399 -0.3684 -0.2371  0.4904
    1MOL     C2    2   6.447   6.340   4.451  0.0472  0.6170 -0.0237
    1MOL     C3    3   6.489   6.261   4.572 -0.6759 -0.1806 -0.1104
    1MOL     C4    4   6.617   6.311   4.633  0.3444 -0.3623  0.5632
    1MOL     C5    5   6.672   6.235   4.755  0.0969 -0.1847 -0.0914
    1MOL     C6    6   6.733   6.094   4.730  0.3436 -0.4930  0.0019
    1MOL     C7    7   6.763   6.025   4.867 -0.2418  0.3459 -0.7237
    1MOL     C8    8   6.829   5.889   4.848  0.8732 -0.5530  0.3696
    1MOL     C9    9   6.848   5.817   4.981 -0.2390  0.3071  0.3319
    1MOL    C10   10   6.969   5.873   5.059 -1.0031  0.4730 -0.0144
    1MOL    C11   11   6.995   5.795   5.194 -0.2648 -0.6906 -0.3214
    1MOL    O12   12   7.128   5.823   5.239  0.0638  0.3264 -0.0337
    1MOL    C13   13   7.162   5.939   5.297 -0.2992 -0.3723 -0.6323
    1MOL    O14   14   7.087   6.040   5.306 -0.3102 -0.3793  0.1593
    1MOL    C15   15   7.310   5.948   5.339  0.0217  0.1115  0.9050
    1MOL    C16   16   7.407   5.925   5.218 -0.7293  0.4754  0.2746
    1MOL    C17   17   7.394   6.035   5.104  0.4650  0.4176  0.2101
    1MOL    C18   18   7.526   6.036   5.023 -0.1427 -0.5488 -0.5538
    1MOL    C19   19   7.512   6.134   4.908  0.3393 -0.1649 -0.1042
    1MOL    C20   20   7.515   6.282   4.945  0.3291  0.0063  0.0503
    1MOL    C21   21   7.503   6.368   4.816  0.3212  0.0352  0.4716
    1MOL    C22   22   7.640   6.360   4.743 -0.0267 -0.0539  0.0952
    1MOL    C23   23   7.622   6.453   4.616 -0.6244  0.6256 -0.0002
    1MOL    O24   24   7.682   6.562   4.605 -0.9801  0.2016  0.0264
    1MOL    H25   25   6.522   6.335   4.372 -0.6306  3.0897 -0.8689
    1MOL    H26   26   6.430   6.444   4.479  0.1763  0.0128  2.3776
    1MOL    H27   27   6.409   6.248   4.644  0.5097  2.3389  1.7458
    1MOL    H28   28   6.516   6.161   4.538 -0.7873 -0.4306  0.5226
    1MOL    H29   29   6.700   6.320   4.563 -0.7300  2.1029 -0.4419
    1MOL    H30   30   6.593   6.415   4.658 -2.8968 -1.5489  2.6519
    1MOL    H31   31   6.758   6.289   4.795  0.1586 -0.8197  0.6552
    1MOL    H32   32   6.596   6.237   4.832  0.5705  2.5596  0.3758
    1MOL    H33   33   6.821   6.104   4.667  0.3129  0.6343  0.1165
    1MOL    H34   34   6.666   6.038   4.665  0.5533 -2.1638  1.2072
    1MOL    H35   35   6.671   6.019   4.925 -1.4327  1.0080 -2.4712
    1MOL    H36   36   6.830   6.084   4.929  1.3888 -3.9560  1.7237
    1MOL    H37   37   6.920   5.913   4.792  0.5075 -0.7275 -0.3148
    1MOL    H38   38   6.767   5.822   4.788 -2.3044  2.3687  0.2450
    1MOL    H39   39   6.869   5.712   4.963 -2.2341  0.2776 -2.1692
    1MOL    H40   40   6.759   5.824   5.042 -0.1875  1.5300  0.2903
    1MOL    H41   41   7.058   5.868   4.996  1.5483  0.7720  3.3948
    1MOL    H42   42   6.952   5.980   5.070  1.3232  0.8997 -0.3337
    1MOL    H43   43   6.927   5.826   5.273  0.5245 -0.8908  0.4487
    1MOL    H44   44   6.992   5.686   5.189  1.7560 -0.7782 -0.0001
    1MOL    H45   45   7.316   5.880   5.424  0.0680  0.0156  0.8247
    1MOL    H46   46   7.338   6.043   5.386  1.7144  0.3797 -0.5946
    1MOL    H47   47   7.394   5.825   5.175  1.6411  0.0025  0.6082
    1MOL    H48   48   7.508   5.917   5.258 -0.0998  0.0485 -1.3603
    1MOL    H49   49   7.381   6.134   5.148  0.8815  0.3822  0.4177
    1MOL    H50   50   7.311   6.004   5.040  0.0659 -1.2351  1.4941
    1MOL    H51   51   7.541   5.936   4.983  4.4890 -0.9688  1.8124
    1MOL    H52   52   7.612   6.062   5.086 -2.1405  0.2376  1.9185
    1MOL    H53   53   7.588   6.098   4.839  1.4512  1.4010  0.2791
    1MOL    H54   54   7.425   6.111   4.846 -0.6355 -0.2706  1.2832
    1MOL    H55   55   7.434   6.307   5.013  0.0023  2.6812 -1.2410
    1MOL    H56   56   7.606   6.301   5.001  0.8145 -0.8305 -0.4392
    1MOL    H57   57   7.479   6.473   4.833  1.3579  0.4875 -0.7275
    1MOL    H58   58   7.420   6.330   4.757  0.6345 -0.2561  0.2182
    1MOL    H59   59   7.724   6.398   4.801 -1.1666 -0.2092  1.8997
    1MOL    H60   60   7.663   6.255   4.721  1.0160  0.1815  0.0445
    1MOL    H61   61   6.271   6.310   4.458 -0.1513  2.3359 -0.7665
    1MOL    O62   62   7.540   6.397   4.530 -0.3101  0.5126 -0.2866
    1MOL    C63   63   7.515   6.448   4.402  0.5979 -0.8025  0.3612
    1MOL    C64   64   7.406   6.365   4.339  0.0556 -0.2755 -0.4693
    1MOL    C65   65   7.332   6.448   4.235 -0.5892 -0.2349  0.0551
    1MOL    C66   66   7.409   6.493   4.112  0.2318 -0.0563 -0.5656
    1MOL    C67   67   7.406   6.381   4.011  0.5231 -0.1454  0.3650
    1MOL    C68   68   7.501   6.386   3.897  0.5341 -0.2070 -0.2928
    1MOL    C69   69   7.444   6.336   3.766 -0.4906 -0.1605  0.3664
    1MOL    C70   70   7.543   6.360   3.651  0.3247  0.3456  0.2128
    1MOL    C71   71   7.469   6.341   3.518  0.5913  0.5951 -0.1497
    1MOL    C72   72   7.407   6.202   3.509  0.2601  0.2430 -0.0368
    1MOL    O73   73   7.492   6.091   3.529 -0.1129 -0.6735 -1.6385
    1MOL    C74   74   7.437   5.973   3.559 -0.8139  0.6130  0.1384
    1MOL    O75   75   7.323   5.936   3.532 -0.0530  0.8105  0.4025
    1MOL    C76   76   7.524   5.882   3.640  0.1358  0.5841 -0.5073
    1MOL    C77   77   7.525   5.920   3.786 -0.3425  0.1658 -0.0041
    1MOL    C78   78   7.402   5.884   3.871 -0.1401 -0.2770  0.3491
    1MOL    C79   79   7.402   5.930   4.015 -0.3897 -0.7651 -0.1331
    1MOL    C80   80   7.514   5.878   4.102 -0.0955 -0.3269  0.6250
    1MOL    C81   81   7.483   5.902   4.251  0.8660  0.4580 -0.1139
    1MOL    C82   82   7.566   5.832   4.355 -0.2008  0.3544 -0.1507
    1MOL    C83   83   7.568   5.929   4.487 -0.1719 -0.2328 -0.6332
    1MOL    C84   84   7.436   5.935   4.561 -0.7232 -0.3059 -0.5734
    1MOL    O85   85   7.377   5.831   4.595 -0.4847 -0.7295 -0.0117
    1MOL    H86   86   7.474   6.548   4.409  2.0818 -0.0774 -0.7946
    1MOL    H87   87   7.598   6.445   4.330  0.4218  1.3659  0.0202
    1MOL    H88   88   7.446   6.267   4.314  0.1090 -0.6850  1.1652
    1MOL    H89   89   7.325   6.355   4.411  0.1816  1.2720 -0.0877
    1MOL    H90   90   7.238   6.403   4.203 -0.7696  0.3900 -0.3009
    1MOL    H91   91   7.306   6.542   4.284  2.0367  0.1182  0.8316
    1MOL    H92   92   7.367   6.585   4.072  0.1193 -0.1908 -0.7578
    1MOL    H93   93   7.507   6.522   4.148 -0.7775  0.2788  1.9864
    1MOL    H94   94   7.308   6.349   3.976  0.9253 -0.6828 -0.2897
    1MOL    H95   95   7.436   6.294   4.070 -2.0161 -1.4443 -0.1679
    1MOL    H96   96   7.596   6.345   3.931  0.5000 -0.9831 -1.1143
    1MOL    H97   97   7.513   6.494   3.881 -0.5048 -0.0682 -0.1498
    1MOL    H98   98   7.344   6.374   3.749 -0.7630 -0.1384  1.9775
    1MOL    H99   99   7.425   6.230   3.783  3.1534 -0.3409  4.3762
    1MOL   H100  100   7.633   6.299   3.656  1.2507  1.3219 -3.1959
    1MOL   H101  101   7.587   6.459   3.656 -0.5421  0.7152  0.7087
    1MOL   H102  102   7.406   6.426   3.493  1.3872  1.6066  1.1960
    1MOL   H103  103   7.535   6.342   3.432  0.7920 -2.2235 -0.0845
    1MOL   H104  104   7.318   6.181   3.568  0.4870 -0.4525  0.0694
    1MOL   H105  105   7.370   6.194   3.407 -0.6620  1.3334  0.2031
    1MOL   H106  106   7.618   5.891   3.586  0.2498 -1.4561 -0.7064
    1MOL   H107  107   7.482   5.781   3.634 -1.5092  1.2809 -1.2098
    1MOL   H108  108   7.545   6.027   3.795  1.0699 -0.0970  0.2118
    1MOL   H109  109   7.607   5.867   3.835 -0.5854 -0.9152 -0.7462
    1MOL   H110  110   7.378   5.779   3.862  2.2030 -0.7486 -1.0660
    1MOL   H111  111   7.310   5.929   3.832 -1.3467 -1.3535  1.9258
    1MOL   H112  112   7.306   5.909   4.062 -0.7092  1.0745  0.0588
    1MOL   H113  113   7.400   6.039   4.015  2.4726 -0.5695  4.4792
    1MOL   H114  114   7.540   5.774   4.081 -1.3879 -0.1029 -2.3254
    1MOL   H115  115   7.600   5.943   4.086 -0.7171  0.7978  1.8292
    1MOL   H116  116   7.487   6.010   4.261 -2.4713  0.7558 -1.3099
    1MOL   H117  117   7.381   5.871   4.276  0.8476  0.3329 -0.3467
    1MOL   H118  118   7.669   5.828   4.321  0.2108 -0.0815  1.1295
    1MOL   H119  119   7.536   5.730   4.381  2.1755 -0.1764  0.5647
    1MOL   H120  120   7.648   5.880   4.542 -0.2416 -0.1757 -0.4788
    1MOL   H121  121   7.620   6.021   4.460  0.8712 -1.0991 -1.5762
    1MOL   O122  122   7.392   6.058   4.577 -0.5893 -0.1570 -0.2248
    1MOL   C123  123   7.251   6.064   4.597  0.0112  0.1321  0.7537
    1MOL   C124  124   7.159   6.028   4.479  0.5497 -0.1435  0.0239
    1MOL   C125  125   7.162   6.120   4.364  0.1661 -0.5182  0.3973
    1MOL   C126  126   7.072   6.088   4.243 -0.0234 -0.3315 -0.5706
    1MOL   C127  127   6.923   6.092   4.285 -0.0375  0.0735 -0.6995
    1MOL   C128  128   6.822   6.126   4.174  0.8586  0.2793  0.3143
    1MOL   C129  129   6.675   6.112   4.228  0.1150 -0.5205  0.1722
    1MOL   C130  130   6.563   6.148   4.143 -0.6962  0.8926 -0.3573
    1MOL   C131  131   6.581   6.067   4.014  0.2011 -0.2876  0.1387
    1MOL   C132  132   6.450   6.056   3.940  0.1050  0.2461 -0.1697
    1MOL   O133  133   6.466   5.967   3.825  0.2314  0.3298  0.2845
    1MOL   C134  134   6.498   6.022   3.708 -0.3213  0.6735  0.0926
    1MOL   O135  135   6.555   6.125   3.697 -0.2415 -0.0733  0.0741
    1MOL   C136  136   6.454   5.938   3.585 -0.0556  0.1159 -0.5095
    1MOL   C137  137   6.484   5.987   3.444  0.0872 -0.3179  0.1095
    1MOL   C138  138   6.486   5.870   3.340  0.3976 -0.6281  0.3938
    1MOL   C139  139   6.470   5.899   3.193  0.2857 -0.0580 -0.5215
    1MOL   C140  140   6.488   5.770   3.110 -0.3322  0.2819  0.0360
    1MOL   C141  141   6.450   5.785   2.962 -0.6023  0.6772 -0.3679
    1MOL   C142  142   6.528   5.678   2.880  0.9227  0.2879  0.0243
    1MOL   C143  143   6.499   5.689   2.727 -0.1378  0.1689  0.0082
    1MOL   C144  144   6.366   5.637   2.675 -0.3358 -0.1914 -0.4009
    1MOL   O145  145   6.361   5.544   2.594  0.3860 -0.2758  0.1729
    1MOL   H146  146   7.222   5.995   4.677  1.8731 -1.8207 -0.2168
    1MOL   H147  147   7.225   6.165   4.631 -1.6091 -0.4143  1.1924
    1MOL   H148  148   7.180   5.924   4.455  3.2806  0.1661  0.9073
    1MOL   H149  149   7.057   6.029   4.518  0.9983 -0.0388  1.2113
    1MOL   H150  150   7.137   6.222   4.395  1.9934 -0.6027  2.2315
    1MOL   H151  151   7.261   6.113   4.321 -0.2353 -2.3462 -0.2560
    1MOL   H152  152   7.105   6.160   4.167  0.1654 -0.3340 -0.4900
    1MOL   H153  153   7.096   5.996   4.189  0.4701  0.7169 -2.1749
    1MOL   H154  154   6.906   6.173   4.356 -0.8389  0.5480 -1.4224
    1MOL   H155  155   6.884   6.008   4.341  1.1844 -0.5586 -0.7862
    1MOL   H156  156   6.843   6.062   4.088  0.7221 -0.0225  0.5050
    1MOL   H157  157   6.841   6.229   4.143  3.9709 -0.2886  0.1927
    1MOL   H158  158   6.672   6.153   4.329 -1.7570 -5.0054  2.0811
    1MOL   H159  159   6.654   6.006   4.245  1.2276 -0.3621  2.7562
    1MOL   H160  160   6.565   6.256   4.130  0.4716  0.7128 -1.8446
    1MOL   H161  161   6.475   6.122   4.201 -0.4137  0.0941 -0.2746
    1MOL   H162  162   6.657   6.109   3.947 -0.1174  0.9502  0.5483
    1MOL   H163  163   6.603   5.962   4.033  0.6924 -0.2285 -0.0849
    1MOL   H164  164   6.371   6.018   4.006  1.0009 -0.7231  0.3582
    1MOL   H165  165   6.422   6.159   3.918 -3.2714 -0.6387 -0.4041
    1MOL   H166  166   6.351   5.907   3.597 -0.2970  0.8430 -0.6558
    1MOL   H167  167   6.517   5.852   3.608 -2.1389 -1.2889  0.1228
    1MOL   H168  168   6.579   6.039   3.437  0.0897 -0.5822 -1.8481
    1MOL   H169  169   6.399   6.051   3.418 -1.2495 -2.2488 -0.3578
    1MOL   H170  170   6.397   5.814   3.369 -0.9001  0.3936 -1.5247
    1MOL   H171  171   6.578   5.814   3.356  1.0741  0.6115  0.9096
    1MOL   H172  172   6.543   5.973   3.159  0.7129 -0.3104 -0.1622
    1MOL   H173  173   6.377   5.951   3.175  0.2012 -0.4190 -1.1751
    1MOL   H174  174   6.588   5.727   3.124 -1.6004 -2.1520  2.0399
    1MOL   H175  175   6.436   5.685   3.155  0.5136  0.3185  1.1311
    1MOL   H176  176   6.341   5.786   2.965 -0.5821 -0.1518  0.5949
    1MOL   H177  177   6.477   5.888   2.939  2.0485 -0.4300 -2.4394
    1MOL   H178  178   6.508   5.580   2.924 -0.8277  1.1659  1.2329
    1MOL   H179  179   6.635   5.692   2.897  0.8148  1.3110 -0.1415
    1MOL   H180  180   6.497   5.794   2.701 -0.3525 -0.3385 -2.1185
    1MOL   H181  181   6.576   5.645   2.664 -0.0483  1.0826 -0.5293
    1MOL   O182  182   6.264   5.698   2.735  0.3816  0.2997  0.1782
    1MOL   C183  183   6.132   5.656   2.715 -0.0602  0.6308  0.2000
    1MOL   C184  184   6.074   5.601   2.845  0.4874 -0.6528  0.2664
    1MOL   C185  185   6.120   5.460   2.885  0.2391 -0.0888 -0.4637
    1MOL   C186  186   6.050   5.417   3.013 -0.4982 -0.6295 -0.9244
    1MOL   C187  187   6.112   5.287   3.072 -0.5116 -0.4546  0.1624
    1MOL   C188  188   6.093   5.164   2.972  0.1863 -0.6104 -0.0110
    1MOL   C189  189   6.101   5.016   3.022 -0.0808 -0.1111 -0.0474
    1MOL   C190  190   6.247   4.963   3.044  0.7689 -0.0223 -0.0826
    1MOL   C191  191   6.331   4.956   2.910  0.0290  0.1577  0.2798
    1MOL   C192  192   6.465   4.892   2.938  0.2449  1.1121 -0.3284
    1MOL   O193  193   6.528   4.857   2.818  0.2260 -0.1536 -0.0945
    1MOL   C194  194   6.669   4.863   2.803 -0.7957 -1.0219 -0.0152
    1MOL   O195  195   6.749   4.875   2.897  0.0514  0.6973 -1.0889
    1MOL   C196  196   6.718   4.832   2.663  0.6833  0.3208  0.5028
    1MOL   C197  197   6.866   4.799   2.647 -0.0006  0.3221  0.5301
    1MOL   C198  198   6.955   4.926   2.636 -0.0104  0.3021 -0.1534
    1MOL   C199  199   6.995   4.996   2.763  0.3441 -0.6473  0.4053
    1MOL   C200  200   7.112   5.094   2.747  0.5486  0.6584 -0.6516
    1MOL   C201  201   7.175   5.126   2.883  0.4507  0.8190 -0.4307
    1MOL   C202  202   7.281   5.240   2.865 -0.3225 -0.2820 -0.5061
    1MOL   C203  203   7.321   5.318   2.991  0.6419 -0.3185 -0.8292
    1MOL   C204  204   7.218   5.424   3.030  0.1883 -0.0184  0.3002
    1MOL   O205  205   7.216   5.450   3.147 -0.2464 -0.4073 -0.5390
    1MOL   H206  206   6.089   5.749   2.677  1.1395  1.2086  0.1965
    1MOL   H207  207   6.131   5.575   2.643 -0.2685 -0.0019  0.9097
    1MOL   H208  208   6.094   5.673   2.924  0.2749 -0.8382  0.4906
    1MOL   H209  209   5.966   5.598   2.833  0.4383  0.5518  0.3389
    1MOL   H210  210   6.107   5.385   2.808 -1.4255 -1.1064  0.7633
    1MOL   H211  211   6.225   5.466   2.912  0.0192  2.1388  0.0382
    1MOL   H212  212   6.063   5.492   3.090 -0.1358  0.7296 -2.2716
    1MOL   H213  213   5.948   5.401   2.979 -0.9734 -1.9673  1.0899
    1MOL   H214  214   6.081   5.274   3.176  0.0503  0.2870  0.4254
    1MOL   H215  215   6.218   5.308   3.088 -0.4348 -1.8844  1.6613
    1MOL   H216  216   6.160   5.175   2.886 -2.3069 -0.9906 -2.0722
    1MOL   H217  217   5.996   5.177   2.924  1.7143  1.6307 -2.6343
    1MOL   H218  218   6.046   4.956   2.950  1.5226 -2.3112  0.4831
    1MOL   H219  219   6.036   5.007   3.109  1.5999 -0.9279  1.1646
    1MOL   H220  220   6.232   4.864   3.087 -0.7205  0.2171 -0.0170
    1MOL   H221  221   6.304   5.018   3.119  1.8997 -1.7684  0.3748
    1MOL   H222  222   6.272   4.893   2.844  1.2796 -0.0190 -0.6779
    1MOL   H223  223   6.340   5.057   2.870  1.0316  1.1784  2.9296
    1MOL   H224  224   6.523   4.962   2.997  0.7426 -0.5228  1.1543
    1MOL   H225  225   6.449   4.805   3.002  1.2700  0.4686 -0.9210
    1MOL   H226  226   6.683   4.914   2.600  1.3223 -0.4901 -0.9345
    1MOL   H227  227   6.651   4.750   2.637  0.6145  0.4800  0.1688
    1MOL   H228  228   6.879   4.746   2.552  2.3602  1.1939  0.3197
    1MOL   H229  229   6.897   4.722   2.717  1.0671 -0.3857 -0.6890
    1MOL   H230  230   6.916   4.990   2.558  1.1797 -0.8308 -1.6979
    1MOL   H231  231   7.050   4.885   2.601 -0.1903 -1.0196  0.8401
    1MOL   H232  232   7.023   4.921   2.837 -3.8782 -0.8331  1.9737
    1MOL   H233  233   6.908   5.048   2.802  0.9739  0.0891  0.8380
    1MOL   H234  234   7.184   5.059   2.673  0.6042  1.1519 -0.8279
    1MOL   H235  235   7.063   5.185   2.714 -0.7572  0.3084  0.2879
    1MOL   H236  236   7.095   5.155   2.951  0.3190 -1.4050  0.4076
    1MOL   H237  237   7.219   5.038   2.930 -2.5284  1.6158  4.1266
    1MOL   H238  238   7.245   5.302   2.784  1.0369  0.4286 -0.5836
    1MOL   H239  239   7.368   5.190   2.823  0.2664  0.4713 -0.1882
    1MOL   H240  240   7.318   5.255   3.080 -0.9790  2.7748  1.3697
    1MOL   H241  241   7.414   5.374   2.978 -0.1378  1.2713  0.3045
    1MOL   O242  242   7.128   5.461   2.933  0.6534 -0.0345  0.3965
    1MOL   C243  243   7.029   5.562   2.975  0.1203  0.2158 -0.0526
    1MOL   C244  244   7.030   5.678   2.872 -0.3626 -0.0181 -0.3213
    1MOL   C245  245   7.150   5.768   2.883  0.2304  0.2551 -0.4832
    1MOL   C246  246   7.147   5.886   2.794  0.6274 -0.0916 -0.8153
    1MOL   C247  247   7.198   5.851   2.655 -0.1427 -0.5316  0.0661
    1MOL   C248  248   7.222   5.973   2.559 -0.1223 -0.4123  0.4141
    1MOL   C249  249   7.335   5.961   2.462  0.0920 -0.0589 -0.4809
    1MOL   C250  250   7.303   5.885   2.336 -0.3136 -0.4387 -0.0393
    1MOL   C251  251   7.419   5.858   2.247  0.2511 -0.8070 -0.9596
    1MOL   C252  252   7.377   5.820   2.107 -0.1833  0.3150 -0.2161
    1MOL   O253  253   7.316   5.691   2.119 -0.0876 -0.2801 -0.3304
    1MOL   C254  254   7.263   5.623   2.013 -0.2871 -0.3014 -0.0145
    1MOL   O255  255   7.271   5.659   1.898 -0.4407  0.1011 -0.1514
    1MOL   C256  256   7.204   5.482   2.054 -0.0431 -0.5149 -0.0427
    1MOL   C257  257   7.056   5.480   2.113  0.7372 -0.0696 -0.2540
    1MOL   C258  258   6.943   5.549   2.030  0.1938 -0.1092 -0.6239
    1MOL   C259  259   6.800   5.527   2.095  0.3122  0.3361  0.1877
    1MOL   C260  260   6.701   5.623   2.025 -0.6835  0.4012 -0.0006
    1MOL   C261  261   6.547   5.622   2.070  0.4498 -0.1255  0.6599
    1MOL   C262  262   6.512   5.681   2.205 -0.0595  0.2486 -0.0457
    1MOL   C263  263   6.380   5.643   2.254 -0.2007  0.2515  0.0703
    1MOL   C264  264   6.278   5.751   2.248 -0.0053  0.3509 -0.1199
    1MOL   O265  265   6.192   5.758   2.162  0.3488 -0.3740 -0.3781
    1MOL   H266  266   6.932   5.513   2.984 -0.8979  2.2994  0.6977
    1MOL   H267  267   7.054   5.599   3.075 -1.7413  2.8973 -0.5320
    1MOL   H268  268   7.020   5.647   2.767  0.1527  0.5616 -0.5438
    1MOL   H269  269   6.934   5.730   2.882 -0.1963  0.7058 -2.1186
    1MOL   H270  270   7.129   5.804   2.983  1.8886  0.2800 -0.1319
    1MOL   H271  271   7.248   5.720   2.883 -0.4130 -1.2375 -3.6264
    1MOL   H272  272   7.050   5.934   2.784  0.2746 -0.6453 -0.0148
    1MOL   H273  273   7.217   5.958   2.838 -0.2555 -0.6366  1.5438
    1MOL   H274  274   7.129   5.781   2.607 -0.9103 -0.6379  1.3026
    1MOL   H275  275   7.289   5.793   2.667 -0.3376 -0.8320  0.0965
    1MOL   H276  276   7.251   6.055   2.624  1.0925 -1.5915  1.4059
    1MOL   H277  277   7.130   6.004   2.509 -0.3538  0.9432  1.6562
    1MOL   H278  278   7.425   5.914   2.501 -0.2113 -1.3744 -1.3295
    1MOL   H279  279   7.371   6.058   2.427  1.3632 -0.2220  0.3463
    1MOL   H280  280   7.215   5.928   2.288 -0.3075 -0.2139  0.1492
    1MOL   H281  281   7.273   5.785   2.368  2.0860 -1.4454 -0.8258
    1MOL   H282  282   7.470   5.954   2.241  1.4034 -1.2564  1.1296
    1MOL   H283  283   7.485   5.779   2.282  0.6487  0.3015  0.8436
    1MOL   H284  284   7.309   5.889   2.058 -1.8162 -1.2187 -0.1633
    1MOL   H285  285   7.451   5.821   2.027 -1.1203  0.5860 -1.0899
    1MOL   H286  286   7.277   5.440   2.123 -0.7544 -0.5417  0.6957
    1MOL   H287  287   7.203   5.436   1.955  1.9671  0.6445 -0.6296
    1MOL   H288  288   7.071   5.517   2.214  0.4144 -0.9388  0.1199
    1MOL   H289  289   7.031   5.374   2.120 -1.2336  0.3896 -0.1767
    1MOL   H290  290   6.935   5.510   1.928 -1.5581  0.8945 -0.8930
    1MOL   H291  291   6.969   5.655   2.025 -1.3975  0.2126 -3.5268
    1MOL   H292  292   6.796   5.542   2.203  1.6051 -1.5389  0.5207
    1MOL   H293  293   6.782   5.420   2.094  0.9695  0.2239  0.3211
    1MOL   H294  294   6.746   5.719   2.052  1.7081  0.1555 -2.8809
    1MOL   H295  295   6.710   5.615   1.917 -3.0755  0.0392 -0.1979
    1MOL   H296  296   6.486   5.671   1.994  0.4245  0.3562  0.9865
    1MOL   H297  297   6.521   5.516   2.066 -1.5633  0.3983 -1.3495
    1MOL   H298  298   6.526   5.789   2.203  1.3485  0.0609 -1.9893
    1MOL   H299  299   6.586   5.645   2.277 -0.3954 -2.7382 -1.1559
    1MOL   H300  300   6.351   5.555   2.197 -0.4873 -0.2738  1.0165
    1MOL   H301  301   6.391   5.614   2.359  0.6157  1.2331  0.2660
    1MOL   O302  302   6.301   5.849   2.343 -0.3142  0.7355 -0.2510
    1MOL   C303  303   6.202   5.947   2.342 -0.1185 -0.3799 -0.9641
    1MOL   C304  304   6.187   6.009   2.491  0.4696 -0.6138  0.0434
    1MOL   C305  305   6.314   6.070   2.553  0.3924  0.3492 -0.2872
    1MOL   C306  306   6.309   6.093   2.705  0.7017  0.0766  0.1237
    1MOL   C307  307   6.208   6.209   2.744 -0.3127  0.3199 -0.0229
    1MOL   C308  308   6.183   6.232   2.887 -0.7503 -0.5013  0.0977
    1MOL   C309  309   6.306   6.298   2.958 -0.7236  0.0129  0.5552
    1MOL   C310  310   6.293   6.342   3.108 -0.2330  0.3599 -0.6377
    1MOL   C311  311   6.156   6.393   3.139  0.2085  0.4265 -0.5125
    1MOL   C312  312   6.134   6.427   3.288  0.5023 -0.4247  0.1935
    1MOL   O313  313   6.165   6.324   3.377 -0.1424  0.3335  0.1879
    1MOL   C314  314   6.074   6.246   3.431  0.0958  0.1050  0.0614
    1MOL   O315  315   5.951   6.258   3.417  0.2369  0.1504  0.2065
    1MOL   C316  316   6.141   6.137   3.523  0.0571 -0.2238  0.2034
    1MOL   C317  317   6.056   6.067   3.628  0.0402 -0.0374  0.2086
    1MOL   C318  318   6.104   5.935   3.683 -0.4045 -0.3953 -0.6786
    1MOL   C319  319   5.990   5.848   3.735 -0.9559 -0.5662  0.2929
    1MOL   C320  320   6.033   5.712   3.798  1.0080 -0.1714 -0.0857
    1MOL   C321  321   5.905   5.632   3.813 -0.6704  0.3043 -0.0916
    1MOL   C322  322   5.936   5.488   3.866  0.0837 -0.2235  0.0637
    1MOL   C323  323   5.809   5.405   3.887  0.2865  0.5471  0.3218
    1MOL   C324  324   5.845   5.257   3.914  0.7458 -0.3366 -0.1592
    1MOL   O325  325   5.881   5.210   4.019 -0.4491 -0.2525  1.0717
    1MOL   H326  326   6.229   6.028   2.275 -1.4533  1.8026  1.0615
    1MOL   H327  327   6.104   5.914   2.308  0.7583 -1.1446 -2.8155
    1MOL   H328  328   6.104   6.080   2.492  0.4007 -0.7010  0.8040
    1MOL   H329  329   6.157   5.924   2.552 -1.6811  1.0859  1.4160
    1MOL   H330  330   6.384   5.986   2.548  0.4443  0.2471  1.9332
    1MOL   H331  331   6.359   6.155   2.503 -0.6679  1.7026  1.0117
    1MOL   H332  332   6.279   6.003   2.759  2.6919 -0.1701  0.8377
    1MOL   H333  333   6.407   6.118   2.746  0.8923 -2.4382  1.3311
    1MOL   H334  334   6.113   6.184   2.697 -0.2547 -0.2078  0.1434
    1MOL   H335  335   6.240   6.306   2.706  1.5742 -0.7269 -1.1485
    1MOL   H336  336   6.162   6.135   2.934  2.8441 -0.1374  2.6345
    1MOL   H337  337   6.093   6.292   2.901  0.2917  0.8112  1.1807
    1MOL   H338  338   6.347   6.386   2.909 -2.3707  1.3344  1.5165
    1MOL   H339  339   6.394   6.235   2.947 -2.1723 -2.0198  0.3642
    1MOL   H340  340   6.370   6.415   3.131  0.8690 -0.9556 -0.1528
    1MOL   H341  341   6.307   6.251   3.165 -0.6350  0.4396 -0.4126
    1MOL   H342  342   6.132   6.472   3.068  0.3139 -0.6427 -1.7486
    1MOL   H343  343   6.083   6.313   3.128  2.0126 -1.3327  0.1017
    1MOL   H344  344   6.188   6.518   3.313  0.5968 -0.4175 -0.0375
    1MOL   H345  345   6.034   6.469   3.293  0.6406 -0.1016  0.2715
    1MOL   H346  346   6.219   6.185   3.584 -0.1117  0.9316 -0.4870
    1MOL   H347  347   6.192   6.064   3.461  1.4678  0.3333  0.6680
    1MOL   H348  348   5.962   6.044   3.577 -0.1648 -0.2644  0.6899
    1MOL   H349  349   6.024   6.125   3.714  3.8418  0.0310  1.6647
    1MOL   H350  350   6.168   5.958   3.768 -2.6091  0.9178  0.6586
    1MOL   H351  351   6.161   5.884   3.605  0.7808  0.9230 -0.6926
    1MOL   H352  352   5.937   5.824   3.642 -1.1334  2.3738 -0.4318
    1MOL   H353  353   5.919   5.898   3.800 -1.7914 -1.2732 -0.0704
    1MOL   H354  354   6.105   5.666   3.730  0.0927 -0.2844 -1.0060
    1MOL   H355  355   6.085   5.734   3.891  0.4488 -0.6409  0.3385
    1MOL   H356  356   5.848   5.669   3.899  2.2700 -1.8416  2.9200
    1MOL   H357  357   5.842   5.614   3.726 -2.7489 -1.0565  1.6580
    1MOL   H358  358   5.979   5.499   3.965 -0.0039  0.8175 -0.0089
    1MOL   H359  359   6.012   5.441   3.803 -0.6118 -0.0742 -0.9010
    1MOL   H360  360   5.740   5.432   3.967  0.3541  0.4150  0.4258
    1MOL   H361  361   5.761   5.412   3.790 -0.2190 -1.9831  0.3491
    1MOL   O362  362   5.844   5.186   3.800  0.0742 -0.1107  0.1077
    1MOL   C363  363   5.885   5.051   3.791 -0.2630 -0.5756 -0.2811
    1MOL   C364  364   5.915   5.021   3.645  0.7725  0.3566  0.4854
    1MOL   C365  365   5.785   5.018   3.560  0.0753 -0.0694  0.3706
    1MOL   C366  366   5.809   5.017   3.408  0.1002  0.5393  0.1354
    1MOL   C367  367   5.677   5.036   3.331  0.1147 -0.4163  0.8844
    1MOL   C368  368   5.684   5.033   3.180 -0.0651  0.0940 -0.3639
    1MOL   C369  369   5.555   5.051   3.091  0.2113 -0.7442  0.0113
    1MOL   C370  370   5.590   5.028   2.945  0.0398 -0.2164 -0.3144
    1MOL   C371  371   5.698   5.124   2.881 -0.3763 -0.7843 -0.0767
    1MOL   C372  372   5.687   5.139   2.729 -0.5218  0.1448 -0.1529
    1MOL   O373  373   5.800   5.213   2.694 -0.0958 -0.2941  0.0909
    1MOL   C374  374   5.801   5.269   2.572  0.0902  0.9750 -0.6580
    1MOL   O375  375   5.705   5.275   2.495 -0.2271 -0.5647 -0.0448
    1MOL   C376  376   5.941   5.311   2.521 -0.8701 -0.0842 -0.2704
    1MOL   C377  377   5.946   5.379   2.385  0.2506  0.1029 -0.1686
    1MOL   C378  378   5.885   5.514   2.393  0.2773 -0.6533  0.4828
    1MOL   C379  379   5.902   5.592   2.264 -0.0706 -0.7027 -0.4163
    1MOL   C380  380   5.848   5.734   2.283 -0.3118  0.4582  0.1262
    1MOL   C381  381   5.863   5.813   2.151 -0.3084  0.3488 -0.5406
    1MOL   C382  382   5.788   5.947   2.138 -0.4073 -0.7147  0.4972
    1MOL   C383  383   5.815   6.017   2.007  0.4093  0.0276 -0.7954
    1MOL   C384  384   5.717   5.979   1.896 -0.0157  0.3647 -0.1179
    1MOL   O385  385   5.661   5.864   1.894  0.3180 -0.3254 -0.0878
    1MOL   H386  386   5.976   5.043   3.850 -1.4044 -0.7868  1.4969
    1MOL   H387  387   5.808   4.978   3.817 -0.4190 -0.3268 -0.0480
    1MOL   H388  388   5.982   5.096   3.602  0.4711  1.2187  1.4917
    1MOL   H389  389   5.977   4.933   3.629  1.1362  0.1256  2.8763
    1MOL   H390  390   5.740   4.922   3.583 -0.9270  0.2022 -0.4314
    1MOL   H391  391   5.716   5.095   3.594 -0.8546 -1.9997  2.9897
    1MOL   H392  392   5.884   5.091   3.378 -0.3995  0.3637 -1.5985
    1MOL   H393  393   5.859   4.928   3.371  0.0987  0.8468 -0.6209
    1MOL   H394  394   5.646   5.136   3.362 -0.3987 -0.7660  1.4949
    1MOL   H395  395   5.613   4.962   3.378 -1.0833 -0.4393 -0.7585
    1MOL   H396  396   5.729   4.940   3.144  1.0481  0.3292  0.3780
    1MOL   H397  397   5.759   5.108   3.153  1.8266 -1.1621  1.3131
    1MOL   H398  398   5.515   5.150   3.111  1.5334 -0.7738  3.1724
    1MOL   H399  399   5.471   4.983   3.109 -2.1644  1.5187 -2.1517
    1MOL   H400  400   5.493   5.046   2.900  0.2083  2.5747  0.3453
    1MOL   H401  401   5.635   4.930   2.929  1.6086  0.2353  1.1174
    1MOL   H402  402   5.696   5.228   2.913  2.3955 -0.3315 -1.2013
    1MOL   H403  403   5.792   5.083   2.919 -0.6154 -2.6830 -1.4457
    1MOL   H404  404   5.693   5.042   2.680  0.3026 -0.2295  0.6925
    1MOL   H405  405   5.596   5.184   2.687  0.0051  0.9594 -0.4381
    1MOL   H406  406   6.005   5.223   2.524 -0.8049 -0.0744 -1.0899
    1MOL   H407  407   5.996   5.367   2.596  1.4732 -0.6745 -1.5097
    1MOL   H408  408   5.898   5.324   2.304 -1.0637 -2.1782  2.0946
    1MOL   H409  409   6.048   5.401   2.354  0.1435  1.3444  0.3186
    1MOL   H410  410   5.934   5.570   2.473 -1.9975  0.4903  1.1152
    1MOL   H411  411   5.781   5.508   2.424  0.3418  1.0812  1.0757
    1MOL   H412  412   5.860   5.549   2.173  0.5029  0.0251 -1.0320
    1MOL   H413  413   6.006   5.609   2.239  0.1466  1.2878  1.6312
    1MOL   H414  414   5.742   5.730   2.306 -0.3776  0.7222 -0.1322
    1MOL   H415  415   5.897   5.778   2.370 -2.7658  0.1480  1.7354
    1MOL   H416  416   5.968   5.821   2.123 -0.3674  1.1859 -0.5321
    1MOL   H417  417   5.826   5.743   2.076  2.6187  1.1705 -2.8257
    1MOL   H418  418   5.826   6.008   2.220  2.3757 -0.2117 -1.0925
    1MOL   H419  419   5.681   5.942   2.157 -0.5270 -2.3163 -0.4900
    1MOL   H420  420   5.805   6.124   2.022 -0.1962 -0.1710  0.2289
    1MOL   H421  421   5.911   5.989   1.963 -0.1143 -1.0196 -1.2893
    1MOL   O422  422   5.695   6.085   1.806  0.3536  0.3433  0.5929
    1MOL   C423  423   5.581   6.075   1.716 -0.2641 -0.1292 -0.2311
    1MOL   C424  424   5.453   6.121   1.787  0.2839 -0.5159  0.5720
    1MOL   C425  425   5.327   6.067   1.717 -0.4101  0.9370  0.2895
    1MOL   C426  426   5.206   6.105   1.794  0.4726 -0.3097  1.1376
    1MOL   C427  427   5.077   6.076   1.713 -0.1876 -0.2682  0.2480
    1MOL   C428  428   5.059   5.927   1.687  0.5251  0.1984  0.1987
    1MOL   C429  429   4.915   5.900   1.648  0.5034 -0.0054 -0.2133
    1MOL   C430  430   4.895   5.770   1.567 -0.4617 -1.4031 -0.3516
    1MOL   C431  431   4.876   5.638   1.650  0.1235  0.2230 -0.2041
    1MOL   C432  432   4.850   5.513   1.556 -0.1171 -0.5317 -0.4084
    1MOL   O433  433   4.816   5.391   1.631  0.7659 -1.1626  0.1990
    1MOL   C434  434   4.821   5.272   1.571 -0.1977  0.0488  0.1247
    1MOL   O435  435   4.857   5.250   1.457 -0.2040  0.5888  0.4495
    1MOL   C436  436   4.781   5.154   1.659  0.3658  0.5456 -0.0119
    1MOL   C437  437   4.681   5.054   1.589  0.3503 -0.4887  0.2310
    1MOL   C438  438   4.753   4.936   1.515  0.1028 -0.1926  0.0615
    1MOL   C439  439   4.666   4.841   1.437 -0.4709 -0.1544 -0.2776
    1MOL   C440  440   4.738   4.735   1.357  0.2956  0.0849  0.1005
    1MOL   C441  441   4.645   4.642   1.276 -0.4664  0.7180  0.0323
    1MOL   C442  442   4.718   4.554   1.181  0.4664 -0.6251 -0.7160
    1MOL   C443  443   4.641   4.434   1.124 -0.3839  0.5066  0.1306
    1MOL   C444  444   4.615   4.313   1.211  1.1979 -0.0289  0.3631
    1MOL   O445  445   4.580   4.330   1.328  0.0576 -0.1047  0.8790
    1MOL   H446  446   5.598   6.141   1.631 -0.2257  1.3253  0.8705
    1MOL   H447  447   5.557   5.975   1.682 -0.8497  0.1304 -0.5952
    1MOL   H448  448   5.453   6.063   1.879 -0.1366 -1.9040 -0.2886
    1MOL   H449  449   5.439   6.227   1.807  2.2875 -0.4067  1.6120
    1MOL   H450  450   5.327   6.105   1.615 -0.9037  0.4932  0.1221
    1MOL   H451  451   5.333   5.959   1.703  1.0989  1.0540 -0.0843
    1MOL   H452  452   5.196   6.062   1.893 -0.8360 -1.8008  0.3888
    1MOL   H453  453   5.212   6.213   1.808 -2.6013 -0.0336  0.7783
    1MOL   H454  454   5.086   6.128   1.618 -1.0243  1.0359  0.8596
    1MOL   H455  455   4.988   6.108   1.768 -0.0250 -2.3634  1.7879
    1MOL   H456  456   5.076   5.869   1.777  1.7883  1.4979  0.8181
    1MOL   H457  457   5.135   5.899   1.615 -0.5022 -0.9747 -0.4507
    1MOL   H458  458   4.872   5.982   1.590  1.2254  1.2130  0.9271
    1MOL   H459  459   4.852   5.898   1.738  2.2086  2.1199  1.0842
    1MOL   H460  460   4.964   5.758   1.484 -0.7184 -1.5705 -0.5454
    1MOL   H461  461   4.800   5.786   1.516 -2.3705 -0.6093  3.2723
    1MOL   H462  462   4.963   5.619   1.713 -0.0623 -0.5597 -0.1694
    1MOL   H463  463   4.791   5.648   1.718 -0.2137  1.5563 -0.8218
    1MOL   H464  464   4.769   5.527   1.485  0.3253 -0.3341 -0.8814
    1MOL   H465  465   4.944   5.502   1.503  0.1596 -2.7879  0.5141
    1MOL   H466  466   4.738   5.203   1.747 -0.5081  0.0117 -0.1410
    1MOL   H467  467   4.870   5.104   1.699 -1.0367 -0.9093  1.3879
    1MOL   H468  468   4.626   5.110   1.513 -0.7894 -0.0344  1.3680
    1MOL   H469  469   4.602   5.019   1.656 -2.6767 -0.7631 -3.3062
    1MOL   H470  470   4.821   4.879   1.579 -0.3292 -0.5333  0.2212
    1MOL   H471  471   4.824   4.983   1.447 -0.5170 -0.2934 -0.6637
    1MOL   H472  472   4.613   4.912   1.374  0.1018 -0.1302 -0.7338
    1MOL   H473  473   4.582   4.800   1.494 -0.8638 -0.1547 -0.8596
    1MOL   H474  474   4.811   4.789   1.297 -1.1198  1.0840 -0.7497
    1MOL   H475  475   4.800   4.680   1.428  2.2490 -0.2678 -1.8513
    1MOL   H476  476   4.587   4.569   1.333  0.2112 -2.0268 -2.6710
    1MOL   H477  477   4.569   4.699   1.223 -1.8226 -1.0106  0.0499
    1MOL   H478  478   4.806   4.515   1.232  1.7271  2.2842 -0.5674
    1MOL   H479  479   4.727   4.611   1.089 -0.4663  1.4108  0.4195
    1MOL   H480  480   4.543   4.462   1.087 -1.0549 -2.4715 -0.4928
    1MOL   H481  481   4.702   4.392   1.044  1.2831 -1.8037  2.5030
    1MOL   O482  482   4.627   4.195   1.141  0.1614 -0.2220  0.2469
    1MOL   C483  483   4.576   4.071   1.190 -0.1464  0.2412 -0.0721
    1MOL   C484  484   4.670   3.965   1.136 -0.1816 -0.1702 -0.3485
    1MOL   C485  485   4.647   3.927   0.986 -0.2200  0.2194 -0.2546
    1MOL   C486  486   4.763   3.844   0.931  0.0699  0.2550 -0.4259
    1MOL   C487  487   4.726   3.786   0.793 -0.6022  0.5402 -0.5869
    1MOL   C488  488   4.833   3.682   0.736  0.0236 -0.5824  0.3688
    1MOL   C489  489   4.787   3.640   0.594  0.0818  0.0942 -0.9407
    1MOL   C490  490   4.869   3.519   0.547  0.5217 -0.3087 -0.4781
    1MOL   C491  491   4.827   3.474   0.409  0.4214 -0.1609  0.0499
    1MOL   C492  492   4.901   3.345   0.365  0.0411 -0.5359  0.6786
    1MOL   O493  493   5.033   3.378   0.359  0.0569 -0.2243  0.2666
    1MOL   C494  494   5.120   3.286   0.412 -0.3412  0.1456  0.3214
    1MOL   O495  495   5.093   3.169   0.450  0.0754 -0.1428 -0.9243
    1MOL   C496  496   5.259   3.346   0.425 -0.3092  0.2439  0.2128
    1MOL   C497  497   5.267   3.477   0.501 -0.4663  0.7373  0.0084
    1MOL   C498  498   5.274   3.465   0.652  1.1212  0.6454  0.2937
    1MOL   C499  499   5.267   3.605   0.725 -0.3216  0.4777  0.5906
    1MOL   C500  500   5.204   3.589   0.863  0.5683 -0.0289  0.2167
    1MOL   C501  501   5.207   3.716   0.949  0.5750  0.1777 -0.2848
    1MOL   C502  502   5.114   3.709   1.069  0.4029 -0.0785 -0.0934
    1MOL   C503  503   5.129   3.834   1.154 -0.3867 -0.4706  0.5627
    1MOL   C504  504   5.018   3.857   1.261 -0.0004 -0.3897  0.1709
    1MOL   O505  505   4.927   3.773   1.272  0.2882 -0.2466 -0.2927
    1MOL   H506  506   4.570   4.075   1.299 -0.8223 -1.2648 -0.0455
    1MOL   H507  507   4.479   4.057   1.142 -0.4281  1.4541  0.1329
    1MOL   H508  508   4.776   3.983   1.149  0.2766 -3.5735  1.3195
    1MOL   H509  509   4.660   3.870   1.189  0.5760 -0.9830 -1.6234
    1MOL   H510  510   4.560   3.862   0.973 -0.5863  0.5523  0.4810
    1MOL   H511  511   4.642   4.017   0.925 -4.1690 -1.3174 -2.4161
    1MOL   H512  512   4.859   3.893   0.913  0.2725  0.0364  0.0499
    1MOL   H513  513   4.775   3.766   1.006 -1.3956 -1.2903 -1.7787
    1MOL   H514  514   4.712   3.865   0.720  0.0615  0.3939 -0.8749
    1MOL   H515  515   4.638   3.722   0.801 -1.6650  1.8008 -1.9817
    1MOL   H516  516   4.822   3.587   0.790 -2.2799 -1.8091 -2.1842
    1MOL   H517  517   4.939   3.704   0.745 -0.1200  0.0911  0.4073
    1MOL   H518  518   4.787   3.716   0.516  0.8703  0.3108 -0.7341
    1MOL   H519  519   4.684   3.606   0.599  0.1141  0.2180  1.2608
    1MOL   H520  520   4.838   3.438   0.613  0.4923  0.6450  0.6983
    1MOL   H521  521   4.971   3.552   0.562  0.8535 -1.2516 -0.6638
    1MOL   H522  522   4.723   3.444   0.414  0.8249 -1.6099 -0.2105
    1MOL   H523  523   4.827   3.559   0.340  1.7195 -0.4724 -0.3466
    1MOL   H524  524   4.885   3.274   0.445 -0.2017 -1.2561 -0.0044
    1MOL   H525  525   4.864   3.305   0.271  0.6540  0.5775 -0.0559
    1MOL   H526  526   5.305   3.352   0.327 -0.2339 -2.8950  0.0007
    1MOL   H527  527   5.316   3.270   0.479 -0.7311 -0.9351 -0.9823
    1MOL   H528  528   5.198   3.557   0.476  0.2688  0.9343 -1.4901
    1MOL   H529  529   5.361   3.522   0.467  2.0983 -2.9446  1.8326
    1MOL   H530  530   5.363   3.413   0.687 -0.3055 -1.5086  0.7879
    1MOL   H531  531   5.187   3.405   0.678  1.3143  1.8299  3.9474
    1MOL   H532  532   5.207   3.670   0.661 -2.8591 -1.3040  1.0747
    1MOL   H533  533   5.367   3.648   0.723 -0.6724  1.2895 -0.9634
    1MOL   H534  534   5.101   3.554   0.858  0.8941 -0.8802 -0.7747
    1MOL   H535  535   5.240   3.508   0.927 -1.1418 -1.5429 -0.6617
    1MOL   H536  536   5.312   3.717   0.979  1.0614  2.0586 -1.9099
    1MOL   H537  537   5.189   3.801   0.883 -0.1101 -0.2746 -0.6965
    1MOL   H538  538   5.147   3.623   1.128  0.1248 -1.1759 -1.4977
    1MOL   H539  539   5.012   3.694   1.034  0.8285 -1.6374 -0.7081
    1MOL   H540  540   5.227   3.825   1.202 -0.2687  0.3709  0.4829
    1MOL   H541  541   5.140   3.924   1.094  3.8259 -1.5418 -0.4400
    1MOL   O542  542   5.025   3.977   1.325 -0.8234 -0.8596  0.6843
    1MOL   C543  543   4.936   4.013   1.429  0.2697 -0.9700 -0.1828
    1MOL   C544  544   4.924   4.171   1.427 -0.0064  0.1252  0.0814
    1MOL   C545  545   4.834   4.209   1.550 -0.7211 -0.3446 -0.0021
    1MOL   C546  546   4.823   4.361   1.572 -0.3289 -0.3343 -0.1988
    1MOL   C547  547   4.723   4.399   1.680  0.2004 -0.0470 -0.1565
    1MOL   C548  548   4.721   4.547   1.701  0.7028  0.1750 -0.0233
    1MOL   C549  549   4.621   4.601   1.815 -0.3457 -0.5513 -0.3632
    1MOL   C550  550   4.604   4.758   1.812  0.1597 -0.1657 -0.0413
    1MOL   C551  551   4.517   4.803   1.931 -0.1604  0.0858  0.4030
    1MOL   C552  552   4.474   4.952   1.938 -0.1189 -0.4473  0.2332
    1MOL   O553  553   4.381   4.989   1.836 -0.7157  0.8617  0.2703
    1MOL   C554  554   4.301   5.094   1.857  0.5669 -0.2188 -0.0750
    1MOL   O555  555   4.296   5.159   1.967  0.5681 -0.6707  0.4033
    1MOL   C556  556   4.224   5.138   1.734  0.0652 -0.1779  0.4507
    1MOL   C557  557   4.229   5.291   1.701 -0.1891  0.5501  0.1309
    1MOL   C558  558   4.354   5.325   1.636 -0.3450 -0.5403  0.4829
    1MOL   C559  559   4.358   5.462   1.559 -0.4123  0.6367 -0.2215
    1MOL   C560  560   4.478   5.462   1.463  0.2748 -0.0294  0.5845
    1MOL   C561  561   4.467   5.557   1.343  0.3853  0.1864 -0.3363
    1MOL   C562  562   4.573   5.542   1.243 -0.9765  0.5211  0.6622
    1MOL   C563  563   4.531   5.591   1.103  0.1136  0.5845  0.7435
    1MOL   C564  564   4.629   5.573   0.984 -0.2053  0.2818 -0.1831
    1MOL   O565  565   4.592   5.576   0.871 -0.5547 -0.4922  0.1292
    1MOL   H566  566   4.836   3.970   1.419 -0.9630  1.8328 -0.3503
    1MOL   H567  567   4.994   3.984   1.516  1.0611  3.2182  0.7814
    1MOL   H568  568   5.023   4.215   1.431  0.2183 -0.2384 -1.2267
    1MOL   H569  569   4.878   4.194   1.331 -2.1562 -1.7538  0.5958
    1MOL   H570  570   4.732   4.170   1.538 -0.8544  0.1942 -0.6876
    1MOL   H571  571   4.862   4.153   1.639 -0.1301 -0.4660 -0.2606
    1MOL   H572  572   4.920   4.401   1.603 -0.2390  0.1018 -1.0178
    1MOL   H573  573   4.803   4.411   1.477 -0.1703 -0.7818 -0.4652
    1MOL   H574  574   4.757   4.350   1.771  0.0032  1.8703  0.9892
    1MOL   H575  575   4.625   4.365   1.648  0.2994 -1.9668  1.4196
    1MOL   H576  576   4.690   4.591   1.606  0.2847  0.2750  0.1562
    1MOL   H577  577   4.823   4.579   1.721  0.7836  0.8528 -1.4853
    1MOL   H578  578   4.656   4.568   1.913 -0.8951  3.2237  1.1982
    1MOL   H579  579   4.524   4.557   1.794 -0.8545 -0.4439  1.6623
    1MOL   H580  580   4.569   4.803   1.719 -1.1685 -1.0386  0.0271
    1MOL   H581  581   4.702   4.803   1.826 -0.6402  1.5669  0.0542
    1MOL   H582  582   4.427   4.747   1.957 -1.1913  1.9551  0.9592
    1MOL   H583  583   4.583   4.785   2.016 -0.9017  4.6287  2.0571
    1MOL   H584  584   4.421   4.963   2.032  1.5185 -0.9611  1.2437
    1MOL   H585  585   4.556   5.024   1.949 -1.3370  0.4796  3.9022
    1MOL   H586  586   4.116   5.126   1.743 -0.4600  3.2051 -0.6436
    1MOL   H587  587   4.249   5.077   1.648  1.1210 -0.0421  0.6633
    1MOL   H588  588   4.241   5.347   1.794 -0.6797  1.7180 -0.4946
    1MOL   H589  589   4.134   5.307   1.650 -0.1620 -0.9822 -0.4509
    1MOL   H590  590   4.378   5.247   1.565  1.6093 -1.3586  1.9857
    1MOL   H591  591   4.428   5.328   1.716 -0.2418  0.9337  0.3430
    1MOL   H592  592   4.363   5.548   1.625 -0.7606  0.1715  0.4170
    1MOL   H593  593   4.269   5.463   1.495  0.7430  1.0463 -1.8297
    1MOL   H594  594   4.565   5.482   1.526 -0.2384  0.8260  1.0366
    1MOL   H595  595   4.483   5.357   1.435 -1.0723 -0.7515  2.8363
    1MOL   H596  596   4.368   5.540   1.301  1.1760 -0.0927 -2.1074
    1MOL   H597  597   4.465   5.652   1.397 -1.7230  1.2698 -2.2375
    1MOL   H598  598   4.597   5.436   1.237 -1.4214  0.4699 -0.2875
    1MOL   H599  599   4.670   5.584   1.270 -0.4074 -0.4782  0.2113
    1MOL   H600  600   4.439   5.537   1.083 -0.3437  1.5740  0.1536
    1MOL   H601  601   4.492   5.693   1.109  0.2914  0.5298  2.9217
    1MOL   O602  602   4.752   5.572   1.024 -0.6422 -0.4529  0.0647
    1MOL   C603  603   4.855   5.577   0.929 -0.5908  0.3066 -0.8114
    1MOL   C604  604   4.985   5.585   1.019 -0.4512  0.6233  0.1897
    1MOL   C605  605   4.996   5.465   1.114  0.8273 -0.1681 -0.4831
    1MOL   C606  606   5.129   5.490   1.200  0.2393  0.4290  0.1872
    1MOL   C607  607   5.173   5.365   1.286  0.3395  0.1076  0.0405
    1MOL   C608  608   5.296   5.385   1.374 -0.0662 -0.0955 -0.2922
    1MOL   C609  609   5.261   5.489   1.495  0.2537  0.2364 -0.0563
    1MOL   C610  610   5.369   5.474   1.611 -0.7084 -0.2240  0.5921
    1MOL   C611  611   5.355   5.579   1.721  0.0726 -0.6922  0.8719
    1MOL   C612  612   5.450   5.559   1.834  0.7775  0.6248 -0.2136
    1MOL   O613  613   5.420   5.661   1.923 -0.2750  0.1441 -0.3476
    1MOL   C614  614   5.470   5.659   2.046 -0.3550  0.0638 -0.4413
    1MOL   O615  615   5.546   5.567   2.088 -0.3546  0.3075 -0.4985
    1MOL   C616  616   5.411   5.767   2.136 -0.0692 -0.7675 -0.3779
    1MOL   C617  617   5.279   5.738   2.201 -0.3460  0.2330  0.2431
    1MOL   C618  618   5.164   5.730   2.098  0.6789  0.1105 -1.1675
    1MOL   C619  619   5.052   5.632   2.139 -0.2473 -0.8105 -0.2706
    1MOL   C620  620   5.008   5.639   2.287  1.0708  0.2940  0.5080
    1MOL   C621  621   4.913   5.514   2.326  0.2079  0.0063 -1.3662
    1MOL   C622  622   4.842   5.537   2.461  0.2428 -0.1881  0.7093
    1MOL   C623  623   4.783   5.408   2.510 -0.7118  0.1482  0.6354
    1MOL   C624  624   4.675   5.428   2.622  0.0139  0.0534  0.7625
    1MOL   O625  625   4.700   5.433   2.743 -0.6973 -0.5597 -0.1305
    1MOL   H626  626   4.860   5.493   0.860 -0.5681 -1.5599  1.3885
    1MOL   H627  627   4.841   5.671   0.876 -2.1199  0.7247  0.2980
    1MOL   H628  628   5.078   5.596   0.962  0.8967  0.9902  2.3959
    1MOL   H629  629   4.969   5.681   1.067 -2.5227  0.5989 -0.4370
    1MOL   H630  630   4.904   5.462   1.171  0.6331 -0.4393 -0.8111
    1MOL   H631  631   5.000   5.367   1.067  1.7398 -0.6387  0.5592
    1MOL   H632  632   5.211   5.527   1.138 -2.3749  2.3810 -2.2288
    1MOL   H633  633   5.116   5.578   1.263  1.3497  0.7666 -0.0536
    1MOL   H634  634   5.187   5.285   1.214 -0.9615 -0.0114 -0.1031
    1MOL   H635  635   5.093   5.322   1.346 -0.5042 -0.8367 -1.7152
    1MOL   H636  636   5.372   5.431   1.311  0.6098 -0.5594  0.1761
    1MOL   H637  637   5.328   5.291   1.418 -0.7946 -0.2197 -0.0194
    1MOL   H638  638   5.160   5.481   1.536  0.4750 -0.9307  0.2722
    1MOL   H639  639   5.273   5.591   1.458 -0.4378  0.9557  1.6334
    1MOL   H640  640   5.472   5.479   1.578 -0.3528 -0.9498  1.5701
    1MOL   H641  641   5.353   5.375   1.653  1.2323 -0.3061  1.1663
    1MOL   H642  642   5.378   5.671   1.669  1.1373 -2.3283 -1.6502
    1MOL   H643  643   5.252   5.572   1.757 -0.1720  0.0258  0.3279
    1MOL   H644  644   5.445   5.458   1.876  2.9831 -0.2519 -1.9305
    1MOL   H645  645   5.553   5.568   1.799  0.8506  0.6628  0.0121
    1MOL   H646  646   5.419   5.870   2.101 -0.0902 -0.5225  0.3339
    1MOL   H647  647   5.482   5.771   2.219  0.4036  0.5018 -0.8227
    1MOL   H648  648   5.266   5.804   2.286 -1.5766 -0.2339  0.4359
    1MOL   H649  649   5.283   5.635   2.237  2.7807  0.3917  0.4598
    1MOL   H650  650   5.198   5.688   2.003 -0.1272  1.1458 -1.9264
    1MOL   H651  651   5.134   5.833   2.080  0.1380  0.3114  0.8242
    1MOL   H652  652   5.099   5.534   2.130  1.8336  0.3601 -3.0426
    1MOL   H653  653   4.971   5.639   2.066  0.1750 -0.6464 -0.7306
    1MOL   H654  654   5.089   5.654   2.359  1.8488 -2.2781  0.2307
    1MOL   H655  655   4.954   5.734   2.288  0.3710 -0.0764  3.1625
    1MOL   H656  656   4.841   5.495   2.247 -0.5140  0.2989 -0.7852
    1MOL   H657  657   4.979   5.427   2.336 -3.2881 -2.3822  2.5254
    1MOL   H658  658   4.766   5.615   2.448  1.1687  0.1481 -3.4968
    1MOL   H659  659   4.909   5.571   2.539  0.5348 -0.5708  0.6238
    1MOL   H660  660   4.748   5.349   2.426 -0.2031  0.2813  0.3288
    1MOL   H661  661   4.866   5.352   2.553  0.0498 -0.2284 -1.2926
    1MOL   O662  662   4.558   5.458   2.569  0.9642  0.3375  0.1617
    1MOL   C663  663   4.452   5.496   2.654  0.3341 -0.4137  0.2626
    1MOL   C664  664   4.367   5.614   2.594  0.4519 -0.2350 -0.3331
    1MOL   C665  665   4.445   5.741   2.570  0.6069 -0.5998 -0.4055
    1MOL   C666  666   4.361   5.857   2.523  0.1655 -0.0605 -0.8193
    1MOL   C667  667   4.439   5.978   2.472 -0.5220 -0.1620 -0.0537
    1MOL   C668  668   4.521   6.043   2.583  0.0238  0.2996  0.2337
    1MOL   C669  669   4.625   6.141   2.541 -0.0573  0.1272 -0.1861
    1MOL   C670  670   4.760   6.081   2.484  0.4056  0.2923  0.1501
    1MOL   C671  671   4.854   6.049   2.592 -0.1212 -0.2868 -0.1932
    1MOL   C672  672   4.995   6.024   2.531 -0.6953 -0.2409 -0.1203
    1MOL   O673  673   5.070   5.951   2.629 -0.0374  0.2278 -0.0338
    1MOL   C674  674   5.197   5.918   2.606 -0.6662  0.4020 -0.0932
    1MOL   O675  675   5.264   5.953   2.505 -0.4522 -0.5541  0.6912
    1MOL   C676  676   5.269   5.843   2.718 -0.3126 -0.0325 -1.0105
    1MOL   C677  677   5.268   5.904   2.862 -0.2474 -0.4697  0.0962
    1MOL   C678  678   5.341   6.041   2.874 -0.2268  0.3394 -0.5553
    1MOL   C679  679   5.424   6.054   3.006  0.2822 -0.2244 -0.3787
    1MOL   C680  680   5.326   6.078   3.120 -0.5206  0.7631  0.7108
    1MOL   C681  681   5.382   6.093   3.257 -0.9388 -0.1148  0.2835
    1MOL   C682  682   5.274   6.112   3.371 -0.3168  0.7630  0.2233
    1MOL   C683  683   5.219   6.254   3.385  0.0868  0.7970 -0.0260
    1MOL   C684  684   5.304   6.379   3.420 -0.1467 -0.0788 -0.6495
    1MOL   O685  685   5.344   6.458   3.334  0.0797 -0.3702 -0.4461
    1MOL   H686  686   4.386   5.410   2.655  0.9847 -0.9269  2.8436
    1MOL   H687  687   4.465   5.496   2.762  0.9355  1.7826  0.2217
    1MOL   H688  688   4.319   5.589   2.499 -1.1704  2.5595 -0.2861
    1MOL   H689  689   4.284   5.633   2.662 -0.2640 -0.1231 -1.2321
    1MOL   H690  690   4.489   5.763   2.667 -2.8845 -0.3663  1.2268
    1MOL   H691  691   4.519   5.726   2.491  0.7159 -0.2462 -0.3716
    1MOL   H692  692   4.297   5.813   2.446 -0.4993 -0.0375 -0.2939
    1MOL   H693  693   4.299   5.890   2.606 -0.0051 -0.0615 -0.9451
    1MOL   H694  694   4.373   6.042   2.415  0.2586 -0.2912 -1.1136
    1MOL   H695  695   4.507   5.948   2.393 -0.4733 -1.1341  0.3490
    1MOL   H696  696   4.571   5.964   2.639 -1.4101 -0.3420  0.6416
    1MOL   H697  697   4.462   6.095   2.659  0.2164 -1.6024  1.7455
    1MOL   H698  698   4.654   6.201   2.627  1.3793 -1.6037  0.5885
    1MOL   H699  699   4.580   6.212   2.472 -2.9065 -0.1517  1.3542
    1MOL   H700  700   4.802   6.148   2.410  0.7855  0.6949  0.7270
    1MOL   H701  701   4.744   5.989   2.427 -0.2540  0.7273 -0.3734
    1MOL   H702  702   4.863   6.126   2.668 -1.6188 -0.7149  0.4370
    1MOL   H703  703   4.821   5.956   2.638 -1.2118  0.6440  0.9594
    1MOL   H704  704   4.990   5.951   2.451  0.2220  0.5403 -0.8936
    1MOL   H705  705   5.056   6.107   2.495 -2.0527 -0.0337 -2.0037
    1MOL   H706  706   5.373   5.834   2.686  0.3992  1.7252  0.6702
    1MOL   H707  707   5.234   5.740   2.723  0.0297 -0.1039  0.1453
    1MOL   H708  708   5.324   5.830   2.919  0.0753 -1.3882 -1.3804
    1MOL   H709  709   5.168   5.918   2.903 -0.6231 -2.3203 -0.1582
    1MOL   H710  710   5.292   6.132   2.841 -1.9963 -0.2443  0.3755
    1MOL   H711  711   5.417   6.033   2.796  0.1618  0.3076 -0.1710
    1MOL   H712  712   5.490   6.141   2.994  0.1405 -0.5681 -4.0999
    1MOL   H713  713   5.490   5.972   3.032  0.4352 -0.1891 -0.6574
    1MOL   H714  714   5.274   6.172   3.104 -0.2744  0.4968 -1.9614
    1MOL   H715  715   5.253   5.997   3.128  1.5877 -1.3548 -0.4356
    1MOL   H716  716   5.425   5.998   3.290  2.8964  1.5712  0.4168
    1MOL   H717  717   5.456   6.170   3.274  1.1046 -1.8072 -0.7449
    1MOL   H718  718   5.308   6.092   3.473 -1.2490  1.8498  0.7678
    1MOL   H719  719   5.187   6.046   3.360  0.9571 -0.9678  0.3970
    1MOL   H720  720   5.185   6.277   3.284 -1.8834 -0.9985  0.1910
    1MOL   H721  721   5.133   6.250   3.451 -0.8353 -0.3826 -1.2607
    1MOL   O722  722   5.338   6.375   3.549 -0.1494 -0.2599  0.4357
    1MOL   C723  723   5.424   6.474   3.597  0.6156  0.4722  0.0128
    1MOL   C724  724   5.551   6.408   3.654 -0.1822  0.0887 -0.3365
    1MOL   C725  725   5.655   6.516   3.690  0.3014 -0.4477  0.6244
    1MOL   C726  726   5.786   6.454   3.746  0.5375  0.1400 -0.2646
    1MOL   C727  727   5.906   6.552   3.745 -0.8016  0.3139  0.0798
    1MOL   C728  728   5.958   6.588   3.597 -0.6779 -0.5989  0.2346
    1MOL   C729  729   6.103   6.642   3.597 -0.3862  0.0356 -0.1307
    1MOL   C730  730   6.114   6.771   3.675 -0.0503 -0.3581 -0.2351
    1MOL   C731  731   6.255   6.834   3.679  0.2424 -0.0635  0.3614
    1MOL   C732  732   6.263   6.968   3.745  0.4211  0.7762 -0.3765
    1MOL   O733  733   6.246   6.949   3.887 -0.5537  0.0237 -0.5155
    1MOL   C734  734   6.283   7.046   3.962 -0.8034 -0.5141  0.2239
    1MOL   O735  735   6.329   7.158   3.924  0.3196 -0.2773 -0.1337
    1MOL   C736  736   6.276   7.005   4.109 -0.4717 -0.1769 -0.6447
    1MOL   C737  737   6.306   7.128   4.201 -1.3392  0.1306  0.5335
    1MOL   C738  738   6.273   7.116   4.354  0.0066 -0.4185  0.1434
    1MOL   C739  739   6.131   7.071   4.398  0.6650 -0.5383 -0.7273
    1MOL   C740  740   6.108   7.064   4.551 -0.0999 -0.2198 -0.3079
    1MOL   C741  741   5.963   7.032   4.589  0.3557  0.2891 -0.5132
    1MOL   C742  742   5.931   7.051   4.737 -0.4807 -0.0320 -0.3428
    1MOL   C743  743   5.783   7.023   4.765 -0.5666 -0.5074  0.2882
    1MOL   C744  744   5.768   6.991   4.918  0.3687 -0.9989 -0.7666
    1MOL   O745  745   5.762   7.090   4.993  0.3835 -0.6870  0.0752
    1MOL   H746  746   5.460   6.536   3.515  2.4194  1.1184  1.2734
    1MOL   H747  747   5.367   6.532   3.669 -1.2957  0.1437 -1.1869
    1MOL   H748  748   5.532   6.364   3.752  2.2038 -2.2188 -0.8276
    1MOL   H749  749   5.589   6.326   3.592  0.4797 -1.0116  1.4731
    1MOL   H750  750   5.674   6.565   3.594 -1.8639 -0.5464  0.1277
    1MOL   H751  751   5.613   6.594   3.752 -0.3862 -0.2438 -0.0975
    1MOL   H752  752   5.755   6.426   3.846 -0.4541  0.7363 -0.3942
    1MOL   H753  753   5.816   6.368   3.687  0.3441  1.5926 -2.5727
    1MOL   H754  754   5.989   6.504   3.798 -1.0671  0.6964  0.8445
    1MOL   H755  755   5.878   6.642   3.799 -0.8556  1.0225 -1.1170
    1MOL   H756  756   5.895   6.663   3.549 -1.2653 -0.7243  0.8065
    1MOL   H757  757   5.960   6.506   3.525 -0.2773  0.3587 -0.8665
    1MOL   H758  758   6.138   6.636   3.494 -2.6662  1.2095 -0.9979
    1MOL   H759  759   6.161   6.564   3.647 -1.2461 -1.6592 -1.7158
    1MOL   H760  760   6.078   6.755   3.776  1.4256 -0.6027  0.2513
    1MOL   H761  761   6.046   6.842   3.626 -0.0157 -1.0242 -1.2786
    1MOL   H762  762   6.315   6.749   3.713 -0.8147 -0.5147  1.1060
    1MOL   H763  763   6.275   6.850   3.573  0.5832  1.3786  0.6377
    1MOL   H764  764   6.353   7.021   3.715  1.5820 -0.0283  1.5730
    1MOL   H765  765   6.173   7.017   3.708 -0.1533  0.5882  0.7209
    1MOL   H766  766   6.352   6.927   4.115  0.2818  0.6740  1.6121
    1MOL   H767  767   6.177   6.959   4.116  0.8488 -3.2571 -1.2583
    1MOL   H768  768   6.254   7.219   4.170 -0.2853  0.2251 -1.0369
    1MOL   H769  769   6.411   7.152   4.188 -1.1041 -0.4951  1.2465
    1MOL   H770  770   6.309   7.209   4.398  2.2720 -1.3083  0.2809
    1MOL   H771  771   6.340   7.041   4.397 -2.7592 -0.9174  3.8834
    1MOL   H772  772   6.098   6.975   4.358  0.4488 -1.7702  2.3150
    1MOL   H773  773   6.063   7.143   4.352  0.6354 -0.6666 -0.8843
    1MOL   H774  774   6.185   6.995   4.585 -0.0519 -0.9614 -1.8372
    1MOL   H775  775   6.140   7.162   4.586  2.1023 -1.7920  2.2355
    1MOL   H776  776   5.899   7.092   4.525 -0.5995  0.5206  0.6480
    1MOL   H777  777   5.941   6.930   4.557  3.0245 -0.2460 -0.7269
    1MOL   H778  778   5.945   7.153   4.774  0.4787  0.0110 -0.7996
    1MOL   H779  779   5.993   6.986   4.798 -0.5012 -0.3210 -0.6300
    1MOL   H780  780   5.723   7.105   4.725  1.6281  1.4342  0.8204
    1MOL   H781  781   5.746   6.939   4.707  0.1378 -1.1911  0.8152
    1MOL   O782  782   5.780   6.869   4.950  0.2923  0.5605  0.5812
    1MOL   C783  783   5.747   6.818   5.081 -0.1753  0.3270 -0.3021
    1MOL   C784  784   5.759   6.667   5.084 -0.0712 -0.9420 -0.8760
    1MOL   C785  785   5.781   6.617   5.237  0.1200  0.7570  0.0683
    1MOL   C786  786   5.795   6.465   5.249  0.4272  0.0821 -0.1788
    1MOL   C787  787   5.825   6.409   5.391  0.4724 -0.2964 -0.0147
    1MOL   C788  788   5.714   6.433   5.495  0.1787  0.9294  0.6329
    1MOL   C789  789   5.731   6.362   5.632  0.7125  0.4649 -0.0075
    1MOL   C790  790   5.638   6.421   5.739 -0.5287 -0.1398  0.1804
    1MOL   C791  791   5.487   6.396   5.718 -0.0424 -0.0866  0.7163
    1MOL   C792  792   5.402   6.381   5.852 -0.2158  0.5119  0.3402
    1MOL   O793  793   5.275   6.316   5.829 -0.0941  0.2672 -0.5319
    1MOL   C794  794   5.215   6.274   5.946  0.2958  0.1514  0.5473
    1MOL   O795  795   5.259   6.295   6.058 -0.4098 -0.1410 -0.0372
    1MOL   C796  796   5.097   6.192   5.914  0.3910  0.7773 -0.4989
    1MOL   C797  797   4.991   6.256   5.818 -0.1292  0.1512  0.0489
    1MOL   C798  798   4.935   6.388   5.870  0.2091  0.3431  0.1940
    1MOL   C799  799   4.808   6.419   5.795 -0.0949  0.3407  0.1310
    1MOL   C800  800   4.723   6.524   5.860  0.9665  0.1420  0.3856
    1MOL   C801  801   4.589   6.532   5.781  0.1835  0.0069  0.1956
    1MOL   C802  802   4.475   6.439   5.838 -0.1285  0.3497  0.0060
    1MOL   C803  803   4.335   6.466   5.777 -0.3789  0.1570 -0.4880
    1MOL   C804  804   4.329   6.420   5.626  0.1679 -0.4302  0.2731
    1MOL   O805  805   4.284   6.490   5.530  0.7309 -0.4793 -0.1661
    1MOL   H806  806   5.823   6.858   5.148 -0.8836  0.9949  0.1009
    1MOL   H807  807   5.649   6.855   5.111 -0.5629  0.0185 -1.1633
    1MOL   H808  808   5.671   6.613   5.049 -1.2236  0.6140 -0.4273
    1MOL   H809  809   5.836   6.645   5.009  0.5528 -0.3439 -0.4270
    1MOL   H810  810   5.865   6.677   5.274 -1.3028  2.5104  0.5553
    1MOL   H811  811   5.702   6.661   5.298 -1.1326 -1.4032  0.0288
    1MOL   H812  812   5.699   6.423   5.219  0.2200 -0.3569  1.0764
    1MOL   H813  813   5.879   6.440   5.184  1.7014  1.0766  1.0523
    1MOL   H814  814   5.924   6.432   5.429 -0.3047 -0.9694  2.5610
    1MOL   H815  815   5.826   6.301   5.374  2.5001  0.2032 -3.4614
    1MOL   H816  816   5.617   6.413   5.449  0.9290 -0.9523 -0.1847
    1MOL   H817  817   5.721   6.539   5.519 -1.4941  0.5634  2.8927
    1MOL   H818  818   5.833   6.367   5.669  0.8600 -0.1348 -0.3358
    1MOL   H819  819   5.713   6.256   5.613 -1.3041  0.7085  0.3784
    1MOL   H820  820   5.666   6.523   5.766  2.4362 -0.2317 -2.2925
    1MOL   H821  821   5.656   6.369   5.834  0.3084 -0.7365 -0.2991
    1MOL   H822  822   5.449   6.476   5.656  0.3245 -0.4262  0.0439
    1MOL   H823  823   5.466   6.297   5.677  1.0194 -0.5337  1.2286
    1MOL   H824  824   5.464   6.327   5.924  1.5442  1.3921 -0.4772
    1MOL   H825  825   5.381   6.477   5.899  0.2620  1.4845 -1.4010
    1MOL   H826  826   5.048   6.169   6.008  1.3769  3.0399  0.5968
    1MOL   H827  827   5.130   6.097   5.869 -1.3492  0.9278 -2.1584
    1MOL   H828  828   4.914   6.179   5.810 -1.3714  1.2856  0.9664
    1MOL   H829  829   5.036   6.272   5.720  0.2768  1.8740  0.4970
    1MOL   H830  830   5.005   6.472   5.869 -1.0757  1.4428 -0.1728
    1MOL   H831  831   4.917   6.377   5.977  0.8463  1.9167  0.4892
    1MOL   H832  832   4.750   6.327   5.804 -0.0606  0.3939  0.9954
    1MOL   H833  833   4.826   6.434   5.689  2.1981 -0.8537  0.3321
    1MOL   H834  834   4.708   6.506   5.967  0.5741  1.5291  0.5737
    1MOL   H835  835   4.777   6.617   5.841  2.2705 -0.8569 -0.8923
    1MOL   H836  836   4.553   6.634   5.768  0.2238 -0.2595 -2.1484
    1MOL   H837  837   4.617   6.499   5.681 -1.8030  0.7240 -0.6100
    1MOL   H838  838   4.455   6.459   5.943  1.1317  1.9312 -0.0343
    1MOL   H839  839   4.510   6.337   5.824  0.7050  0.5485  0.5996
    1MOL   H840  840   4.258   6.409   5.828 -0.1231  0.5713  0.3669
    1MOL   H841  841   4.306   6.571   5.780  0.0124  0.2485  3.6256
    1MOL   O842  842   4.377   6.290   5.616  0.2231 -0.1456 -0.1781
    1MOL   C843  843   4.395   6.238   5.482  0.3320 -0.3407 -0.1789
    1MOL   C844  844   4.522   6.277   5.422 -0.4716  0.5262 -0.6923
    1MOL   C845  845   4.645   6.203   5.475  0.2480  0.0067 -0.4074
    1MOL   C846  846   4.780   6.229   5.393 -0.4212 -0.1915 -0.5175
    1MOL   C847  847   4.899   6.145   5.449 -0.2059 -0.5740 -0.1196
    1MOL   C848  848   5.041   6.199   5.410 -0.5046 -0.0054  0.4695
    1MOL   C849  849   5.151   6.099   5.448 -0.0493 -0.3297 -0.1471
    1MOL   C850  850   5.296   6.155   5.415 -0.6047  0.6258 -0.3455
    1MOL   C851  851   5.405   6.042   5.445  0.4231 -0.3124  0.2711
    1MOL   C852  852   5.544   6.078   5.401  1.0960  0.0360  0.0498
    1MOL   O853  853   5.633   5.970   5.427 -0.3060 -0.9879  0.0379
    1MOL   C854  854   5.662   5.947   5.556 -0.3431  0.4870  0.4339
    1MOL   O855  855   5.636   6.014   5.654  0.5781 -0.1022  0.2559
    1MOL   C856  856   5.736   5.815   5.582 -0.0910 -0.8363  0.0973
    1MOL   C857  857   5.864   5.795   5.499 -0.4563 -0.4108  0.3301
    1MOL   C858  858   5.962   5.903   5.539 -0.2084  0.7657 -1.0166
    1MOL   C859  859   5.955   6.033   5.459 -0.5512 -0.5614  0.0727
    1MOL   C860  860   6.027   6.151   5.524 -0.2546  0.2338  0.0707
    1MOL   C861  861   6.180   6.134   5.523 -0.6149  0.6527 -0.1087
    1MOL   C862  862   6.235   6.262   5.582  0.6600  0.2884  0.3726
    1MOL   C863  863   6.390   6.277   5.586 -0.0811 -0.1081  0.3027
    1MOL   C864  864   6.447   6.393   5.662  0.0057  0.1205 -0.1016
    1MOL   O865  865   6.547   6.387   5.737  0.1956 -0.4258  0.2545
    1MOL   H866  866   4.400   6.129   5.482 -1.2079 -0.4186 -2.1081
    1MOL   H867  867   4.307   6.270   5.427 -1.1663 -0.7805  1.9149
    1MOL   H868  868   4.513   6.272   5.314  2.8223 -0.5895 -0.9951
    1MOL   H869  869   4.532   6.385   5.436  0.7273  0.3247  0.1223
    1MOL   H870  870   4.670   6.247   5.572  3.6617  0.2685 -1.3282
    1MOL   H871  871   4.624   6.096   5.480  1.2609 -0.2288 -1.1360
    1MOL   H872  872   4.772   6.209   5.286 -0.9661 -0.7346 -0.3721
    1MOL   H873  873   4.818   6.332   5.399 -2.3426  0.3491  3.3845
    1MOL   H874  874   4.895   6.040   5.422 -1.8528 -0.4727 -0.3269
    1MOL   H875  875   4.899   6.159   5.558  1.5713  0.4218 -0.2306
    1MOL   H876  876   5.061   6.301   5.444  1.7937 -0.0850 -0.5703
    1MOL   H877  877   5.049   6.204   5.301 -1.8154 -1.3063  0.3051
    1MOL   H878  878   5.130   6.005   5.397  0.7091  1.0591 -3.1299
    1MOL   H879  879   5.143   6.072   5.553  3.5802  1.1141  0.5917
    1MOL   H880  880   5.318   6.233   5.488 -1.7927  0.7230 -0.0895
    1MOL   H881  881   5.296   6.195   5.313  1.9590 -0.5868 -0.8651
    1MOL   H882  882   5.400   6.019   5.551  1.4315 -1.1264  0.1443
    1MOL   H883  883   5.367   5.953   5.396  3.2386 -1.3643 -0.1012
    1MOL   H884  884   5.550   6.086   5.293 -1.6550 -0.0551 -0.1517
    1MOL   H885  885   5.581   6.165   5.455 -1.6501  0.6921  0.9685
    1MOL   H886  886   5.668   5.737   5.549 -1.0200 -0.1294  0.3208
    1MOL   H887  887   5.738   5.817   5.691  0.9409 -0.5063  0.0791
    1MOL   H888  888   5.839   5.804   5.394 -0.6656  0.4545  0.4581
    1MOL   H889  889   5.904   5.696   5.523  0.1500 -0.4465 -0.7843
    1MOL   H890  890   6.066   5.875   5.524 -0.3587 -0.6267  0.4008
    1MOL   H891  891   5.955   5.916   5.647 -0.0984  2.7025 -1.2201
    1MOL   H892  892   5.852   6.065   5.445 -0.5543 -0.5281  0.1727
    1MOL   H893  893   5.987   6.025   5.355 -0.2309  0.6463  0.0757
    1MOL   H894  894   6.000   6.240   5.466  2.0847  0.4540 -0.7480
    1MOL   H895  895   5.985   6.168   5.623 -0.7520  0.4165 -0.1690
    1MOL   H896  896   6.206   6.046   5.583 -1.1335 -0.0330 -0.8762
    1MOL   H897  897   6.209   6.121   5.418 -1.0602  0.2745 -0.1853
    1MOL   H898  898   6.189   6.263   5.681 -1.2815  0.8543 -0.5120
    1MOL   H899  899   6.194   6.350   5.534 -1.1692 -0.6017  0.2579
    1MOL   H900  900   6.430   6.179   5.612  3.8022  1.4419  0.4858
    1MOL   H901  901   6.430   6.307   5.489  1.4178 -1.0040  0.6201
    1MOL   O902  902   6.363   6.494   5.637  0.0483  0.0817 -0.0622
    1MOL   C903  903   6.367   6.620   5.706 -0.1185  0.1413 -0.1091
    1MOL   C904  904   6.299   6.718   5.608  0.3225  0.4762 -0.5074
    1MOL   C905  905   6.303   6.858   5.671  0.7101  0.0257 -1.2906
    1MOL   C906  906   6.265   6.964   5.568 -0.5467  0.1930 -0.0220
    1MOL   C907  907   6.269   7.113   5.601 -0.3054  0.2044  0.6035
    1MOL   C908  908   6.250   7.207   5.483 -0.5122 -0.2233  0.5542
    1MOL   C909  909   6.108   7.201   5.422  0.0053  0.2208  0.3522
    1MOL   C910  910   6.104   7.275   5.289  1.0508  0.0489 -1.2854
    1MOL   C911  911   5.974   7.256   5.203  0.3562 -0.1038 -0.4524
    1MOL   C912  912   5.855   7.349   5.236 -0.3433  0.2309 -0.0426
    1MOL   O913  913   5.807   7.324   5.365 -0.0221 -0.1684 -0.5362
    1MOL   C914  914   5.735   7.422   5.427  0.5296 -0.2002 -0.0218
    1MOL   O915  915   5.709   7.530   5.360 -0.7083 -0.2483  0.3870
    1MOL   C916  916   5.694   7.395   5.571  0.1263  0.6767  0.0061
    1MOL   C917  917   5.555   7.428   5.618 -0.0296  0.9870  0.3604
    1MOL   C918  918   5.533   7.575   5.653  0.3047 -0.2277  0.4548
    1MOL   C919  919   5.596   7.611   5.789  0.1812  0.5014  0.3558
    1MOL   C920  920   5.549   7.743   5.845  0.2439 -0.1714 -0.9567
    1MOL   C921  921   5.621   0.022   5.977 -0.6886  0.1534  0.4900
    1MOL   C922  922   5.620   0.178   5.997 -0.2109  0.0129 -0.0520
    1MOL   C923  923   5.479   0.240   6.004  0.8676 -0.9785  0.0954
    1MOL   C924  924   5.383   0.182   6.097 -0.0284 -0.5647 -0.5527
    1MOL   O925  925   5.361   0.224   6.210  0.5429 -0.6028 -0.1246
    1MOL   H926  926   6.308   6.617   5.797  2.5872 -0.8134  1.6540
    1MOL   H927  927   6.464   6.662   5.734 -0.3654  0.1364  0.7579
    1MOL   H928  928   6.352   6.711   5.513 -1.6934 -0.8020 -1.5607
    1MOL   H929  929   6.206   6.666   5.584  1.5957 -2.7882  1.3590
    1MOL   H930  930   6.229   6.869   5.750  1.0241  1.0368 -1.1382
    1MOL   H931  931   6.398   6.883   5.718 -0.2748  1.7780 -0.2034
    1MOL   H932  932   6.329   6.944   5.482 -0.4258 -2.2433  0.5742
    1MOL   H933  933   6.163   6.936   5.543 -0.4794 -0.3729  0.3166
    1MOL   H934  934   6.363   7.126   5.653  0.3368 -2.3365  0.1745
    1MOL   H935  935   6.205   7.143   5.683  0.2836  0.7321  0.8657
    1MOL   H936  936   6.323   7.182   5.406  0.0924 -1.5331  1.5460
    1MOL   H937  937   6.273   7.312   5.501 -1.1276 -0.0267  0.1994
    1MOL   H938  938   6.029   7.238   5.487  0.4493  2.3237 -0.2545
    1MOL   H939  939   6.082   7.098   5.398  2.8096 -0.4417  0.0273
    1MOL   H940  940   6.187   7.251   5.224  1.9547  0.7955 -0.4157
    1MOL   H941  941   6.111   7.381   5.310  0.0306  0.2086 -1.7292
    1MOL   H942  942   5.995   7.259   5.097 -1.6347  0.6713 -0.8534
    1MOL   H943  943   5.927   7.158   5.210  1.2322 -0.4546  0.6774
    1MOL   H944  944   5.880   7.454   5.224 -0.5184  0.4519  1.4740
    1MOL   H945  945   5.770   7.330   5.171 -0.2743 -1.0445  0.2279
    1MOL   H946  946   5.764   7.447   5.637  1.5991  1.1741 -1.9233
    1MOL   H947  947   5.708   7.287   5.566 -0.3468  0.7065 -2.4983
    1MOL   H948  948   5.521   7.357   5.694  3.2497 -2.1746 -1.0287
    1MOL   H949  949   5.483   7.390   5.545 -0.5332 -0.8077  1.7476
    1MOL   H950  950   5.425   7.590   5.660  0.3271 -0.3852  1.1828
    1MOL   H951  951   5.569   7.645   5.578  1.1541  0.1817  1.2393
    1MOL   H952  952   5.704   7.606   5.780  0.0860 -2.7077  0.5499
    1MOL   H953  953   5.556   7.539   5.860 -1.6032 -0.2267 -1.3218
    1MOL   H954  954   5.560   0.068   5.773 -0.7903  2.0842  1.3572
    1MOL   H955  955   5.442   7.736   5.868  0.2065  1.0861 -0.7158
    1MOL   H956  956   5.565   7.736   6.060 -2.7585 -2.0914 -1.9743
    1MOL   H957  957   5.723   7.740   5.981 -0.3872  0.3300 -3.4836
    1MOL   H958  958   5.690   0.223   5.927 -0.1521  0.3815  0.2404
    1MOL   H959  959   5.658   0.194   6.098  0.3052  0.0936 -0.2589
    1MOL   H960  960   5.495   0.345   6.030  0.2569 -0.5335 -1.2401
    1MOL   H961  961   5.428   0.251   5.908 -1.0208 -0.6310  1.1176
    1MOL   O962  962   5.336   0.065   6.044  0.7963 -0.1259 -0.5312
    1MOL   C963  963   5.242   7.742   6.112  0.1219  0.0842 -0.0990
    1MOL   C964  964   5.165   7.658   6.004  0.6217 -0.4459  0.0994
    1MOL   C965  965   5.082   7.743   5.911  0.0046  0.8854  0.2446
    1MOL   C966  966   4.988   7.672   5.822  0.5790 -0.3742 -0.2713
    1MOL   C967  967   5.056   7.602   5.706 -0.5640 -1.1665 -0.5319
    1MOL   C968  968   5.128   7.694   5.608  0.2176 -0.2302  0.0959
    1MOL   C969  969   5.198   7.619   5.490  0.5869 -0.5204 -0.4224
    1MOL   C970  970   5.300   7.699   5.408 -0.8395  0.6929  0.0442
    1MOL   C971  971   5.367   7.622   5.294  0.1555  0.3435  0.6456
    1MOL   C972  972   5.491   7.682   5.241 -0.3006  0.1780  0.3316
    1MOL   O973  973   5.450   0.040   5.153  0.5637 -0.1880 -0.5023
    1MOL   C974  974   5.507   0.161   5.146  0.5270  0.0573 -0.5375
    1MOL   O975  975   5.607   0.197   5.207  1.0077  0.1273 -0.1839
    1MOL   C976  976   5.430   0.244   5.048  0.7222 -0.6359  0.6212
    1MOL   C977  977   5.304   0.304   5.110  0.4043  0.2746 -0.1744
    1MOL   C978  978   5.178   0.209   5.106 -0.0571  0.2903 -0.4374
    1MOL   C979  979   5.049   0.287   5.089 -0.0090 -0.5789 -0.2678
    1MOL   C980  980   4.915   0.211   5.115 -0.7961 -0.6124 -0.6375
    1MOL   C981  981   4.913   0.137   5.248 -0.2165  0.0666  0.6710
    1MOL   C982  982   4.813   0.020   5.243  0.0857 -0.4963 -0.1182
    1MOL   C983  983   4.812   7.688   5.377 -0.0051  0.1288  0.0069
    1MOL   C984  984   4.745   7.741   5.505  0.1535  0.7855  0.3922
    1MOL   O985  985   4.779   0.092   5.557 -0.4091 -0.2560 -0.0346
    1MOL   H986  986   5.291   7.676   6.183  2.4410  1.7006 -0.1464
    1MOL   H987  987   5.161   0.039   6.161  2.0874  3.2984 -0.2273
    1MOL   H988  988   5.231   7.600   5.939 -1.6726 -2.2178 -0.6979
    1MOL   H989  989   5.096   7.589   6.053 -2.7258  1.6084 -1.6034
    1MOL   H990  990   5.031   0.057   5.976  0.3971 -0.5969  2.2248
    1MOL   H991  991   5.154   0.051   5.862  0.7297 -1.4760 -1.9442
    1MOL   H992  992   4.914   7.603   5.861 -0.1490 -0.4207 -1.6971
    1MOL   H993  993   4.920   7.740   5.770  0.5092 -1.7661 -2.0388
    1MOL   H994  994   4.978   7.539   5.662  0.3504 -2.6317 -0.0855
    1MOL   H995  995   5.127   7.533   5.750 -2.0289 -1.1408  1.9829
    1MOL   H996  996   5.214   7.749   5.645 -0.4224  0.4841  0.5322
    1MOL   H997  997   5.065   0.020   5.577  2.1892  0.5088 -2.1111
    1MOL   H998  998   5.124   7.577   5.422 -0.8758  2.5642 -0.8120
    1MOL   H999  999   5.248   7.529   5.525  0.2785 -2.0300 -3.6909
    1MOL     H1 1000   5.378   7.742   5.471  0.5343 -0.1648 -1.0588
    1MOL     H2 1001   5.253   0.031   5.365  1.0824  1.4791 -0.4710
    1MOL     H3 1002   5.392   7.524   5.334  2.1533  0.0820 -1.1992
    1MOL     H4 1003   5.281   7.608   5.227 -0.2987 -0.2071  1.3326
    1MOL     H5 1004   5.561   7.714   5.318  1.9153  0.5192 -1.7681
    1MOL     H6 1005   5.547   7.608   5.185 -1.6397 -2.5454  2.4703
    1MOL     H7 1006   5.409   0.182   4.961 -1.1518  1.0871 -0.1911
    1MOL     H8 1007   5.490   0.328   5.013  0.0890 -1.7583 -3.4472
    1MOL     H9 1008   5.285   0.383   5.038 -0.8269  0.9617  0.8897
    1MOL    H10 1009   5.311   0.342   5.212  1.7678  0.8854 -0.4743
    1MOL    H11 1010   5.183   0.149   5.197  1.6087 -0.0603 -0.7506
    1MOL    H12 1011   5.184   0.136   5.025 -1.6793 -0.5258  0.1369
    1MOL    H13 1012   5.060   0.333   4.991 -0.1844  2.7897  1.2318
    1MOL    H14 1013   5.051   0.365   5.165 -1.5213  3.2125 -3.9220
    1MOL    H15 1014   4.833   0.283   5.107 -1.1282 -0.7336  1.4657
    1MOL    H16 1015   4.909   0.136   5.035  0.9106 -0.7731 -0.6167
    1MOL    H17 1016   5.008   0.090   5.275 -0.3364 -0.9178 -0.5567
    1MOL    H18 1017   4.874   0.205   5.324 -1.6383 -0.0361  0.0574
    1MOL    H19 1018   4.837   7.712   5.158 -1.0061  0.4719 -1.1736
    1MOL    H20 1019   4.717   0.066   5.220  0.7084 -0.7052 -3.4033
    1MOL    H21 1020   4.770   7.593   5.345  0.3897  0.5322 -1.7393
    1MOL    H22 1021   4.909   7.649   5.409  1.1216  1.2678 -1.9377
    1MOL    O23 1022   4.647   7.654   5.541  0.1575  0.8735  0.3861
    1MOL    C24 1023   4.539   7.699   5.634 -0.1842 -0.4679  0.3516
    1MOL    C25 1024   4.403   7.656   5.587  0.0575  0.0182  0.6933
    1MOL    C26 1025   4.373   7.715   5.451  1.3251  0.0358 -0.1348
    1MOL    C27 1026   4.230   7.697   5.393  0.1364  0.0214  0.4548
    1MOL    C28 1027   4.172   0.057   5.314  0.8541  0.0363 -0.2928
    1MOL    C29 1028   4.242   0.069   5.176 -0.4544  0.4912  0.4027
    1MOL    C30 1029   4.182   0.176   5.090  0.0726 -0.1580  0.1097
    1MOL    C31 1030   4.254   0.192   4.952  0.3037 -0.5229 -0.0499
    1MOL    C32 1031   4.178   0.276   4.852  0.2298  0.0450 -0.0523
    1MOL    C33 1032   4.266   0.297   4.727  0.3977  0.3582 -0.4377
    1MOL    O34 1033   4.306   0.172   4.669 -0.2482 -0.3746  0.3124
    1MOL    C35 1034   4.211   0.122   4.595 -0.4239  0.5137  0.2600
    1MOL    O36 1035   4.099   0.169   4.568  0.3326  0.2815 -0.5261
    1MOL    C37 1036   4.249   7.742   4.537 -0.5278  0.4354  0.9739
    1MOL    C38 1037   4.150   7.673   4.437  0.6155 -0.0092  0.0282
    1MOL    C39 1038   4.141   7.731   4.302  0.0141  0.0895 -0.3123
    1MOL    C40 1039   4.040   7.652   4.215  0.8662  0.2372  0.1357
    1MOL    C41 1040   3.992   7.720   4.083 -0.2064 -0.5196 -0.3901
    1MOL    C42 1041   3.879   7.650   4.010 -0.8098  0.5709 -0.1404
    1MOL    C43 1042   3.805   7.739   3.913  0.6595  0.1555  1.0475
    1MOL    C44 1043   3.709   7.660   3.826 -0.4004 -0.5585 -0.5029
    1MOL    C45 1044   3.643   7.747   3.722 -0.0951  0.1317  0.4696
    1MOL    O46 1045   3.529   0.023   3.733 -0.0439  0.2583  0.1881
    1MOL    H47 1046   4.555   7.649   5.729 -1.8048 -1.7896 -0.0517
    1MOL    H48 1047   4.540   0.051   5.637 -0.6509 -0.4472 -0.1277
    1MOL    H49 1048   4.400   7.547   5.587 -1.1221  0.0435 -0.4369
    1MOL    H50 1049   4.331   7.698   5.657 -1.0444 -1.2693  0.3443
    1MOL    H51 1050   4.409   0.062   5.446 -1.3631  1.0520  0.7350
    1MOL    H52 1051   4.443   7.668   5.381  1.1734 -1.3391  0.6201
    1MOL    H53 1052   4.212   7.602   5.342 -0.7589  0.8968 -0.8880
    1MOL    H54 1053   4.172   7.702   5.486  0.3994  0.3457  0.6023
    1MOL    H55 1054   4.173   0.154   5.364 -0.1785  0.0476 -0.2804
    1MOL    H56 1055   4.065   0.042   5.300  0.9848 -1.2920  0.0371
    1MOL    H57 1056   4.247   7.730   5.123  3.3106  1.5682 -1.3122
    1MOL    H58 1057   4.346   0.095   5.190 -0.6949  1.0120  1.2536
    1MOL    H59 1058   4.177   0.276   5.134 -0.7420  0.5983 -1.6646
    1MOL    H60 1059   4.079   0.150   5.066  0.7383 -1.0622 -1.8056
    1MOL    H61 1060   4.269   0.096   4.902  1.0673 -0.5377  0.2091
    1MOL    H62 1061   4.357   0.226   4.959  0.0926  0.4372 -1.4090
    1MOL    H63 1062   4.082   0.232   4.827 -0.7986  0.5688  2.7425
    1MOL    H64 1063   4.147   0.376   4.884  0.2912 -0.2970  1.1140
    1MOL    H65 1064   4.228   0.356   4.644 -0.1752 -3.0610 -2.6813
    1MOL    H66 1065   4.351   0.355   4.763  0.0184  0.4768  0.2827
    1MOL    H67 1066   4.272   7.675   4.620  0.6260 -1.0543 -0.5180
    1MOL    H68 1067   4.345   7.742   4.485 -0.9903  2.9889  0.0592
    1MOL    H69 1068   4.054   7.676   4.489  0.0510  1.0159 -1.0563
    1MOL    H70 1069   4.176   7.568   4.421  1.6468  0.3676 -0.7289
    1MOL    H71 1070   4.241   7.729   4.257  0.5937 -0.6602  0.9634
    1MOL    H72 1071   4.111   0.079   4.303  3.2032  1.0713 -0.3297
    1MOL    H73 1072   3.950   7.626   4.270  2.2536  2.0078  3.3931
    1MOL    H74 1073   4.074   7.552   4.190 -0.8122 -1.2416  3.4453
    1MOL    H75 1074   3.972   0.063   4.123  1.5831 -0.8946  1.5008
    1MOL    H76 1075   4.078   7.740   4.019 -0.0912 -0.5169 -0.2336
    1MOL    H77 1076   3.927   7.572   3.952 -1.0596  0.6323 -0.4359
    1MOL    H78 1077   3.814   7.595   4.078  0.3847 -0.2968  0.3136
    1MOL    H79 1078   3.879   0.022   3.843 -0.6272 -1.0257 -1.0458
    1MOL    H80 1079   3.766   0.070   3.964 -0.8481  0.2446 -0.2357
    1MOL    H81 1080   3.767   7.580   3.778 -0.1848 -1.0659  0.5918
    1MOL    H82 1081   3.641   7.608   3.893  1.8418 -1.3979  1.2074
    1MOL    O83 1082   3.727   0.034   3.625  0.1593  0.1168 -0.0593
    1MOL    C84 1083   3.694   0.145   3.541 -0.0378  0.6694 -0.1099
    1MOL    C85 1084   3.721   0.278   3.608 -0.3540 -0.3984  0.2368
    1MOL    C86 1085   3.879   0.302   3.608 -0.4477 -0.0128 -0.5290
    1MOL    C87 1086   3.919   0.431   3.675  0.2986  0.4351  0.9820
    1MOL    C88 1087   4.068   0.459   3.674  0.1921 -0.1196  0.4634
    1MOL    C89 1088   4.100   0.584   3.756 -0.1941  0.5274  0.6377
    1MOL    C90 1089   4.256   0.603   3.759 -0.0212 -0.2717 -0.2846
    1MOL    C91 1090   4.307   0.731   3.829 -0.3295 -0.3552 -0.1540
    1MOL    C92 1091   4.462   0.750   3.820  0.5859 -0.7776  0.0351
    1MOL    C93 1092   4.509   0.879   3.880 -0.0807  0.2335  0.4225
    1MOL    O94 1093   4.478   0.986   3.788  0.4688 -0.2985 -0.4731
    1MOL    C95 1094   4.563   1.082   3.767  0.7890  0.5770 -0.2120
    1MOL    O96 1095   4.675   1.099   3.809 -0.2149 -0.1759  0.0448
    1MOL    C97 1096   4.509   1.182   3.662  0.3847 -0.6496 -0.3922
    1MOL    C98 1097   4.535   1.330   3.697  0.1405  0.7160 -0.4812
    1MOL    C99 1098   4.460   1.433   3.606  0.2077 -0.4525 -0.2165
    1MOL   C100 1099   4.516   1.568   3.602 -0.6796 -0.2429 -0.4565
    1MOL   C101 1100   4.414   1.661   3.542  0.8624 -0.5088 -0.1174
    1MOL   C102 1101   4.472   1.804   3.529  0.9342  0.4930  0.3168
    1MOL   C103 1102   4.386   1.901   3.439  0.4108  0.5224 -0.0623
    1MOL   C104 1103   4.424   2.049   3.459  0.2226  0.9714  0.4766
    1MOL   C105 1104   4.352   2.115   3.581  0.2656 -0.4907 -0.2655
    1MOL   O106 1105   4.266   2.197   3.575 -0.0135 -0.3325  0.5638
    1MOL   H107 1106   3.727   0.125   3.440 -0.1788 -3.1353  0.5187
    1MOL   H108 1107   3.586   0.131   3.535  0.0902 -0.5636  0.3532
    1MOL   H109 1108   3.665   0.344   3.541  1.0603 -0.7278 -1.2828
    1MOL   H110 1109   3.679   0.282   3.709 -0.3832 -0.9255  0.2446
    1MOL   H111 1110   3.934   0.222   3.657  1.5412  1.9481  0.5332
    1MOL   H112 1111   3.912   0.303   3.504  0.7566  2.0009 -0.1666
    1MOL   H113 1112   3.869   0.513   3.624  1.4872  0.0835 -0.7910
    1MOL   H114 1113   3.891   0.417   3.779 -2.5616  0.4435  0.2601
    1MOL   H115 1114   4.113   0.465   3.575 -1.4438 -1.9361 -0.4216
    1MOL   H116 1115   4.118   0.372   3.715 -0.1828  1.1334  3.7515
    1MOL   H117 1116   4.073   0.581   3.862  1.5296 -1.0394  1.0548
    1MOL   H118 1117   4.057   0.675   3.712  2.1271  0.1782 -2.5138
    1MOL   H119 1118   4.302   0.613   3.661 -1.9749 -0.0308 -1.2026
    1MOL   H120 1119   4.310   0.514   3.791 -0.7831 -0.0823  1.6250
    1MOL   H121 1120   4.275   0.731   3.934 -0.8580  3.2291 -0.2382
    1MOL   H122 1121   4.259   0.816   3.781 -1.2052 -1.8011 -1.8957
    1MOL   H123 1122   4.509   0.671   3.879  1.7561 -0.2945 -0.2276
    1MOL   H124 1123   4.480   0.732   3.714  0.4328 -0.0120 -0.1232
    1MOL   H125 1124   4.470   0.903   3.979 -1.4694  1.6526 -0.4486
    1MOL   H126 1125   4.617   0.872   3.895 -0.1200 -0.6635  0.3175
    1MOL   H127 1126   4.407   1.158   3.633 -0.6411  3.1856 -0.2249
    1MOL   H128 1127   4.576   1.177   3.575 -1.1411 -0.0496 -1.6194
    1MOL   H129 1128   4.643   1.349   3.696  0.0706  1.5135  1.9732
    1MOL   H130 1129   4.501   1.337   3.801  3.5307 -2.0811  0.9757
    1MOL   H131 1130   4.354   1.434   3.629  0.1720  1.7499 -0.2926
    1MOL   H132 1131   4.473   1.402   3.502  2.5510 -1.1763  0.2599
    1MOL   H133 1132   4.615   1.575   3.557 -1.1903  1.3819 -1.3819
    1MOL   H134 1133   4.554   1.613   3.694  1.0447  1.0881 -1.7850
    1MOL   H135 1134   4.387   1.626   3.442  1.1586 -0.0301 -0.3669
    1MOL   H136 1135   4.321   1.669   3.598  0.0891 -0.0074 -1.4656
    1MOL   H137 1136   4.491   1.859   3.621  1.1017  0.6091  0.2130
    1MOL   H138 1137   4.568   1.802   3.477  1.2336 -1.7043  0.9035
    1MOL   H139 1138   4.281   1.879   3.459 -0.3282  1.2981 -2.9639
    1MOL   H140 1139   4.391   1.876   3.333 -1.3163  0.8360 -0.2291
    1MOL   H141 1140   4.532   2.061   3.462  0.3662  0.2548 -1.1240
    1MOL   H142 1141   4.383   2.097   3.370 -1.3098  0.4423  0.8822
    1MOL   O143 1142   4.407   2.070   3.696 -0.4198  0.0373  0.1991
    1MOL   C144 1143   4.343   2.091   3.823 -0.1017  0.2313 -0.4505
    1MOL   C145 1144   4.234   1.979   3.840 -0.6970  0.1411 -0.3423
    1MOL   C146 1145   4.286   1.841   3.877 -0.3982 -0.2579  0.2618
    1MOL   C147 1146   4.185   1.726   3.897 -0.1805 -0.9827  0.1526
    1MOL   C148 1147   4.253   1.591   3.929  0.0790 -0.2715 -0.3659
    1MOL   C149 1148   4.145   1.488   3.951  0.7586  0.1979  0.4786
    1MOL   C150 1149   4.206   1.349   3.925  0.4550 -0.3154  0.4640
    1MOL   C151 1150   4.101   1.240   3.940 -0.2648  0.2767 -0.0848
    1MOL   C152 1151   4.163   1.103   3.926  0.4801 -0.8673  0.0952
    1MOL   C153 1152   4.055   0.992   3.942  0.4394  0.2370  0.3455
    1MOL   O154 1153   3.945   0.997   3.849 -0.2166 -0.3022 -0.2322
    1MOL   C155 1154   3.862   0.894   3.837  0.1947  1.0113 -0.2339
    1MOL   O156 1155   3.844   0.800   3.917 -0.5843 -0.2591  0.0655
    1MOL   C157 1156   3.765   0.906   3.718 -0.4988 -0.0585 -0.5455
    1MOL   C158 1157   3.697   0.774   3.676 -0.1913 -0.5937 -0.0164
    1MOL   C159 1158   3.590   0.726   3.773 -0.8909 -0.6520 -0.1887
    1MOL   C160 1159   3.503   0.613   3.701  0.4821  0.2154 -0.6771
    1MOL   C161 1160   3.389   0.558   3.788  0.2424  0.8670  1.1262
    1MOL   C162 1161   3.319   0.435   3.712 -0.5321 -0.1352 -0.4365
    1MOL   C163 1162   3.182   0.399   3.784  0.2105  0.0887 -0.4590
    1MOL   C164 1163   3.120   0.290   3.698 -0.6907 -0.0573 -0.5103
    1MOL   C165 1164   3.051   0.328   3.567 -0.2934  0.1792  0.1378
    1MOL   O166 1165   3.013   0.445   3.550  0.2479  0.0015  0.5591
    1MOL   H167 1166   4.420   2.078   3.899 -0.5564  0.3912  0.0353
    1MOL   H168 1167   4.306   2.193   3.821  0.4232  0.4200 -0.6538
    1MOL   H169 1168   4.159   2.007   3.914 -0.3457 -0.8756  0.4141
    1MOL   H170 1169   4.176   1.966   3.749 -2.5016 -1.5236  0.9940
    1MOL   H171 1170   4.345   1.807   3.792  0.0873  2.1748 -0.4227
    1MOL   H172 1171   4.349   1.847   3.965 -0.1533 -0.0038  0.0673
    1MOL   H173 1172   4.118   1.770   3.971 -0.0404  1.4956 -1.1333
    1MOL   H174 1173   4.121   1.724   3.809 -0.5835 -0.1950  0.4148
    1MOL   H175 1174   4.310   1.590   4.022  0.5647  1.6854 -0.6165
    1MOL   H176 1175   4.322   1.563   3.850  0.4364 -0.9911  0.1986
    1MOL   H177 1176   4.063   1.504   3.881  0.3868  1.5323  1.2044
    1MOL   H178 1177   4.091   1.497   4.045 -0.2959  1.6033 -0.2500
    1MOL   H179 1178   4.289   1.329   3.992 -0.9806  1.1461  2.7508
    1MOL   H180 1179   4.252   1.341   3.827  0.1484 -0.3485  0.3230
    1MOL   H181 1180   4.022   1.255   3.866  0.0761  1.2367 -0.2609
    1MOL   H182 1181   4.048   1.257   4.034 -0.0910  1.7717 -0.2393
    1MOL   H183 1182   4.227   1.098   3.838  0.7690  1.6268  0.1129
    1MOL   H184 1183   4.237   1.094   4.007  1.4106  3.1269 -0.2029
    1MOL   H185 1184   4.106   0.896   3.941 -2.0095 -1.1189 -0.1792
    1MOL   H186 1185   4.015   1.002   4.043  1.8251  0.9857  0.8234
    1MOL   H187 1186   3.824   0.943   3.634  1.4081 -1.9355 -0.0927
    1MOL   H188 1187   3.691   0.981   3.744 -0.6761 -0.5729  0.4633
    1MOL   H189 1188   3.774   0.698   3.662  0.5968  0.5138 -1.7801
    1MOL   H190 1189   3.638   0.793   3.586  0.8165  2.1425 -0.1484
    1MOL   H191 1190   3.528   0.810   3.804 -4.3258 -2.8716 -0.8554
    1MOL   H192 1191   3.632   0.693   3.868 -0.4155  0.1924 -0.0985
    1MOL   H193 1192   3.575   0.535   3.678  0.4856 -0.5376  1.7447
    1MOL   H194 1193   3.459   0.659   3.612 -0.3010  0.0677 -0.3719
    1MOL   H195 1194   3.422   0.546   3.891 -1.1747  1.0341  1.6001
    1MOL   H196 1195   3.325   0.643   3.809 -5.6279 -2.5561 -1.6554
    1MOL   H197 1196   3.310   0.460   3.606  4.2919  0.3747 -0.8037
    1MOL   H198 1197   3.384   0.347   3.711 -0.3074  0.0352 -1.5481
    1MOL   H199 1198   3.119   0.488   3.783  2.1608  1.5152 -1.3671
    1MOL   H200 1199   3.207   0.367   3.885 -1.2860  2.5627  0.7261
    1MOL   H201 1200   3.207   0.233   3.664 -0.2736 -0.4050  1.0933
    1MOL   H202 1201   3.050   0.228   3.755 -0.8950  1.3456  0.7916
    1MOL   H203 1202   3.034   0.253   3.490 -1.9477 -0.4958  1.1200
    2MOL     O1 1203   0.134   5.240   2.437 -0.6832  0.0960  0.4941
    2MOL     C2 1204   0.122   5.119   2.362  0.3251  0.2752 -1.0042
    2MOL     C3 1205   0.210   5.127   2.238 -0.1031  0.4072 -0.4893
    2MOL     C4 1206   0.215   4.992   2.157  0.0755 -0.6076 -0.5264
    2MOL     C5 1207   0.275   5.007   2.012  0.6966  0.5110  0.1602
    2MOL     C6 1208   0.224   4.894   1.922  0.9047  0.2405  0.6936
    2MOL     C7 1209   0.076   4.907   1.875 -0.3063 -0.2456 -0.2784
    2MOL     C8 1210   0.036   4.795   1.791 -0.4652  0.5684  0.3601
    2MOL     C9 1211   0.092   4.795   1.642 -0.4461  0.6638  0.4215
    2MOL    C10 1212   0.045   4.671   1.570  0.6526  0.1047  0.2895
    2MOL    C11 1213   0.087   4.662   1.416 -0.5321 -0.0991 -0.0662
    2MOL    O12 1214   0.063   4.530   1.371  0.6973 -1.0762  0.3158
    2MOL    C13 1215   0.148   4.432   1.371 -0.5095  0.0874 -0.1583
    2MOL    O14 1216   0.266   4.436   1.402 -0.2670  0.5175  0.3778
    2MOL    C15 1217   0.089   4.302   1.319 -0.1340 -0.3100  0.5256
    2MOL    C16 1218   0.186   4.238   1.217  0.0723  0.4088 -0.3487
    2MOL    C17 1219   0.183   4.322   1.084  0.0208  0.4530 -0.5584
    2MOL    C18 1220   0.276   4.255   0.983  0.0253 -0.3381  0.2316
    2MOL    C19 1221   0.272   4.311   0.838  0.2630  0.1993 -0.0321
    2MOL    C20 1222   0.355   4.221   0.744  0.8482 -0.2387 -0.6350
    2MOL    C21 1223   0.512   4.253   0.746 -0.5999  0.0640  0.2790
    2MOL    C22 1224   0.575   4.175   0.629 -0.2046  0.7099 -0.1525
    2MOL    C23 1225   0.725   4.194   0.612 -0.2366 -0.4054 -0.5633
    2MOL    O24 1226   0.772   4.258   0.515 -0.8615  0.0379 -0.1760
    2MOL    H25 1227   0.136   5.030   2.424 -1.5569 -1.0013 -2.3684
    2MOL    H26 1228   0.018   5.111   2.331  0.3039 -0.5193 -0.7481
    2MOL    H27 1229   0.186   5.209   2.171  3.3020  1.4394 -0.5285
    2MOL    H28 1230   0.314   5.150   2.259 -0.3394 -0.2665  1.5869
    2MOL    H29 1231   0.258   4.918   2.224 -0.3351  1.0129  1.5633
    2MOL    H30 1232   0.108   4.970   2.158 -0.2711  1.0100  0.0313
    2MOL    H31 1233   0.258   5.105   1.969  3.9320  1.1217  0.1838
    2MOL    H32 1234   0.382   5.017   2.030  0.9058  1.3526 -1.4851
    2MOL    H33 1235   0.252   4.801   1.973 -0.6287 -0.0744  0.9955
    2MOL    H34 1236   0.275   4.897   1.826  1.4731 -0.0005  0.9817
    2MOL    H35 1237   0.068   5.006   1.829  1.1943 -1.9778 -4.4984
    2MOL    H36 1238   0.006   4.899   1.958 -0.2119 -0.4564 -0.2178
    2MOL    H37 1239   7.683   4.789   1.794 -0.4393 -1.3461 -1.0476
    2MOL    H38 1240   0.068   4.706   1.845  0.7207 -0.4229 -1.9290
    2MOL    H39 1241   0.200   4.788   1.647 -0.3096  2.2453 -0.0598
    2MOL    H40 1242   0.072   4.882   1.579  0.8400 -0.2928 -1.3360
    2MOL    H41 1243   0.074   4.576   1.615 -0.1363 -0.4079 -0.2723
    2MOL    H42 1244   7.694   4.655   1.566  0.7167  0.0066 -1.9098
    2MOL    H43 1245   0.040   4.740   1.357  1.6403  1.4461  0.1641
    2MOL    H44 1246   0.194   4.686   1.411 -0.4596 -0.5745 -0.9288
    2MOL    H45 1247   7.752   4.332   1.272  0.4856 -1.8856 -1.7582
    2MOL    H46 1248   0.066   4.241   1.407 -2.9367  1.2603  0.9676
    2MOL    H47 1249   0.146   4.141   1.187  0.1267  0.2026  0.2351
    2MOL    H48 1250   0.290   4.223   1.246  0.1257  1.0857 -0.1775
    2MOL    H49 1251   0.208   4.426   1.107  3.6356 -0.6247  0.7045
    2MOL    H50 1252   0.079   4.320   1.051 -0.7590 -1.7567  1.8838
    2MOL    H51 1253   0.255   4.150   0.966  0.3064  0.0645 -2.8830
    2MOL    H52 1254   0.380   4.272   1.011  0.7089 -1.8248 -1.3250
    2MOL    H53 1255   0.168   4.289   0.812 -0.5234  0.3541  2.8476
    2MOL    H54 1256   0.287   4.418   0.826  0.9823  0.2171  0.9782
    2MOL    H55 1257   0.340   4.115   0.767 -2.1065 -0.7551 -4.5413
    2MOL    H56 1258   0.327   4.233   0.640  1.4695  3.1651 -0.4838
    2MOL    H57 1259   0.549   4.212   0.840 -0.2690 -1.2715 -0.4375
    2MOL    H58 1260   0.535   4.358   0.765 -0.1199 -0.0894  0.5589
    2MOL    H59 1261   0.560   4.068   0.640  0.6641  0.8278  2.5802
    2MOL    H60 1262   0.538   4.197   0.529  0.3099 -1.8087 -0.9347
    2MOL    H61 1263   0.051   5.266   2.473 -0.4976 -0.2990  1.2188
    2MOL    O62 1264   0.795   4.139   0.709  1.2593 -0.4443 -0.3517
    2MOL    C63 1265   0.928   4.170   0.725 -0.2725  0.3653 -0.0547
    2MOL    C64 1266   0.936   4.204   0.877 -0.5113 -0.8904  0.1920
    2MOL    C65 1267   1.084   4.215   0.928  0.5305 -0.4963  0.5229
    2MOL    C66 1268   1.092   4.219   1.080 -0.4217 -0.0846 -0.4997
    2MOL    C67 1269   1.231   4.258   1.135  0.8051  0.5541  0.1395
    2MOL    C68 1270   1.225   4.275   1.283  0.0114  0.9768 -0.4221
    2MOL    C69 1271   1.362   4.306   1.352 -0.7418  0.1020  0.0003
    2MOL    C70 1272   1.403   4.457   1.364  0.5535  0.7237  0.0897
    2MOL    C71 1273   1.544   4.481   1.423  0.1687 -0.1522  0.9799
    2MOL    C72 1274   1.577   4.632   1.465  0.1937  0.2209  0.1931
    2MOL    O73 1275   1.500   4.674   1.579 -0.1846 -0.0516  0.2006
    2MOL    C74 1276   1.528   4.795   1.642 -0.4529  0.3084  0.5075
    2MOL    O75 1277   1.610   4.876   1.602 -0.0901  0.9263  0.2744
    2MOL    C76 1278   1.440   4.833   1.767  0.1602  0.0578  0.1863
    2MOL    C77 1279   1.513   4.802   1.900  0.4397 -0.3467  0.1075
    2MOL    C78 1280   1.456   4.857   2.029  0.3297 -0.0147  0.1864
    2MOL    C79 1281   1.333   4.796   2.084  0.3943 -0.7843 -0.5100
    2MOL    C80 1282   1.285   4.860   2.216  0.0655  0.2913 -0.6286
    2MOL    C81 1283   1.211   4.995   2.201 -0.7875  0.4113  0.6571
    2MOL    C82 1284   1.138   5.039   2.326  0.2038  0.3047 -0.3723
    2MOL    C83 1285   1.206   5.020   2.462 -0.2891 -0.3407  0.0014
    2MOL    C84 1286   1.333   5.102   2.473  0.7462  0.1276  0.2397
    2MOL    O85 1287   1.443   5.042   2.484  0.2314  0.0554 -0.1686
    2MOL    H86 1288   0.989   4.083   0.701 -1.0426  0.4363 -2.4006
    2MOL    H87 1289   0.977   4.246   0.664  1.3320 -0.3205  0.3774
    2MOL    H88 1290   0.870   4.289   0.892  0.3095  0.2149 -2.2752
    2MOL    H89 1291   0.891   4.119   0.930 -0.1896 -1.0813  0.1594
    2MOL    H90 1292   1.160   4.145   0.892 -0.5354 -1.0679 -0.6607
    2MOL    H91 1293   1.118   4.304   0.874  0.4353  0.2929  1.7507
    2MOL    H92 1294   1.026   4.292   1.127  1.4664  2.0720 -1.0893
    2MOL    H93 1295   1.065   4.119   1.114  1.4912 -0.3209  0.3789
    2MOL    H94 1296   1.249   4.354   1.085 -2.2232  0.9718 -0.2668
    2MOL    H95 1297   1.303   4.183   1.105 -0.4843 -1.8768  2.9109
    2MOL    H96 1298   1.190   4.186   1.334  0.0915  0.5848 -1.0392
    2MOL    H97 1299   1.151   4.352   1.303 -2.2809 -1.3436  0.3156
    2MOL    H98 1300   1.433   4.238   1.305  1.4355  1.8885  0.6284
    2MOL    H99 1301   1.358   4.268   1.454 -0.7662  2.0456  0.7471
    2MOL   H100 1302   1.325   4.501   1.425  0.1476 -0.1532  0.2080
    2MOL   H101 1303   1.403   4.504   1.266  0.2415 -0.2829 -0.4032
    2MOL   H102 1304   1.556   4.418   1.511  1.9390  0.0285  0.8896
    2MOL   H103 1305   1.615   4.447   1.348 -1.8234 -1.9631 -0.1378
    2MOL   H104 1306   1.682   4.634   1.494  0.7975 -1.1266 -1.7790
    2MOL   H105 1307   1.554   4.694   1.379 -0.4138  1.3631  1.1558
    2MOL   H106 1308   1.344   4.781   1.763 -0.3754  0.9503  1.1536
    2MOL   H107 1309   1.415   4.938   1.751 -3.8345 -1.0112 -1.2604
    2MOL   H108 1310   1.617   4.831   1.895 -0.1577  1.6859 -0.7925
    2MOL   H109 1311   1.522   4.693   1.906  2.7738 -0.2526 -1.1505
    2MOL   H110 1312   1.427   4.961   2.012 -0.5379 -0.2559  0.1417
    2MOL   H111 1313   1.524   4.858   2.114  0.8900 -2.1990 -0.2091
    2MOL   H112 1314   1.363   4.693   2.106  0.7702 -1.6779 -4.7435
    2MOL   H113 1315   1.256   4.784   2.007  0.0982 -1.8301 -0.0587
    2MOL   H114 1316   1.219   4.793   2.271  0.3005  1.3426  0.9948
    2MOL   H115 1317   1.373   4.869   2.280 -0.1475 -1.6010 -0.0428
    2MOL   H116 1318   1.286   5.071   2.180  1.7176 -1.7881  1.4196
    2MOL   H117 1319   1.143   5.001   2.115 -0.5771  1.9135  0.5936
    2MOL   H118 1320   1.049   4.976   2.318  0.7185 -0.4963  0.2161
    2MOL   H119 1321   1.089   5.137   2.322  1.4357  1.1755  3.5573
    2MOL   H120 1322   1.138   5.027   2.547 -0.5917 -2.2440 -0.0574
    2MOL   H121 1323   1.233   4.914   2.466 -2.2160 -0.8239  0.9417
    2MOL   O122 1324   1.308   5.231   2.461 -0.1604 -0.4313 -0.0939
    2MOL   C123 1325   1.419   5.325   2.445 -0.2857  1.0838  0.5353
    2MOL   C124 1326   1.492   5.322   2.305  0.7889 -0.4249  0.1424
    2MOL   C125 1327   1.394   5.368   2.190 -0.2697 -0.2200 -0.2232
    2MOL   C126 1328   1.468   5.408   2.054  0.3272 -0.7549  0.3969
    2MOL   C127 1329   1.527   5.285   1.987 -0.3562 -0.1243 -0.2055
    2MOL   C128 1330   1.600   5.319   1.856  0.3444 -0.4458 -0.3018
    2MOL   C129 1331   1.675   5.196   1.801  0.2199  0.7711 -0.0022
    2MOL   C130 1332   1.794   5.138   1.895 -0.1860  0.0717 -0.0273
    2MOL   C131 1333   1.903   5.054   1.817  0.2253 -0.2529 -0.2177
    2MOL   C132 1334   2.024   5.009   1.904  0.2380 -0.4894 -0.1029
    2MOL   O133 1335   1.976   4.958   2.031  0.5542 -0.0312  0.4437
    2MOL   C134 1336   2.052   4.980   2.136  0.0650 -0.2697  0.8675
    2MOL   O135 1337   2.167   5.022   2.145  0.4348  0.3064 -0.3033
    2MOL   C136 1338   1.965   4.955   2.266 -0.0378 -0.4625  0.1623
    2MOL   C137 1339   1.838   4.871   2.260  0.2286 -0.0362  0.5152
    2MOL   C138 1340   1.854   4.723   2.215  0.6906  0.3653  0.2351
    2MOL   C139 1341   1.923   4.639   2.329  0.4049 -0.2950 -0.5511
    2MOL   C140 1342   1.929   4.491   2.285 -0.6197  0.0105 -0.8101
    2MOL   C141 1343   2.005   4.397   2.385 -0.5542  0.3365 -0.2305
    2MOL   C142 1344   2.042   4.264   2.314  0.0808 -0.1890 -0.4759
    2MOL   C143 1345   2.115   4.158   2.401  0.4262  0.4621 -0.2861
    2MOL   C144 1346   2.236   4.201   2.476  0.6363 -0.1833  0.8166
    2MOL   O145 1347   2.348   4.183   2.429 -0.1876 -0.0476 -0.6876
    2MOL   H146 1348   1.385   5.428   2.456 -2.4813  0.4214  0.3187
    2MOL   H147 1349   1.485   5.318   2.531 -0.3906  0.3265  0.5569
    2MOL   H148 1350   1.585   5.379   2.303  2.4366 -3.0174 -0.1999
    2MOL   H149 1351   1.528   5.220   2.286 -0.8067 -1.4931  2.5338
    2MOL   H150 1352   1.329   5.285   2.163 -1.6352  1.2103 -1.4091
    2MOL   H151 1353   1.332   5.451   2.224 -2.8177 -0.5270 -3.8735
    2MOL   H152 1354   1.393   5.454   1.989  0.4305 -0.5071  0.4509
    2MOL   H153 1355   1.541   5.485   2.079  0.2518 -0.3677 -0.5489
    2MOL   H154 1356   1.438   5.223   1.974 -0.3116 -0.3412  0.5479
    2MOL   H155 1357   1.599   5.234   2.051 -0.1519 -0.4620 -0.6941
    2MOL   H156 1358   1.675   5.392   1.886  1.6325 -2.1443  0.6593
    2MOL   H157 1359   1.533   5.360   1.780  2.2716  0.9367 -1.3091
    2MOL   H158 1360   1.718   5.239   1.711  0.5054 -2.2634 -1.3720
    2MOL   H159 1361   1.603   5.123   1.764  2.4879 -1.6472  0.1973
    2MOL   H160 1362   1.747   5.068   1.964 -1.4078 -0.4803 -1.3877
    2MOL   H161 1363   1.839   5.226   1.941  1.7824  0.7007 -2.9751
    2MOL   H162 1364   1.854   4.965   1.778  0.9991 -0.0370 -1.7028
    2MOL   H163 1365   1.944   5.109   1.732  1.4078 -0.7222  0.0415
    2MOL   H164 1366   2.077   4.931   1.849 -0.8840 -1.9540  0.8505
    2MOL   H165 1367   2.097   5.086   1.926 -0.6460  0.2705  0.1551
    2MOL   H166 1368   1.939   5.040   2.329  0.5530 -2.7130  3.6232
    2MOL   H167 1369   2.033   4.896   2.328  0.7157 -0.4404 -0.6260
    2MOL   H168 1370   1.766   4.914   2.191 -1.9328 -1.1417  2.0295
    2MOL   H169 1371   1.789   4.884   2.357 -0.4432  0.0698  0.1646
    2MOL   H170 1372   1.913   4.711   2.125 -1.0131 -0.7522 -0.7636
    2MOL   H171 1373   1.754   4.681   2.200  1.4142 -1.3340  0.0797
    2MOL   H172 1374   1.870   4.645   2.425  1.6196  1.2432  0.0521
    2MOL   H173 1375   2.022   4.677   2.356  1.2499 -1.9893 -1.2164
    2MOL   H174 1376   1.830   4.450   2.263 -0.8353  0.5001 -0.7610
    2MOL   H175 1377   1.983   4.496   2.191  0.8011  1.6733  0.0549
    2MOL   H176 1378   2.080   4.459   2.433 -0.3872 -0.9469  1.1692
    2MOL   H177 1379   1.948   4.379   2.477  2.0613 -0.1521  1.3274
    2MOL   H178 1380   2.100   4.287   2.225  2.1374 -2.9431  0.0843
    2MOL   H179 1381   1.953   4.213   2.279  0.1641 -0.8432  0.2507
    2MOL   H180 1382   2.044   4.137   2.481  0.5035  0.5713 -0.1883
    2MOL   H181 1383   2.139   4.068   2.344 -1.6786 -0.5684  0.3979
    2MOL   O182 1384   2.207   4.253   2.601  0.9118 -0.1904  0.0622
    2MOL   C183 1385   2.308   4.299   2.677  0.2522 -0.0973 -0.3114
    2MOL   C184 1386   2.274   4.317   2.829 -0.1906 -0.2674  0.4699
    2MOL   C185 1387   2.306   4.199   2.920  0.2070 -0.1046 -0.3198
    2MOL   C186 1388   2.291   4.241   3.064  0.3388 -0.2899 -0.5745
    2MOL   C187 1389   2.372   4.148   3.155 -0.7826 -0.7778  0.0899
    2MOL   C188 1390   2.344   4.201   3.298  0.2183 -0.1110  0.1543
    2MOL   C189 1391   2.414   4.100   3.402 -1.1516  0.8826  0.0109
    2MOL   C190 1392   2.382   4.148   3.541  0.5225  0.1338  0.3493
    2MOL   C191 1393   2.413   4.035   3.639 -0.4306  0.2672 -0.2088
    2MOL   C192 1394   2.565   4.018   3.673  0.3123  0.5852 -0.2656
    2MOL   O193 1395   2.576   3.922   3.771 -0.5483  0.0270 -0.3876
    2MOL   C194 1396   2.610   3.799   3.743  0.2393  0.4288  0.0044
    2MOL   O195 1397   2.609   3.756   3.627 -0.1633  0.4491  0.3045
    2MOL   C196 1398   2.643   3.706   3.863  0.1394 -0.4965  0.6902
    2MOL   C197 1399   2.786   3.740   3.912  0.2867 -0.5583  0.3058
    2MOL   C198 1400   2.830   3.653   4.029  0.2582 -0.0080  0.0272
    2MOL   C199 1401   2.951   3.717   4.086 -0.2746  0.1400  0.2554
    2MOL   C200 1402   2.991   3.646   4.212 -0.1905  0.3758 -0.5899
    2MOL   C201 1403   3.105   3.705   4.296  0.2774  0.5057  0.4872
    2MOL   C202 1404   3.087   3.849   4.346 -0.4098 -0.2418  0.1747
    2MOL   C203 1405   3.212   3.898   4.420  0.4634 -0.0381 -0.1373
    2MOL   C204 1406   3.327   3.932   4.327  0.0605 -0.0956 -0.2311
    2MOL   O205 1407   3.424   3.863   4.329 -0.4765  0.1814 -0.0838
    2MOL   H206 1408   2.396   4.234   2.668 -0.4313 -1.2133  0.8137
    2MOL   H207 1409   2.340   4.392   2.630 -0.0911  0.6489  0.9341
    2MOL   H208 1410   2.326   4.410   2.851 -0.5740 -0.1385  0.8499
    2MOL   H209 1411   2.167   4.332   2.843 -0.4767 -1.5345 -0.2596
    2MOL   H210 1412   2.247   4.116   2.882 -2.4184  1.5652 -0.0330
    2MOL   H211 1413   2.413   4.181   2.914  0.5091  1.7504 -0.9191
    2MOL   H212 1414   2.314   4.346   3.080  0.1273  0.0669 -2.5459
    2MOL   H213 1415   2.186   4.237   3.094  0.0865 -0.2247 -1.4291
    2MOL   H214 1416   2.478   4.153   3.129 -1.3477 -0.7820 -2.2713
    2MOL   H215 1417   2.339   4.045   3.141 -0.9348 -0.8856  1.1587
    2MOL   H216 1418   2.236   4.202   3.314  0.1323 -0.8212 -0.3355
    2MOL   H217 1419   2.389   4.299   3.312 -1.6261  0.5651  1.5349
    2MOL   H218 1420   2.523   4.093   3.394 -1.0380 -0.2344  2.0848
    2MOL   H219 1421   2.376   3.998   3.393  1.0823 -0.2546  2.8036
    2MOL   H220 1422   2.277   4.176   3.550 -0.1302 -2.3652  0.8693
    2MOL   H221 1423   2.441   4.237   3.563  0.6542 -0.1893  1.3455
    2MOL   H222 1424   2.346   4.054   3.723  0.0829  1.1127  0.0179
    2MOL   H223 1425   2.370   3.950   3.587  0.0730  0.2042 -0.5272
    2MOL   H224 1426   2.610   3.993   3.577 -1.7529 -2.7675 -0.4668
    2MOL   H225 1427   2.601   4.113   3.711 -1.5064  0.3222  2.2677
    2MOL   H226 1428   2.644   3.598   3.852 -0.4203 -0.5788  1.3997
    2MOL   H227 1429   2.585   3.728   3.952 -0.2513  0.5570  0.1933
    2MOL   H228 1430   2.795   3.842   3.950 -0.4773 -1.0930  1.9440
    2MOL   H229 1431   2.856   3.729   3.829  0.0775 -1.8159  0.2868
    2MOL   H230 1432   2.861   3.558   3.985 -1.4025 -0.1289 -0.9543
    2MOL   H231 1433   2.753   3.648   4.106  1.0081  0.5225  0.8174
    2MOL   H232 1434   2.923   3.817   4.118  1.0392  0.2326  1.1245
    2MOL   H233 1435   3.026   3.729   4.009  0.0012  0.5985  0.5956
    2MOL   H234 1436   2.908   3.637   4.281 -0.2265  0.9616 -0.5573
    2MOL   H235 1437   3.013   3.542   4.187 -1.0521  0.0452  0.0085
    2MOL   H236 1438   3.109   3.638   4.382 -0.0678  0.2842  0.3300
    2MOL   H237 1439   3.196   3.708   4.237 -0.6123 -0.2179 -0.9316
    2MOL   H238 1440   3.006   3.862   4.418 -0.4518  0.4969 -0.0028
    2MOL   H239 1441   3.070   3.914   4.261 -0.1064 -0.3911 -0.0032
    2MOL   H240 1442   3.189   3.981   4.488  0.0891 -1.5880  1.6759
    2MOL   H241 1443   3.251   3.820   4.485 -0.0544 -0.1863  0.0018
    2MOL   O242 1444   3.302   4.042   4.251 -1.3488  0.0960 -0.3945
    2MOL   C243 1445   3.386   4.069   4.140 -0.6313 -0.1642  0.2004
    2MOL   C244 1446   3.329   4.029   4.005 -1.0142  0.8975  0.7096
    2MOL   C245 1447   3.319   3.871   4.000  0.3882 -0.6229 -0.3930
    2MOL   C246 1448   3.285   3.819   3.857  0.4876 -0.2477 -0.2686
    2MOL   C247 1449   3.412   3.799   3.772 -0.7653  0.5092  0.2855
    2MOL   C248 1450   3.383   3.766   3.628 -0.0795 -0.8761 -0.4829
    2MOL   C249 1451   3.496   3.699   3.552  0.5464 -0.3962  0.3220
    2MOL   C250 1452   3.447   3.645   3.416 -0.5457 -0.4204 -0.1166
    2MOL   C251 1453   3.554   3.584   3.330 -0.1331  0.3684 -0.3324
    2MOL   C252 1454   3.589   3.441   3.372  0.2398  0.3616 -0.8081
    2MOL   O253 1455   3.650   3.426   3.506  0.4364 -0.0056  0.8163
    2MOL   C254 1456   3.611   3.327   3.587 -0.2680 -0.1921 -0.2115
    2MOL   O255 1457   3.534   3.235   3.563  0.0412 -0.2525  0.6494
    2MOL   C256 1458   3.702   3.321   3.712  0.0980  0.5645  0.1562
    2MOL   C257 1459   3.690   3.438   3.810  0.4241 -0.2877 -0.1392
    2MOL   C258 1460   3.787   3.440   3.929  0.9003  0.3570  0.0436
    2MOL   C259 1461   3.743   3.554   4.027 -0.3597  0.0697  0.3688
    2MOL   C260 1462   3.767   3.689   3.955 -0.4768  0.0760 -0.6826
    2MOL   C261 1463   3.753   3.812   4.048  0.2340  0.4062  0.3185
    2MOL   C262 1464   3.794   3.945   3.979 -0.3064  0.3318 -0.6312
    2MOL   C263 1465   3.782   4.058   4.084 -0.3548  0.2200 -0.3108
    2MOL   C264 1466   3.779   4.197   4.028  0.1023  0.2185  0.0801
    2MOL   O265 1467   3.670   4.250   4.012 -0.3383  0.8948 -0.1806
    2MOL   H266 1468   3.404   4.175   4.127 -0.7000 -0.0948  0.6598
    2MOL   H267 1469   3.484   4.024   4.160 -0.4973  0.2335  0.4449
    2MOL   H268 1470   3.232   4.072   3.985 -0.0313  3.8979  2.1231
    2MOL   H269 1471   3.411   4.056   3.939  0.1585 -1.6951  1.0049
    2MOL   H270 1472   3.411   3.831   4.043  1.6101  2.1499 -0.2936
    2MOL   H271 1473   3.237   3.848   4.069  0.3970  0.3934 -0.0307
    2MOL   H272 1474   3.221   3.731   3.869  0.8800 -0.3831  0.8908
    2MOL   H273 1475   3.221   3.884   3.797  1.1586  0.1406 -0.5612
    2MOL   H274 1476   3.466   3.712   3.808  0.2741  1.1691  0.3619
    2MOL   H275 1477   3.467   3.894   3.781 -1.8832  1.3380 -1.3775
    2MOL   H276 1478   3.336   3.847   3.572 -1.1938 -0.0873  1.5581
    2MOL   H277 1479   3.303   3.693   3.622 -2.2197  1.3513  0.1666
    2MOL   H278 1480   3.545   3.622   3.612  2.7657 -0.4682 -1.5138
    2MOL   H279 1481   3.584   3.762   3.536  1.0605 -1.1370  0.2107
    2MOL   H280 1482   3.414   3.727   3.352 -2.5007 -1.3717 -0.3655
    2MOL   H281 1483   3.362   3.579   3.436 -1.3741  1.0106  1.2569
    2MOL   H282 1484   3.511   3.573   3.231  1.2770 -2.0247 -0.7349
    2MOL   H283 1485   3.643   3.647   3.319  1.2693 -1.3913  0.5077
    2MOL   H284 1486   3.501   3.378   3.359  0.1428  0.3432 -0.1029
    2MOL   H285 1487   3.660   3.392   3.305 -0.2024 -0.3514 -0.7629
    2MOL   H286 1488   3.808   3.312   3.691  0.4545  1.0090  1.6599
    2MOL   H287 1489   3.675   3.235   3.774 -0.1823 -0.3432 -1.2244
    2MOL   H288 1490   3.591   3.429   3.854  0.0256 -1.3728 -1.2423
    2MOL   H289 1491   3.697   3.525   3.744 -2.7323  0.4976  0.4846
    2MOL   H290 1492   3.889   3.452   3.891  0.9321  1.9409  0.5795
    2MOL   H291 1493   3.787   3.337   3.964  0.1106  0.2047 -0.4046
    2MOL   H292 1494   3.801   3.542   4.118  2.5692  2.7874 -1.0644
    2MOL   H293 1495   3.638   3.558   4.057  0.0590  1.2601  1.7210
    2MOL   H294 1496   3.868   3.695   3.915 -0.5320  0.0632 -0.8216
    2MOL   H295 1497   3.700   3.698   3.870  0.7031  1.0391 -1.5190
    2MOL   H296 1498   3.654   3.810   4.093  0.2192  0.2655  0.2809
    2MOL   H297 1499   3.827   3.795   4.127  1.4695 -1.1905 -1.1406
    2MOL   H298 1500   3.746   3.970   3.884  0.6506  0.0205 -1.2080
    2MOL   H299 1501   3.899   3.945   3.950 -0.6280 -0.0746 -1.7979
    2MOL   H300 1502   3.701   4.046   4.156 -2.2198  0.0196 -2.3889
    2MOL   H301 1503   3.865   4.050   4.154 -0.6482  1.1529  0.1438
    2MOL   O302 1504   3.896   4.259   4.013  0.5044  0.8030  0.2510
    2MOL   C303 1505   3.909   4.384   3.943 -0.3118  0.0397 -0.1142
    2MOL   C304 1506   3.991   4.366   3.813  0.2249 -0.7984  0.2091
    2MOL   C305 1507   4.138   4.343   3.844  0.4201  0.3133  0.3143
    2MOL   C306 1508   4.230   4.323   3.720  0.0142 -0.1274 -0.4865
    2MOL   C307 1509   4.381   4.354   3.739 -0.1865 -0.3472  0.5736
    2MOL   C308 1510   4.456   4.334   3.596  0.4031 -0.1713 -0.4033
    2MOL   C309 1511   4.572   4.432   3.606  0.0402  0.3096  1.2506
    2MOL   C310 1512   4.682   4.391   3.719  0.2523 -0.3046  0.5440
    2MOL   C311 1513   4.789   4.507   3.749 -0.3177  0.9161 -0.0016
    2MOL   C312 1514   4.896   4.490   3.854 -0.2345  0.8613  0.5065
    2MOL   O313 1515   4.834   4.435   3.972 -0.1730  0.0606 -0.3629
    2MOL   C314 1516   4.773   4.500   4.067 -0.3285  0.5486  0.0185
    2MOL   O315 1517   4.772   4.623   4.072  0.5167 -0.8261 -0.2966
    2MOL   C316 1518   4.694   4.412   4.167  0.4727 -0.1929  0.5793
    2MOL   C317 1519   4.568   4.473   4.227  0.2401  0.0398 -0.2593
    2MOL   C318 1520   4.449   4.482   4.134  0.0133  0.6253  0.0744
    2MOL   C319 1521   4.312   4.511   4.193 -0.1777  0.1463  0.4316
    2MOL   C320 1522   4.290   4.653   4.240 -0.3302  0.2787 -0.7000
    2MOL   C321 1523   4.139   4.680   4.269 -0.4814 -0.3142  0.4595
    2MOL   C322 1524   4.117   4.830   4.316  0.2167  0.2899 -0.5576
    2MOL   C323 1525   3.982   4.851   4.387  0.1282  0.0307 -0.2746
    2MOL   C324 1526   3.934   5.003   4.382  0.5703  0.2621  0.4421
    2MOL   O325 1527   3.842   5.038   4.314 -0.2723  0.4235  0.6770
    2MOL   H326 1528   3.807   4.407   3.914  0.4450  1.9034 -1.3660
    2MOL   H327 1529   3.950   4.457   4.012  0.0295  0.1938 -0.4810
    2MOL   H328 1530   3.959   4.280   3.753 -1.3885 -0.0565 -0.0163
    2MOL   H329 1531   3.992   4.458   3.754 -0.1046 -1.4642 -0.8572
    2MOL   H330 1532   4.179   4.423   3.906  1.7382  0.3504 -0.5746
    2MOL   H331 1533   4.143   4.255   3.908  0.7037  0.2847  0.2540
    2MOL   H332 1534   4.214   4.222   3.682 -0.5664  0.1235 -0.8994
    2MOL   H333 1535   4.193   4.395   3.648 -2.0352 -1.3271 -0.6732
    2MOL   H334 1536   4.429   4.295   3.817 -2.3817 -0.1939  2.0626
    2MOL   H335 1537   4.402   4.457   3.769 -0.7983  0.4505 -1.5990
    2MOL   H336 1538   4.398   4.352   3.506  0.1924 -2.7099 -0.8003
    2MOL   H337 1539   4.476   4.227   3.590 -0.0222 -0.2479 -0.4660
    2MOL   H338 1540   4.536   4.533   3.622 -0.6204  0.0367  1.5083
    2MOL   H339 1541   4.626   4.431   3.512 -0.9581 -1.4386  0.6637
    2MOL   H340 1542   4.738   4.306   3.683  1.7466  1.2384 -0.8274
    2MOL   H341 1543   4.635   4.363   3.814  0.9153 -1.1628  0.6164
    2MOL   H342 1544   4.837   4.528   3.653 -0.3416 -1.0152 -0.4710
    2MOL   H343 1545   4.739   4.601   3.771 -0.1719  0.7206  1.1962
    2MOL   H344 1546   4.972   4.433   3.801 -0.3972  2.1219 -1.1412
    2MOL   H345 1547   4.948   4.584   3.867 -0.4610  0.8413  1.5406
    2MOL   H346 1548   4.766   4.388   4.245 -0.1503  1.3980  1.6683
    2MOL   H347 1549   4.668   4.328   4.104 -1.0947  1.0546 -0.4677
    2MOL   H348 1550   4.587   4.562   4.287  1.1294 -1.5439  1.8822
    2MOL   H349 1551   4.546   4.390   4.295 -1.5940  0.8980  0.2468
    2MOL   H350 1552   4.437   4.384   4.087  0.6935  0.1096  0.9710
    2MOL   H351 1553   4.473   4.548   4.051 -2.9810 -1.4586 -2.5821
    2MOL   H352 1554   4.286   4.436   4.267 -1.2998  0.6428  0.5452
    2MOL   H353 1555   4.241   4.499   4.111 -0.6867 -2.0919  1.1586
    2MOL   H354 1556   4.349   4.673   4.329 -1.4100 -0.2606  0.1435
    2MOL   H355 1557   4.329   4.722   4.165  2.3423 -1.4163 -0.9256
    2MOL   H356 1558   4.074   4.644   4.189  0.4374 -2.7015  0.7678
    2MOL   H357 1559   4.121   4.616   4.355 -0.7745 -0.7979  0.0340
    2MOL   H358 1560   4.121   4.889   4.224 -0.3159  1.9791  0.4916
    2MOL   H359 1561   4.200   4.863   4.379  0.2185  0.6753 -0.7642
    2MOL   H360 1562   3.906   4.783   4.349  0.3074  0.0252 -0.6242
    2MOL   H361 1563   3.990   4.826   4.493 -0.1489  1.7559  0.1825
    2MOL   O362 1564   4.012   5.081   4.466 -0.0077 -0.0267 -0.2438
    2MOL   C363 1565   3.958   5.203   4.511  0.3837 -0.2707 -0.1002
    2MOL   C364 1566   4.079   5.298   4.524 -0.0882 -0.4620  0.0951
    2MOL   C365 1567   4.159   5.328   4.388 -0.2383 -0.0974 -0.4859
    2MOL   C366 1568   4.292   5.400   4.413  0.7889 -0.1790  0.1089
    2MOL   C367 1569   4.405   5.384   4.308 -0.4152  0.8302  0.6027
    2MOL   C368 1570   4.535   5.435   4.358 -0.4880 -0.0552 -0.0727
    2MOL   C369 1571   4.648   5.406   4.255 -0.4498 -0.1535  0.4229
    2MOL   C370 1572   4.790   5.425   4.308 -0.2038  0.3821  0.4185
    2MOL   C371 1573   4.884   5.443   4.193 -0.0021 -0.3991 -0.3636
    2MOL   C372 1574   5.023   5.501   4.239  0.3319 -0.1888  0.2611
    2MOL   O373 1575   5.026   5.641   4.287  0.1733 -0.2924  0.6889
    2MOL   C374 1576   5.055   5.746   4.213  0.3914 -0.1984  0.4886
    2MOL   O375 1577   5.100   5.744   4.102  0.0929  0.1848 -0.1967
    2MOL   C376 1578   5.021   5.880   4.279  1.0091 -0.2471  0.2574
    2MOL   C377 1579   4.873   5.920   4.307  0.2474 -0.4608 -0.3948
    2MOL   C378 1580   4.815   5.862   4.439 -0.1968 -0.0660  0.1552
    2MOL   C379 1581   4.658   5.882   4.459  0.5738  0.6603  0.0937
    2MOL   C380 1582   4.605   5.836   4.598 -0.2125  0.4197 -0.5877
    2MOL   C381 1583   4.456   5.859   4.625  0.0520  0.6144 -0.4354
    2MOL   C382 1584   4.361   5.784   4.534 -0.0529  0.4487 -0.3160
    2MOL   C383 1585   4.216   5.796   4.602 -0.7263 -0.5262  0.3852
    2MOL   C384 1586   4.190   5.712   4.726  0.1220  0.2012  0.4084
    2MOL   O385 1587   4.154   5.760   4.835 -0.1140 -0.1494  0.2716
    2MOL   H386 1588   3.885   5.244   4.442 -1.1777 -1.0041  1.0806
    2MOL   H387 1589   3.915   5.191   4.610 -0.0583  0.8362 -0.1518
    2MOL   H388 1590   4.036   5.395   4.550 -0.7128 -0.3741 -1.2497
    2MOL   H389 1591   4.148   5.265   4.602 -0.8653  0.4829  1.1996
    2MOL   H390 1592   4.192   5.229   4.356  0.1610  0.1038 -0.7016
    2MOL   H391 1593   4.104   5.384   4.312  2.7795  0.1178 -2.6266
    2MOL   H392 1594   4.262   5.503   4.433 -2.8506 -0.9411 -0.9572
    2MOL   H393 1595   4.324   5.364   4.511  1.6183  0.4299  0.0692
    2MOL   H394 1596   4.367   5.417   4.212 -0.7343  0.7159  0.6884
    2MOL   H395 1597   4.413   5.277   4.288 -0.1144  1.3871 -2.5499
    2MOL   H396 1598   4.545   5.386   4.455 -0.9242 -1.0961 -0.5418
    2MOL   H397 1599   4.531   5.538   4.392 -0.1860  0.0646 -0.3982
    2MOL   H398 1600   4.627   5.475   4.174 -0.3453  1.9092  2.0852
    2MOL   H399 1601   4.631   5.301   4.234 -1.0137  0.1023 -0.4239
    2MOL   H400 1602   4.814   5.348   4.381  0.0508 -0.8198 -0.9275
    2MOL   H401 1603   4.798   5.522   4.359  0.0733 -0.2040  1.5054
    2MOL   H402 1604   4.876   5.351   4.134  2.7689 -1.5197  0.9233
    2MOL   H403 1605   4.854   5.521   4.124 -0.1446  0.5480  0.7618
    2MOL   H404 1606   5.067   5.433   4.312  0.6601  0.4345  0.6403
    2MOL   H405 1607   5.076   5.491   4.144 -2.6940  0.2494 -1.5306
    2MOL   H406 1608   5.058   5.941   4.197 -0.8379 -1.0085 -1.1750
    2MOL   H407 1609   5.085   5.903   4.365 -2.1296 -0.1441  2.6332
    2MOL   H408 1610   4.809   5.903   4.220  1.2677  0.3203 -1.3032
    2MOL   H409 1611   4.858   6.028   4.320 -1.1143 -0.4072 -2.2151
    2MOL   H410 1612   4.872   5.894   4.526 -2.8581 -1.1801  2.4111
    2MOL   H411 1613   4.829   5.754   4.438 -0.0589 -0.0649  1.1117
    2MOL   H412 1614   4.608   5.821   4.385  3.0150 -0.2108 -0.8999
    2MOL   H413 1615   4.643   5.989   4.446 -2.2176  0.3996  0.9684
    2MOL   H414 1616   4.630   5.730   4.604 -1.3503  0.2276  1.2505
    2MOL   H415 1617   4.663   5.892   4.672  0.6938 -0.5037 -0.5884
    2MOL   H416 1618   4.442   5.842   4.732 -0.9669  0.0017 -0.6622
    2MOL   H417 1619   4.436   5.963   4.601  0.5043  0.7600 -0.1842
    2MOL   H418 1620   4.387   5.678   4.545 -0.3979  0.4748  0.8052
    2MOL   H419 1621   4.356   5.815   4.430 -0.7825  2.4422  0.3005
    2MOL   H420 1622   4.197   5.900   4.629  1.2126  0.0503 -0.3402
    2MOL   H421 1623   4.142   5.760   4.531 -0.4391  2.8801 -1.7619
    2MOL   O422 1624   4.221   5.585   4.700  0.0800  0.0747 -0.8196
    2MOL   C423 1625   4.231   5.496   4.811 -0.3995  0.0070 -0.7221
    2MOL   C424 1626   4.379   5.492   4.864 -0.0227  0.4695 -1.0319
    2MOL   C425 1627   4.479   5.447   4.756 -0.5284  0.4431  0.1925
    2MOL   C426 1628   4.622   5.445   4.811 -0.7389  0.0909 -0.0305
    2MOL   C427 1629   4.710   5.378   4.703  0.8676  0.7116 -0.0912
    2MOL   C428 1630   4.859   5.373   4.725  0.1785 -0.2170 -0.7810
    2MOL   C429 1631   4.918   5.505   4.761  1.1169 -0.3456 -0.3597
    2MOL   C430 1632   5.075   5.507   4.755  0.3740 -0.9318  0.0971
    2MOL   C431 1633   5.139   5.542   4.625  0.0379 -0.0085  0.0370
    2MOL   C432 1634   5.291   5.546   4.617  0.4074 -0.5969  0.3806
    2MOL   O433 1635   5.346   5.607   4.497 -0.0264 -0.1386  0.4404
    2MOL   C434 1636   5.341   5.741   4.494 -0.1745 -0.1449  0.7878
    2MOL   O435 1637   5.282   5.811   4.580  0.7034  0.0797 -0.3464
    2MOL   C436 1638   5.404   5.796   4.371 -0.4717  0.1416  0.1941
    2MOL   C437 1639   5.409   5.940   4.355 -0.3476  0.1775  0.0532
    2MOL   C438 1640   5.498   6.026   4.461 -0.0985  0.2027  0.4108
    2MOL   C439 1641   5.653   5.994   4.466  0.0573  0.1597  0.0360
    2MOL   C440 1642   5.740   6.096   4.532 -0.2908 -0.6219  0.1132
    2MOL   C441 1643   5.890   6.077   4.492  0.2132 -0.2156 -0.2159
    2MOL   C442 1644   5.987   6.167   4.556  0.4710  0.2616 -0.1304
    2MOL   C443 1645   6.004   6.146   4.710  0.3008 -0.5101  0.7070
    2MOL   C444 1646   6.126   6.224   4.768  0.1911  0.3056  0.7767
    2MOL   O445 1647   6.191   6.319   4.713 -0.1304  0.3250 -0.0784
    2MOL   H446 1648   4.155   5.513   4.887 -1.3396 -0.8197 -1.4633
    2MOL   H447 1649   4.189   5.399   4.784 -1.4010  0.5902 -1.2709
    2MOL   H448 1650   4.404   5.593   4.894  1.5479 -1.2686  4.0632
    2MOL   H449 1651   4.397   5.427   4.950  1.6387  1.2097 -0.8203
    2MOL   H450 1652   4.455   5.347   4.722  0.8255  0.1321  0.1320
    2MOL   H451 1653   4.471   5.506   4.665  0.1812  0.2573  0.0081
    2MOL   H452 1654   4.657   5.547   4.825  1.6348 -0.5762 -0.9499
    2MOL   H453 1655   4.626   5.400   4.910  1.9849  2.4436  0.9879
    2MOL   H454 1656   4.697   5.425   4.605  1.7088  0.4654 -0.3252
    2MOL   H455 1657   4.673   5.278   4.684 -1.1318  1.2534  0.8003
    2MOL   H456 1658   4.905   5.311   4.648 -0.2419 -1.2046 -0.2489
    2MOL   H457 1659   4.875   5.297   4.802  0.7773  0.6843 -0.0062
    2MOL   H458 1660   4.882   5.524   4.862  1.3063 -1.5934 -0.0461
    2MOL   H459 1661   4.887   5.588   4.699  1.0697  0.7436  1.0885
    2MOL   H460 1662   5.113   5.416   4.801  0.7703  0.5370  2.7650
    2MOL   H461 1663   5.112   5.574   4.833  1.1179 -0.3827 -0.7234
    2MOL   H462 1664   5.112   5.466   4.551 -0.6162  0.9952 -0.7705
    2MOL   H463 1665   5.101   5.637   4.588  0.7078 -0.4473 -1.8659
    2MOL   H464 1666   5.329   5.592   4.708 -1.6027  2.7452 -0.3584
    2MOL   H465 1667   5.326   5.444   4.629 -0.4619 -0.9637 -0.0849
    2MOL   H466 1668   5.344   5.760   4.287 -1.1903 -1.0472  1.1957
    2MOL   H467 1669   5.504   5.754   4.370 -0.1264  0.9639 -0.1266
    2MOL   H468 1670   5.307   5.980   4.361 -0.0866  0.6881  1.2576
    2MOL   H469 1671   5.445   5.956   4.254  1.6901 -0.6411  0.6194
    2MOL   H470 1672   5.450   6.018   4.559 -2.4822 -1.5198 -0.8607
    2MOL   H471 1673   5.486   6.134   4.446 -0.8408 -0.0902 -1.1397
    2MOL   H472 1674   5.684   5.970   4.364  0.5513 -0.6871  0.3832
    2MOL   H473 1675   5.659   5.899   4.520 -1.7413  0.0063  0.0041
    2MOL   H474 1676   5.706   6.198   4.517 -1.6786 -1.0972 -0.0321
    2MOL   H475 1677   5.724   6.079   4.639  0.0470  0.8013  0.4040
    2MOL   H476 1678   5.912   5.971   4.500  0.6301 -0.1645 -0.6761
    2MOL   H477 1679   5.901   6.103   4.386 -2.3151  0.5703 -0.3306
    2MOL   H478 1680   5.951   6.266   4.530  0.3386 -0.5594 -3.2387
    2MOL   H479 1681   6.083   6.156   4.506 -0.3940 -1.4885 -1.4559
    2MOL   H480 1682   5.905   6.170   4.749 -0.2103 -1.5012  0.0659
    2MOL   H481 1683   6.017   6.038   4.722  1.0571 -0.4839  0.1417
    2MOL   O482 1684   6.160   6.167   4.885 -0.4373  0.4226 -0.5319
    2MOL   C483 1685   6.286   6.185   4.937  0.3604 -0.7839  0.7592
    2MOL   C484 1686   6.269   6.262   5.066 -0.6784 -0.2077  0.2568
    2MOL   C485 1687   6.211   6.404   5.038 -0.4764  0.9067  0.3220
    2MOL   C486 1688   6.261   6.512   5.126 -0.0074  0.0632 -0.2528
    2MOL   C487 1689   6.242   6.644   5.074  0.3805  0.1305  0.4799
    2MOL   C488 1690   6.291   6.759   5.164 -0.3622 -0.7703 -0.1655
    2MOL   C489 1691   6.221   6.894   5.143  0.5650  0.1938  0.3115
    2MOL   C490 1692   6.226   6.953   5.002 -0.5592  0.5277  0.5083
    2MOL   C491 1693   6.357   7.017   4.986 -0.0567 -0.2451 -0.3079
    2MOL   C492 1694   6.369   7.117   4.860 -0.3506  0.6404 -0.3904
    2MOL   O493 1695   6.506   7.159   4.859 -0.6020  0.0502  0.6976
    2MOL   C494 1696   6.539   7.250   4.762 -0.6408 -0.1818  0.3508
    2MOL   O495 1697   6.462   7.314   4.698 -0.0698 -0.0673 -0.0817
    2MOL   C496 1698   6.689   7.284   4.747 -0.4542 -0.6964 -0.4166
    2MOL   C497 1699   6.719   7.354   4.605 -0.2794  0.2446 -0.5663
    2MOL   C498 1700   6.724   7.260   4.487  0.1535  0.1938  0.2865
    2MOL   C499 1701   6.696   7.328   4.354  0.2992  0.2012 -0.2261
    2MOL   C500 1702   6.721   7.235   4.241  0.4901  0.1809  0.0822
    2MOL   C501 1703   6.666   7.279   4.105  0.2620 -0.4765 -0.2431
    2MOL   C502 1704   6.667   7.163   4.020 -0.4305  0.1989 -0.3727
    2MOL   C503 1705   6.651   7.193   3.873  0.4968 -0.0064  0.2180
    2MOL   C504 1706   6.663   7.078   3.772 -0.9378  0.3352 -0.0412
    2MOL   O505 1707   6.652   6.956   3.797 -0.2833  0.4550  0.1125
    2MOL   H506 1708   6.342   6.094   4.956  2.7669  0.8960  2.1185
    2MOL   H507 1709   6.352   6.243   4.873  0.5004 -1.0656  0.6484
    2MOL   H508 1710   6.199   6.198   5.121 -0.1476 -2.4079 -1.5313
    2MOL   H509 1711   6.363   6.254   5.121 -0.1257 -0.0672 -0.6623
    2MOL   H510 1712   6.254   6.431   4.942  4.6803 -0.5120  2.1126
    2MOL   H511 1713   6.102   6.408   5.024 -0.3266 -0.9584 -1.7659
    2MOL   H512 1714   6.211   6.497   5.221 -0.3380 -2.4651 -0.7785
    2MOL   H513 1715   6.368   6.497   5.144 -0.2797 -0.0120  1.3567
    2MOL   H514 1716   6.143   6.660   5.032  0.9875 -0.4925 -1.2595
    2MOL   H515 1717   6.298   6.655   4.981 -0.2901  0.7625  0.1418
    2MOL   H516 1718   6.398   6.779   5.161 -0.4136  0.2249  3.0392
    2MOL   H517 1719   6.272   6.729   5.267 -0.9593  2.2311  0.6244
    2MOL   H518 1720   6.256   6.964   5.219  3.4332 -0.9737  0.1108
    2MOL   H519 1721   6.117   6.896   5.178  0.8584 -1.3726  1.3223
    2MOL   H520 1722   6.160   7.040   5.001  3.2672  3.5552 -2.4294
    2MOL   H521 1723   6.200   6.894   4.914  1.8762 -2.8116  1.9121
    2MOL   H522 1724   6.383   7.083   5.069 -0.5949  1.1318 -1.2303
    2MOL   H523 1725   6.437   6.943   4.983 -0.7331 -1.0279  0.5592
    2MOL   H524 1726   6.356   7.059   4.769 -0.9231  1.2734 -0.7129
    2MOL   H525 1727   6.298   7.199   4.861 -0.9077  0.1982  2.2426
    2MOL   H526 1728   6.752   7.197   4.763  1.0588  0.4529 -0.0514
    2MOL   H527 1729   6.725   7.360   4.817 -2.6957  0.1556 -0.1480
    2MOL   H528 1730   6.818   7.400   4.609 -0.0642 -0.2046 -0.7053
    2MOL   H529 1731   6.657   7.442   4.587  0.8432  1.3814  0.9839
    2MOL   H530 1732   6.658   7.173   4.498  0.6562 -0.9140 -4.1767
    2MOL   H531 1733   6.826   7.223   4.482  1.4634  3.5777  1.0977
    2MOL   H532 1734   6.750   7.423   4.349  1.8045 -0.3126  3.9603
    2MOL   H533 1735   6.588   7.342   4.352  0.5110  1.8666 -1.0909
    2MOL   H534 1736   6.826   7.204   4.236 -0.2747 -2.3984 -0.9873
    2MOL   H535 1737   6.675   7.138   4.263  0.8238  0.0149  0.0612
    2MOL   H536 1738   6.566   7.322   4.097 -0.0317 -0.9599  0.7721
    2MOL   H537 1739   6.726   7.365   4.074 -1.2953  1.2149  1.2894
    2MOL   H538 1740   6.587   7.096   4.054 -1.1582  1.2287 -0.0389
    2MOL   H539 1741   6.759   7.105   4.028 -0.3150  0.4219 -0.0667
    2MOL   H540 1742   6.556   7.245   3.859  0.7469  1.1576  2.5080
    2MOL   H541 1743   6.730   7.264   3.851 -0.2190  1.9071  3.3727
    2MOL   O542 1744   6.683   7.125   3.646 -0.8667 -0.2584 -0.2105
    2MOL   C543 1745   6.722   7.024   3.544  0.3292  0.8092  0.2856
    2MOL   C544 1746   6.591   6.964   3.486 -0.0293  0.0421 -0.3822
    2MOL   C545 1747   6.608   6.843   3.393  0.4345 -0.8890 -0.3074
    2MOL   C546 1748   6.539   6.860   3.258 -0.2052  0.2534 -0.3141
    2MOL   C547 1749   6.588   6.750   3.168 -0.1840 -0.2814  0.5499
    2MOL   C548 1750   6.494   6.742   3.043  0.1685 -0.1640  0.4259
    2MOL   C549 1751   6.523   6.625   2.946 -0.7764 -0.1025 -0.2230
    2MOL   C550 1752   6.455   6.640   2.805  0.0532  0.2969  0.9312
    2MOL   C551 1753   6.530   6.745   2.724 -0.0302  0.3017  0.6750
    2MOL   C552 1754   6.495   6.741   2.575  0.0127 -0.0211 -0.3323
    2MOL   O553 1755   6.590   6.822   2.509 -0.5567  0.0202  0.6917
    2MOL   C554 1756   6.559   6.874   2.389 -0.0079  0.5637 -0.2434
    2MOL   O555 1757   6.453   6.850   2.326  0.7851 -0.0544 -0.9490
    2MOL   C556 1758   6.670   6.958   2.328 -0.1173 -0.2073 -0.3547
    2MOL   C557 1759   6.699   6.931   2.181 -0.1873  0.5818  0.0541
    2MOL   C558 1760   6.708   6.782   2.137  0.4024 -0.1512 -0.4642
    2MOL   C559 1761   6.777   6.753   1.997 -0.2276  0.1595 -0.7177
    2MOL   C560 1762   6.811   6.607   1.976  0.2302  0.3581 -0.3992
    2MOL   C561 1763   6.908   6.583   1.855  0.0347  0.4586 -0.0219
    2MOL   C562 1764   6.960   6.439   1.863 -0.0085 -0.0080  0.2691
    2MOL   C563 1765   7.087   6.417   1.780 -0.4301 -0.5956 -0.5060
    2MOL   C564 1766   7.066   6.447   1.637  0.6380 -0.3295 -0.2770
    2MOL   O565 1767   7.134   6.537   1.584  0.8180 -0.3609  0.0385
    2MOL   H566 1768   6.780   7.069   3.464  1.7483  1.7937  1.8374
    2MOL   H567 1769   6.791   6.953   3.589 -1.3896 -1.6071 -0.8014
    2MOL   H568 1770   6.531   6.924   3.568  1.3125 -1.7880 -0.2588
    2MOL   H569 1771   6.528   7.043   3.445 -0.5241 -0.4809 -0.6441
    2MOL   H570 1772   6.714   6.821   3.391  1.0351  1.7580 -0.1726
    2MOL   H571 1773   6.573   6.755   3.446 -0.5467 -1.7094 -2.2753
    2MOL   H572 1774   6.433   6.853   3.282 -0.3946 -0.1055 -1.2447
    2MOL   H573 1775   6.541   6.963   3.222 -1.2777  0.0528 -0.9429
    2MOL   H574 1776   6.597   6.653   3.217  2.1357 -0.0115  0.7155
    2MOL   H575 1777   6.688   6.773   3.133 -0.7649 -0.2752 -1.1608
    2MOL   H576 1778   6.503   6.833   2.983  0.8268 -1.0693 -0.8608
    2MOL   H577 1779   6.390   6.730   3.075  0.6909 -3.0971  1.1839
    2MOL   H578 1780   6.496   6.528   2.988 -0.6946  0.6660  1.6142
    2MOL   H579 1781   6.631   6.620   2.931 -0.8263  0.8223 -0.9423
    2MOL   H580 1782   6.349   6.664   2.814 -0.4544 -1.4446 -0.0318
    2MOL   H581 1783   6.461   6.546   2.749  0.6221  0.6768  0.3632
    2MOL   H582 1784   6.492   6.838   2.766  1.7712  0.1126  2.7890
    2MOL   H583 1785   6.637   6.738   2.738  0.0853  1.9126  0.6030
    2MOL   H584 1786   6.514   6.640   2.541  0.2974 -0.3157  0.6662
    2MOL   H585 1787   6.391   6.765   2.556  0.0052  0.8531  0.7072
    2MOL   H586 1788   6.764   6.970   2.382  1.2327  0.8574 -2.8158
    2MOL   H587 1789   6.623   7.056   2.340  0.4466 -0.3475  3.7825
    2MOL   H588 1790   6.790   6.984   2.155  0.1582 -0.1206 -0.1902
    2MOL   H589 1791   6.623   6.994   2.134 -0.1504  1.4202  1.1249
    2MOL   H590 1792   6.605   6.748   2.124  0.6434 -0.2153 -2.4299
    2MOL   H591 1793   6.765   6.729   2.213  0.6952  1.3267  0.3620
    2MOL   H592 1794   6.876   6.798   1.995  0.7824 -1.6937  2.4024
    2MOL   H593 1795   6.711   6.797   1.923  1.1863  0.0022 -2.0820
    2MOL   H594 1796   6.851   6.566   2.070  1.1734  3.0054  0.3947
    2MOL   H595 1797   6.718   6.554   1.956  1.1139 -0.9783 -1.0565
    2MOL   H596 1798   6.856   6.599   1.761 -0.6749 -2.4129 -0.1687
    2MOL   H597 1799   6.993   6.651   1.853  0.4269  0.0836  2.2560
    2MOL   H598 1800   6.881   6.372   1.828 -0.3782  0.2868  0.5271
    2MOL   H599 1801   6.979   6.409   1.966 -0.4789 -2.1288 -0.2324
    2MOL   H600 1802   7.163   6.484   1.822 -1.7785 -0.1721  1.3151
    2MOL   H601 1803   7.116   6.312   1.793  1.2286  0.1182  2.0004
    2MOL   O602 1804   6.981   6.364   1.579 -0.3987  0.3788  0.6282
    2MOL   C603 1805   6.953   6.363   1.441 -0.8466 -0.1414 -0.4531
    2MOL   C604 1806   6.808   6.378   1.408  0.4528  0.5584  1.0882
    2MOL   C605 1807   6.721   6.252   1.442  0.1481  0.4054 -0.4716
    2MOL   C606 1808   6.584   6.288   1.509 -0.0392 -0.1534 -0.5966
    2MOL   C607 1809   6.599   6.359   1.643 -0.6002 -0.3052  0.6203
    2MOL   C608 1810   6.463   6.370   1.707 -0.3167 -0.1970 -0.0518
    2MOL   C609 1811   6.437   6.489   1.799 -0.0083 -0.0424 -0.0473
    2MOL   C610 1812   6.289   6.538   1.789 -0.1381  0.2297  0.6984
    2MOL   C611 1813   6.257   6.677   1.825  0.6071 -0.2872 -0.8401
    2MOL   C612 1814   6.304   6.711   1.972 -0.3987 -0.0908  0.4628
    2MOL   O613 1815   6.262   6.835   2.031  0.1674 -0.1803  0.1351
    2MOL   C614 1816   6.334   6.944   2.014  0.5041 -0.3506 -0.3993
    2MOL   O615 1817   6.436   6.960   1.946  0.1451  0.4225  1.2425
    2MOL   C616 1818   6.282   7.068   2.098  0.7576 -0.1584 -0.6692
    2MOL   C617 1819   6.234   7.184   2.007  0.3765 -0.1007 -0.3129
    2MOL   C618 1820   6.178   7.302   2.088 -0.1029 -0.1991 -0.7181
    2MOL   C619 1821   6.159   7.423   2.001  0.3090 -0.2906  1.2395
    2MOL   C620 1822   6.080   7.533   2.070 -0.9141  0.2872  0.4924
    2MOL   C621 1823   6.016   7.644   1.985 -0.1721 -0.2978  0.1570
    2MOL   C622 1824   5.948   7.753   2.074 -0.2210  0.1297  0.0518
    2MOL   C623 1825   5.805   7.715   2.124 -0.3981 -0.5313 -0.5740
    2MOL   C624 1826   5.745   0.055   2.237 -0.2940  0.4878  0.6170
    2MOL   O625 1827   5.651   0.026   2.307  0.4197  0.2263 -0.3634
    2MOL   H626 1828   6.996   6.456   1.403 -1.0372  0.3577  0.5425
    2MOL   H627 1829   6.998   6.276   1.392 -1.6016 -2.1014  2.2566
    2MOL   H628 1830   6.765   6.471   1.444  2.0648  1.7277  0.0638
    2MOL   H629 1831   6.802   6.386   1.299 -1.5977  0.8357  1.1997
    2MOL   H630 1832   6.698   6.186   1.358 -0.3989 -0.4710  0.3572
    2MOL   H631 1833   6.776   6.189   1.513 -0.6654  1.8908  1.5259
    2MOL   H632 1834   6.521   6.357   1.452 -0.8649  0.8474  1.4832
    2MOL   H633 1835   6.532   6.192   1.509 -1.6010  0.6662  0.3300
    2MOL   H634 1836   6.649   6.453   1.619 -2.0730  0.4409  0.3997
    2MOL   H635 1837   6.655   6.300   1.715  1.3319  1.1401  0.3291
    2MOL   H636 1838   6.436   6.279   1.761  0.5396  0.0650  0.8361
    2MOL   H637 1839   6.388   6.377   1.628  0.4145  2.9346 -0.5321
    2MOL   H638 1840   6.500   6.573   1.769  0.1740 -0.3634 -0.5671
    2MOL   H639 1841   6.464   6.477   1.904  0.4513 -1.6094 -0.3339
    2MOL   H640 1842   6.232   6.472   1.855  0.2156 -0.3403  0.4427
    2MOL   H641 1843   6.254   6.532   1.686  1.1158  1.4135  0.1887
    2MOL   H642 1844   6.312   6.745   1.761 -1.0681  1.2705 -0.6751
    2MOL   H643 1845   6.151   6.695   1.809  1.2139  2.5570 -1.9920
    2MOL   H644 1846   6.285   6.623   2.035  0.4803 -0.3270  0.4123
    2MOL   H645 1847   6.413   6.706   1.973 -0.4013 -0.2458 -0.1283
    2MOL   H646 1848   6.357   7.102   2.170  1.3450 -0.7959 -0.9679
    2MOL   H647 1849   6.196   7.039   2.157 -0.1385 -2.4349 -3.0009
    2MOL   H648 1850   6.155   7.147   1.941 -1.5004 -0.2311  1.9733
    2MOL   H649 1851   6.314   7.215   1.939  0.2637  0.1794 -0.3197
    2MOL   H650 1852   6.238   7.322   2.177 -0.7507 -0.5665 -0.1897
    2MOL   H651 1853   6.083   7.266   2.128  0.4985  0.7564  1.6959
    2MOL   H652 1854   6.103   7.395   1.912  0.3654  0.8536  0.8368
    2MOL   H653 1855   6.251   7.465   1.960 -1.2332  0.8324 -1.1150
    2MOL   H654 1856   6.002   7.478   2.122  0.2933  0.4184  2.4615
    2MOL   H655 1857   6.146   7.588   2.137  1.2338 -1.6590  0.0444
    2MOL   H656 1858   6.093   7.693   1.926 -0.2041 -0.6493 -0.1783
    2MOL   H657 1859   5.950   7.597   1.912  2.3905 -2.1958 -1.0027
    2MOL   H658 1860   5.926   0.078   2.006 -0.0957 -0.0497 -0.2017
    2MOL   H659 1861   6.013   0.022   2.157 -1.2952  2.2762  0.2445
    2MOL   H660 1862   5.748   7.705   2.031  0.7865 -0.1234 -1.3532
    2MOL   H661 1863   5.819   7.614   2.163  0.0956  0.4252  1.7957
    2MOL   O662 1864   5.805   0.177   2.234  0.3796 -0.1928 -0.3350
    2MOL   C663 1865   5.730   0.288   2.274  0.3285  0.3508 -0.5211
    2MOL   C664 1866   5.790   0.425   2.249  0.0015 -0.2036  0.6561
    2MOL   C665 1867   5.807   0.447   2.098  0.2578  0.1784  0.1898
    2MOL   C666 1868   5.867   0.583   2.068 -0.2002  0.2049 -0.4291
    2MOL   C667 1869   6.024   0.578   2.075 -0.4728  0.0845  0.7735
    2MOL   C668 1870   6.084   0.716   2.064  0.7934  0.3083 -0.1404
    2MOL   C669 1871   6.235   0.722   2.045  0.2872 -0.0918 -0.9440
    2MOL   C670 1872   6.267   0.870   2.024 -0.0145 -0.1041  0.2000
    2MOL   C671 1873   6.410   0.889   1.999 -0.0711  0.1572 -0.6004
    2MOL   C672 1874   6.453   1.039   1.985 -1.1486 -0.5153 -0.3137
    2MOL   O673 1875   6.413   1.091   1.860  0.6200  0.2394 -0.3892
    2MOL   C674 1876   6.500   1.136   1.770  0.7743  0.1265 -0.2574
    2MOL   O675 1877   6.624   1.151   1.779 -0.4045 -0.6853  0.5590
    2MOL   C676 1878   6.426   1.180   1.640 -0.4393  0.2362 -0.1163
    2MOL   C677 1879   6.452   1.074   1.524 -0.3361 -0.1433  0.6838
    2MOL   C678 1880   6.448   0.923   1.554 -0.2046 -0.2360  0.0135
    2MOL   C679 1881   6.308   0.867   1.581  0.1196 -0.7714 -0.6919
    2MOL   C680 1882   6.312   0.714   1.602 -0.0898 -0.9750 -0.3933
    2MOL   C681 1883   6.177   0.647   1.631  0.3703  0.1191 -0.4075
    2MOL   C682 1884   6.101   0.610   1.490 -0.0049 -0.2026 -0.9668
    2MOL   C683 1885   5.962   0.561   1.523 -0.3645  0.9351  0.0863
    2MOL   C684 1886   5.970   0.450   1.631  1.2195  0.5056  0.0154
    2MOL   O685 1887   5.969   0.485   1.746 -0.0890 -0.2438 -0.2387
    2MOL   H686 1888   5.631   0.304   2.232 -0.4007 -2.9116 -0.2107
    2MOL   H687 1889   5.706   0.281   2.380 -0.7342 -0.7034 -0.8179
    2MOL   H688 1890   5.721   0.502   2.282 -1.5391 -0.5355 -1.6234
    2MOL   H689 1891   5.883   0.446   2.303  0.4045  0.8330 -0.4158
    2MOL   H690 1892   5.870   0.370   2.053  2.5980  2.3409 -0.3405
    2MOL   H691 1893   5.705   0.449   2.060  0.1791 -1.5427  0.2761
    2MOL   H692 1894   5.853   0.614   1.965  0.0885 -0.1701 -0.5832
    2MOL   H693 1895   5.836   0.666   2.132 -1.0299  0.3652 -1.0394
    2MOL   H694 1896   6.054   0.506   2.000 -1.0721  0.6805 -0.0435
    2MOL   H695 1897   6.043   0.538   2.175  1.0500 -1.1172  0.0253
    2MOL   H696 1898   6.058   0.782   2.147 -0.9410  1.5341 -1.6171
    2MOL   H697 1899   6.025   0.744   1.976  0.3207 -1.4603 -0.4224
    2MOL   H698 1900   6.277   0.658   1.967  0.7209  1.4462 -2.0019
    2MOL   H699 1901   6.277   0.690   2.141 -1.5821 -1.7462 -0.6374
    2MOL   H700 1902   6.222   0.934   2.101  1.8360  1.8841 -0.3186
    2MOL   H701 1903   6.210   0.896   1.935  0.8060 -1.3314 -0.6929
    2MOL   H702 1904   6.447   0.868   2.100  0.4798  4.5670  0.1889
    2MOL   H703 1905   6.454   0.834   1.916  0.4558 -1.4049  0.6765
    2MOL   H704 1906   6.404   1.090   2.068 -1.1619 -1.2804  0.1544
    2MOL   H705 1907   6.560   1.057   1.997 -1.7036  0.9395  2.9267
    2MOL   H706 1908   6.475   1.269   1.600 -0.1764  0.2431  0.2133
    2MOL   H707 1909   6.320   1.195   1.659 -0.2416  0.6091  0.7295
    2MOL   H708 1910   6.549   1.094   1.478 -0.4920  0.4075  0.5940
    2MOL   H709 1911   6.386   1.095   1.439 -1.7760  0.5842  1.9628
    2MOL   H710 1912   6.517   0.886   1.629 -0.8004 -0.0493  0.6570
    2MOL   H711 1913   6.479   0.864   1.467  1.9349  1.0827 -0.1504
    2MOL   H712 1914   6.251   0.899   1.494 -0.9445  1.1210  0.6721
    2MOL   H713 1915   6.264   0.913   1.670  0.8651 -1.4133  0.0216
    2MOL   H714 1916   6.371   0.665   1.524 -0.6305 -1.6358 -0.3937
    2MOL   H715 1917   6.373   0.706   1.692 -0.8082 -0.5810  0.1381
    2MOL   H716 1918   6.200   0.557   1.688 -1.1582  0.4736  0.8068
    2MOL   H717 1919   6.111   0.698   1.701 -0.2060 -0.1231 -0.7770
    2MOL   H718 1920   6.163   0.551   1.422  1.3419 -1.7766  1.5384
    2MOL   H719 1921   6.078   0.705   1.442  1.5327  1.3831  1.3041
    2MOL   H720 1922   5.906   0.647   1.558 -0.1970  0.5270  1.3984
    2MOL   H721 1923   5.909   0.513   1.440  0.5635 -1.1758  0.6603
    2MOL   O722 1924   5.986   0.324   1.568 -0.2859 -0.2715 -0.2660
    2MOL   C723 1925   5.994   0.208   1.644  0.2072  0.0696 -0.1583
    2MOL   C724 1926   5.908   0.094   1.575 -0.1399 -0.8911  0.2511
    2MOL   C725 1927   5.754   0.118   1.592 -0.1984  0.4490 -0.0852
    2MOL   C726 1928   5.717   0.129   1.744  0.5635  0.4980 -0.2964
    2MOL   C727 1929   5.581   0.055   1.781  0.3937 -0.5245 -0.5339
    2MOL   C728 1930   5.510   0.112   1.898  0.1480 -0.0788 -0.8755
    2MOL   C729 1931   5.400   0.022   1.949  0.0961 -0.0247 -0.2142
    2MOL   C730 1932   5.343   0.074   2.085 -0.5458 -0.4471 -0.6041
    2MOL   C731 1933   5.241   7.740   2.143  0.4859  0.1552 -0.6313
    2MOL   C732 1934   5.208   0.010   2.292  0.3510 -0.6650 -0.3008
    2MOL   O733 1935   5.130   7.666   2.345 -0.3919 -0.2554 -0.5128
    2MOL   C734 1936   5.001   7.640   2.300  0.2259 -0.7532 -0.4198
    2MOL   O735 1937   4.928   7.705   2.226  0.5904 -0.4067  0.2061
    2MOL   C736 1938   4.952   7.510   2.371  0.2584  0.1309 -0.0239
    2MOL   C737 1939   4.802   7.476   2.371  1.0495 -0.4809 -0.1486
    2MOL   C738 1940   4.719   7.548   2.479  0.0558 -0.0484 -0.3359
    2MOL   C739 1941   4.566   7.500   2.488 -0.3734 -0.7228  0.1794
    2MOL   C740 1942   4.478   7.596   2.580 -0.3031  0.8619  0.6038
    2MOL   C741 1943   4.466   7.734   2.529 -0.0218 -0.6299 -0.4119
    2MOL   C742 1944   4.380   0.063   2.626  0.2829  0.7554  0.4007
    2MOL   C743 1945   4.340   0.205   2.566 -0.2174 -0.1231  0.1996
    2MOL   C744 1946   4.257   0.306   2.650 -0.3755  0.4194 -0.1261
    2MOL   O745 1947   4.311   0.362   2.745 -0.3584  0.2356 -0.2480
    2MOL   H746 1948   6.096   0.171   1.648 -0.0720 -0.9715 -1.8360
    2MOL   H747 1949   5.950   0.225   1.742  1.7130 -0.3988  0.6166
    2MOL   H748 1950   5.930   0.062   1.473  1.5530 -0.0687  0.3352
    2MOL   H749 1951   5.929   0.002   1.630  1.3867 -0.8486 -0.2408
    2MOL   H750 1952   5.716   0.204   1.538  2.4288  0.6754 -1.6761
    2MOL   H751 1953   5.704   0.028   1.557 -2.0227  1.0274  0.9800
    2MOL   H752 1954   5.797   0.096   1.810 -0.0676  0.0226  0.2352
    2MOL   H753 1955   5.707   0.237   1.757 -2.0466  0.2899 -0.1958
    2MOL   H754 1956   5.603   7.709   1.810  1.7465  0.2114  1.1256
    2MOL   H755 1957   5.518   0.045   1.693  0.1225 -1.3481 -0.2494
    2MOL   H756 1958   5.472   0.207   1.861  1.5341  0.4885 -0.8660
    2MOL   H757 1959   5.586   0.117   1.976 -0.5696 -2.0119  0.0126
    2MOL   H758 1960   5.446   7.680   1.946  0.0590 -0.0075 -1.8634
    2MOL   H759 1961   5.322   0.007   1.874  0.8308  0.5005 -1.0980
    2MOL   H760 1962   5.296   0.171   2.065  0.2496  0.0223 -0.2215
    2MOL   H761 1963   5.428   0.071   2.152 -2.1036  0.1141  1.4620
    2MOL   H762 1964   5.148   7.740   2.086  1.2812 -0.5751 -1.9374
    2MOL   H763 1965   5.277   7.637   2.147  1.7375  0.6373  2.0859
    2MOL   H764 1966   5.302   0.012   2.347 -1.8210 -0.5303  3.5166
    2MOL   H765 1967   5.162   0.108   2.303 -1.0513 -1.3933  0.3571
    2MOL   H766 1968   4.989   7.520   2.473 -2.3692  1.3597  0.8577
    2MOL   H767 1969   4.989   7.422   2.319  0.1974  0.7204 -1.0601
    2MOL   H768 1970   4.777   7.370   2.376 -0.9744 -0.0835 -1.0663
    2MOL   H769 1971   4.768   7.510   2.273  1.8691  0.9133  0.0427
    2MOL   H770 1972   4.727   7.651   2.446  0.1127  0.4751  1.2404
    2MOL   H771 1973   4.769   7.545   2.576 -1.9743 -2.5552  0.6881
    2MOL   H772 1974   4.548   7.400   2.527  1.5111 -1.2451 -0.2852
    2MOL   H773 1975   4.513   7.512   2.393  0.3188 -3.0601 -0.5228
    2MOL   H774 1976   4.376   7.558   2.586  0.7337 -2.2491 -0.5416
    2MOL   H775 1977   4.518   7.590   2.681 -0.5660  1.2733  0.7309
    2MOL   H776 1978   4.560   0.027   2.503  0.5577 -1.0737  0.7914
    2MOL   H777 1979   4.417   7.725   2.432 -1.0151 -1.2970  0.1464
    2MOL   H778 1980   4.423   0.071   2.726  1.1858  0.4797  0.0414
    2MOL   H779 1981   4.292   0.003   2.646  1.1852 -1.3363 -1.6707
    2MOL   H780 1982   4.436   0.253   2.545 -0.2557 -1.1476 -2.4909
    2MOL   H781 1983   4.283   0.182   2.476  0.4674 -0.0093 -0.2673
    2MOL   O782 1984   4.135   0.331   2.593  0.0020  0.0672  0.1965
    2MOL   C783 1985   4.061   0.427   2.659  0.0592 -0.2715  0.7628
    2MOL   C784 1986   3.975   0.405   2.781 -0.1935 -0.2141 -0.5851
    2MOL   C785 1987   3.863   0.304   2.759 -0.3266 -0.2627  0.3983
    2MOL   C786 1988   3.799   0.261   2.888 -0.1220 -0.1878  0.5200
    2MOL   C787 1989   3.675   0.174   2.869  0.5864  0.1950 -0.0447
    2MOL   C788 1990   3.590   0.152   2.999 -0.3525 -0.0952  0.3107
    2MOL   C789 1991   3.495   0.028   2.987 -0.1305 -0.1178  0.0481
    2MOL   C790 1992   3.381   0.034   2.892  0.4043  0.8950 -0.7813
    2MOL   C791 1993   3.274   7.677   2.907 -0.3218 -0.1492  0.5341
    2MOL   C792 1994   3.329   7.526   2.886 -0.7764  0.0436 -0.0550
    2MOL   O793 1995   3.219   7.438   2.852  0.1947  0.2759  0.1711
    2MOL   C794 1996   3.207   7.321   2.923  0.4338  0.0277 -0.8226
    2MOL   O795 1997   3.277   7.282   3.013 -0.5166  0.1963  0.2452
    2MOL   C796 1998   3.091   7.241   2.873  0.3215  0.1097 -0.1928
    2MOL   C797 1999   2.960   7.292   2.936  0.3246 -0.5774  0.4916
    2MOL   C798 2000   2.830   7.209   2.902 -0.4477  0.2181  0.1138
    2MOL   C799 2001   2.809   7.212   2.752 -0.1783  0.2020 -0.3654
    2MOL   C800 2002   2.692   7.125   2.715  0.5827 -0.1874 -0.0001
    2MOL   C801 2003   2.645   7.112   2.569 -0.7634 -0.7085 -0.1831
    2MOL   C802 2004   2.741   7.054   2.467  0.0517  0.3806 -0.1605
    2MOL   C803 2005   2.691   6.983   2.337  0.2604  0.1758  0.0017
    2MOL   C804 2006   2.804   6.940   2.249  0.2510  0.7298 -0.0659
    2MOL   O805 2007   2.879   6.855   2.291 -0.1664 -0.8035  0.2874
    2MOL   H806 2008   4.107   0.524   2.681  0.3958 -0.3667  0.4763
    2MOL   H807 2009   3.982   0.455   2.589  2.7214 -0.4882 -2.4693
    2MOL   H808 2010   4.035   0.379   2.867  2.5128  1.6791 -1.8327
    2MOL   H809 2011   3.945   0.505   2.811 -1.0963 -0.7529  0.3337
    2MOL   H810 2012   3.800   0.338   2.676  0.5468  0.5259  0.0502
    2MOL   H811 2013   3.902   0.210   2.718 -0.2749  0.6344 -1.6607
    2MOL   H812 2014   3.872   0.197   2.938  1.5370  1.0031 -0.3620
    2MOL   H813 2015   3.778   0.351   2.946 -1.7193  0.0912 -0.4450
    2MOL   H814 2016   3.712   0.075   2.839  1.9707  0.9745 -0.9765
    2MOL   H815 2017   3.604   0.209   2.794  0.0407  1.9860  1.2916
    2MOL   H816 2018   3.531   0.241   3.022 -0.8370 -0.0991 -0.9058
    2MOL   H817 2019   3.653   0.149   3.088  1.3137 -1.3090 -0.8659
    2MOL   H818 2020   3.450   0.007   3.084 -0.4605  1.8239  0.3245
    2MOL   H819 2021   3.565   7.702   2.975 -0.8820 -0.7841  0.1724
    2MOL   H820 2022   3.419   0.041   2.790  1.7932 -0.5261 -0.3777
    2MOL   H821 2023   3.333   0.132   2.895 -0.0892  0.6364 -0.0883
    2MOL   H822 2024   3.234   7.693   3.007 -0.9115  0.1367  0.2532
    2MOL   H823 2025   3.181   7.690   2.852 -1.9388 -1.0963  2.9528
    2MOL   H824 2026   3.388   7.520   2.795 -1.3078  0.9475 -0.4614
    2MOL   H825 2027   3.390   7.491   2.969  0.7733  2.6860 -0.0213
    2MOL   H826 2028   3.112   7.140   2.908  0.6392  0.5544  0.9230
    2MOL   H827 2029   3.080   7.243   2.764 -1.9998  3.6863  0.0287
    2MOL   H828 2030   2.932   7.395   2.912 -0.4201 -1.0831 -0.8788
    2MOL   H829 2031   2.993   7.290   3.039  1.3258  0.5209  0.2123
    2MOL   H830 2032   2.750   7.246   2.967 -0.8840  0.9470 -0.8276
    2MOL   H831 2033   2.858   7.113   2.944  0.6771  0.0454 -1.0258
    2MOL   H832 2034   2.888   7.172   2.689 -0.0354 -0.1024  0.0004
    2MOL   H833 2035   2.794   7.316   2.725  1.8065  0.9235  1.2001
    2MOL   H834 2036   2.699   7.024   2.754 -1.3140 -1.2998 -2.3705
    2MOL   H835 2037   2.613   7.167   2.778  1.3618  2.0180 -0.4217
    2MOL   H836 2038   2.554   7.053   2.561 -0.4111 -1.3424  0.5223
    2MOL   H837 2039   2.622   7.214   2.536  2.4334  0.4575  0.9471
    2MOL   H838 2040   2.803   6.981   2.520 -1.3830  0.5166  1.7471
    2MOL   H839 2041   2.823   7.124   2.451  0.6817  0.6409  3.7063
    2MOL   H840 2042   2.635   6.893   2.363  1.2978 -0.3357  0.4705
    2MOL   H841 2043   2.631   7.050   2.276  0.0958 -1.3470 -1.5392
    2MOL   O842 2044   2.820   7.021   2.149  0.4297 -0.8857 -0.0263
    2MOL   C843 2045   2.919   6.989   2.055 -0.1750 -0.2607  0.2614
    2MOL   C844 2046   2.904   7.084   1.946  0.4929 -0.4908 -0.2489
    2MOL   C845 2047   2.774   7.064   1.867 -0.5316 -0.7517 -0.0245
    2MOL   C846 2048   2.792   7.084   1.714  0.7789 -0.6307 -0.3716
    2MOL   C847 2049   2.666   7.035   1.640  0.2047 -0.3791  0.0880
    2MOL   C848 2050   2.543   7.114   1.702  0.1546  0.3220  0.4927
    2MOL   C849 2051   2.413   7.116   1.616 -1.0466 -0.5424  0.3363
    2MOL   C850 2052   2.364   6.972   1.580  0.1704 -1.0824  0.7379
    2MOL   C851 2053   2.244   6.972   1.478  0.1719 -0.0320  0.3287
    2MOL   C852 2054   2.195   6.831   1.450  0.5160  0.8040 -0.2260
    2MOL   O853 2055   2.067   6.835   1.396 -0.0602  0.0565 -0.5427
    2MOL   C854 2056   2.046   6.841   1.259  0.2716  0.2361 -0.2491
    2MOL   O855 2057   2.127   6.843   1.173 -0.4629  0.1495  0.3624
    2MOL   C856 2058   1.898   6.842   1.220 -0.8454 -0.2926  0.1885
    2MOL   C857 2059   1.848   6.986   1.203 -0.2823 -0.2821 -0.1454
    2MOL   C858 2060   1.892   7.046   1.073  0.0425  0.6766 -0.3294
    2MOL   C859 2061   1.869   7.201   1.068 -0.2550  0.0091 -0.4826
    2MOL   C860 2062   1.886   7.263   0.936  0.3826 -0.9360  0.9416
    2MOL   C861 2063   1.881   7.413   0.930 -0.8142  0.7678  0.3222
    2MOL   C862 2064   1.881   7.475   0.794 -0.4635  0.6064  0.2493
    2MOL   C863 2065   1.849   7.627   0.780  0.1167 -0.0241  0.0913
    2MOL   C864 2066   1.935   7.725   0.858  0.0132  0.7108  0.0035
    2MOL   O865 2067   2.051   7.745   0.831 -0.1833 -0.2989  0.0809
    2MOL   H866 2068   3.019   6.994   2.099  0.2061 -0.1626 -0.6086
    2MOL   H867 2069   2.897   6.891   2.012  1.3263  0.2994 -1.8621
    2MOL   H868 2070   2.914   7.190   1.972 -2.3030 -0.5679  1.4193
    2MOL   H869 2071   2.991   7.071   1.882  0.5461  1.4137 -0.5940
    2MOL   H870 2072   2.736   6.963   1.876  2.7175 -2.1839 -1.7769
    2MOL   H871 2073   2.707   7.141   1.906 -1.5307 -2.2424  1.2649
    2MOL   H872 2074   2.809   7.186   1.678 -0.6318  0.1822  1.1783
    2MOL   H873 2075   2.873   7.020   1.679  0.4979 -1.2786  0.1785
    2MOL   H874 2076   2.657   6.926   1.642  0.5430 -0.3981  0.8601
    2MOL   H875 2077   2.671   7.063   1.534  2.1944  1.0002  0.5058
    2MOL   H876 2078   2.574   7.217   1.719  2.0228  0.2525 -2.1106
    2MOL   H877 2079   2.512   7.091   1.804  0.6964  0.1917  0.6300
    2MOL   H878 2080   2.424   7.178   1.527 -0.4117 -0.7896  0.2364
    2MOL   H879 2081   2.328   7.160   1.667  0.1887  2.0789  0.2248
    2MOL   H880 2082   2.333   6.927   1.675 -1.3996 -1.5239  0.0273
    2MOL   H881 2083   2.452   6.917   1.546  2.0743  0.5623  2.8886
    2MOL   H882 2084   2.159   7.019   1.528 -1.1251  0.4819 -2.2972
    2MOL   H883 2085   2.273   7.029   1.390 -0.3938  1.2025  0.9326
    2MOL   H884 2086   2.256   6.779   1.377  1.4935 -0.7402  1.6365
    2MOL   H885 2087   2.193   6.774   1.543  1.5121  0.9778 -0.0942
    2MOL   H886 2088   1.839   6.791   1.297  0.6331 -1.5011  0.5573
    2MOL   H887 2089   1.879   6.798   1.122 -2.5170 -0.4594  0.5803
    2MOL   H888 2090   1.875   7.046   1.290  1.3607 -1.5040  0.2098
    2MOL   H889 2091   1.739   6.987   1.211 -0.2653 -2.3724  0.5417
    2MOL   H890 2092   1.844   6.989   0.993 -1.1848  1.1794  0.0418
    2MOL   H891 2093   1.995   7.016   1.056  0.0331  1.1816 -1.3286
    2MOL   H892 2094   1.919   7.244   1.155 -0.7440  0.7831 -0.5789
    2MOL   H893 2095   1.764   7.210   1.096 -0.4202 -0.4172 -0.9701
    2MOL   H894 2096   1.975   7.232   0.881 -1.3537 -2.5827 -1.0416
    2MOL   H895 2097   1.806   7.220   0.875 -0.0078  0.1347  0.6724
    2MOL   H896 2098   1.786   7.438   0.978 -1.4016 -0.6327 -0.0658
    2MOL   H897 2099   1.955   7.461   0.994  2.2945 -2.1567 -0.9254
    2MOL   H898 2100   1.836   7.409   0.720 -0.5864  2.3117 -1.2312
    2MOL   H899 2101   1.986   7.475   0.764 -0.1789  1.1149  1.1995
    2MOL   H900 2102   1.865   7.657   0.677 -0.2140 -0.8821 -0.2170
    2MOL   H901 2103   1.745   7.633   0.812 -0.6613 -3.4661 -1.6465
    2MOL   O902 2104   1.869   0.010   0.962 -0.0096  0.3965 -0.2107
    2MOL   C903 2105   1.915   0.108   1.049  0.1593  0.3437 -0.2310
    2MOL   C904 2106   1.824   0.110   1.181 -0.3072  1.0686  0.5527
    2MOL   C905 2107   1.834   7.739   1.258 -0.4571 -0.0174  0.3286
    2MOL   C906 2108   1.769   7.750   1.405 -0.2124  0.4428 -0.3529
    2MOL   C907 2109   1.622   0.050   1.406 -0.2003 -0.3501 -0.7162
    2MOL   C908 2110   1.541   0.028   1.533  0.0387  0.0291 -0.2497
    2MOL   C909 2111   1.402   0.097   1.520  0.3760 -0.3624  0.0447
    2MOL   C910 2112   1.304   0.060   1.634 -0.3046  0.3409  0.4268
    2MOL   C911 2113   1.173   0.139   1.647  0.2786  0.5876  0.5188
    2MOL   C912 2114   1.067   0.070   1.734  0.2687  0.2960  0.0900
    2MOL   O913 2115   0.956   0.158   1.763  0.4795 -0.4554 -0.0178
    2MOL   C914 2116   0.828   0.118   1.772  0.5329  0.2657 -0.6964
    2MOL   O915 2117   0.784   0.013   1.725 -0.4548  0.0762  0.1965
    2MOL   C916 2118   0.727   0.218   1.842  0.5709  0.2093  0.5011
    2MOL   C917 2119   0.787   0.293   1.962  0.5039  0.1125  0.2439
    2MOL   C918 2120   0.711   0.283   2.096 -0.7663 -0.1061 -0.0532
    2MOL   C919 2121   0.773   0.373   2.207 -0.4750  0.7073  0.4922
    2MOL   C920 2122   0.902   0.315   2.272  0.2087 -0.1018  0.0467
    2MOL   C921 2123   0.984   0.398   2.369 -0.0966 -0.8245  0.5670
    2MOL   C922 2124   1.104   0.326   2.443  0.1047  0.0826  0.8619
    2MOL   C923 2125   1.198   0.412   2.529  0.1889  0.0867  0.6856
    2MOL   C924 2126   1.321   0.464   2.460 -0.0372  0.7667 -0.4480
    2MOL   O925 2127   1.432   0.445   2.517 -0.6352 -0.0222 -0.0617
    2MOL   H926 2128   2.016   0.077   1.077 -0.1998  0.0627  0.7833
    2MOL   H927 2129   1.912   0.204   0.999 -2.9530  0.1689 -0.4349
    2MOL   H928 2130   1.854   0.199   1.236  0.4685 -0.0967  2.0507
    2MOL   H929 2131   1.722   0.128   1.147  1.3148  2.3920 -3.9328
    2MOL   H930 2132   1.782   7.659   1.205  0.2643 -0.2884  0.0253
    2MOL   H931 2133   1.940   7.715   1.264  0.5052  3.5619 -1.1848
    2MOL   H932 2134   1.758   7.651   1.449  0.4506  1.3093  1.8442
    2MOL   H933 2135   1.833   0.053   1.470 -0.8604 -2.7963  3.4426
    2MOL   H934 2136   1.568   7.755   1.327 -0.7798 -0.1779 -0.4397
    2MOL   H935 2137   1.627   0.157   1.382 -1.8616  0.0738  0.6997
    2MOL   H936 2138   1.607   0.075   1.606 -0.1273 -1.5090  0.9099
    2MOL   H937 2139   1.530   7.678   1.552  0.5017  0.3071  1.5869
    2MOL   H938 2140   1.361   0.071   1.422 -0.6648 -1.1822  0.6948
    2MOL   H939 2141   1.422   0.204   1.520  1.4882 -0.5370 -1.6663
    2MOL   H940 2142   1.353   0.038   1.729  0.2575  0.2675  0.1205
    2MOL   H941 2143   1.267   7.716   1.618 -1.6909  0.7950  0.6874
    2MOL   H942 2144   1.184   0.240   1.688 -0.4926  1.0790 -0.4760
    2MOL   H943 2145   1.139   0.160   1.546 -1.1819 -1.4862  0.5546
    2MOL   H944 2146   1.040   7.727   1.698  0.8885  0.2816 -0.3335
    2MOL   H945 2147   1.123   0.042   1.823  0.1104 -0.6752 -0.1082
    2MOL   H946 2148   0.632   0.171   1.866  0.0465  0.8486 -0.3171
    2MOL   H947 2149   0.695   0.294   1.772 -0.0745  0.2832  0.8767
    2MOL   H948 2150   0.792   0.395   1.925  0.4835  0.2153  0.5270
    2MOL   H949 2151   0.888   0.253   1.966  0.1363 -0.6872  1.8057
    2MOL   H950 2152   0.708   0.175   2.110 -0.6922  0.0027  0.8323
    2MOL   H951 2153   0.612   0.314   2.063 -0.9742  0.9464  1.5530
    2MOL   H952 2154   0.692   0.362   2.280 -1.3629 -0.8349 -0.7056
    2MOL   H953 2155   0.783   0.476   2.174 -0.0410 -0.1014 -1.9243
    2MOL   H954 2156   0.874   0.215   2.307  0.8447 -0.9099 -1.6961
    2MOL   H955 2157   0.981   0.291   2.202 -0.4030 -0.3935 -0.5504
    2MOL   H956 2158   1.009   0.487   2.311 -2.4984 -0.5013 -0.0401
    2MOL   H957 2159   0.908   0.424   2.443 -0.4732  1.3098 -0.5167
    2MOL   H958 2160   1.164   0.258   2.382  0.7995  0.2344  1.3734
    2MOL   H959 2161   1.062   0.253   2.513  0.4558 -1.2963 -0.3386
    2MOL   H960 2162   1.138   0.492   2.573  0.7189 -0.0370  1.6397
    2MOL   H961 2163   1.230   0.347   2.610 -0.4494  0.9737  1.6572
    2MOL   O962 2164   1.305   0.516   2.338  0.4850 -0.2209  0.1437
    2MOL   C963 2165   1.411   0.589   2.283  0.1373 -0.4995  1.4335
    2MOL   C964 2166   1.340   0.683   2.187  0.8901 -0.3582  0.2279
    2MOL   C965 2167   1.422   0.790   2.111  0.0383  0.4652  0.2538
    2MOL   C966 2168   1.327   0.914   2.077  0.0133 -0.1995 -0.5209
    2MOL   C967 2169   1.388   1.016   1.981 -0.0736 -0.3469 -0.3120
    2MOL   C968 2170   1.317   1.158   1.991 -0.4719 -0.1811  0.8650
    2MOL   C969 2171   1.347   1.240   1.864 -0.0538  0.1402  0.0934
    2MOL   C970 2172   1.266   1.370   1.873 -0.4635  0.8642 -0.3656
    2MOL   C971 2173   1.295   1.475   1.774  0.0026 -0.2104  0.4878
    2MOL   C972 2174   1.215   1.448   1.641  0.1571  0.0848  0.2603
    2MOL   O973 2175   1.273   1.341   1.567  0.1957 -0.5038  0.4636
    2MOL   C974 2176   1.361   1.379   1.472  0.6623 -0.3080  0.4590
    2MOL   O975 2177   1.393   1.497   1.444 -0.0989 -0.0078 -0.2134
    2MOL   C976 2178   1.420   1.263   1.385 -0.2717  0.3141 -0.2472
    2MOL   C977 2179   1.455   1.136   1.470 -0.2577 -0.1310  0.4229
    2MOL   C978 2180   1.576   1.162   1.555 -0.0581  0.2808 -0.1960
    2MOL   C979 2181   1.613   1.039   1.637 -0.6512  0.9427  0.2576
    2MOL   C980 2182   1.738   1.067   1.717 -1.0285 -0.2780 -0.4925
    2MOL   C981 2183   1.868   1.055   1.630  0.7389  0.3563  0.2477
    2MOL   C982 2184   2.003   1.092   1.706 -0.2418  0.3018  0.6444
    2MOL   C983 2185   2.132   1.036   1.651 -0.4306 -0.9306 -0.2328
    2MOL   C984 2186   2.202   1.119   1.547  0.1705  0.5385  0.2085
    2MOL   O985 2187   2.300   1.187   1.578 -0.0621 -0.1118 -0.4357
    2MOL   H986 2188   1.468   0.646   2.356  0.0965  2.0336 -0.4436
    2MOL   H987 2189   1.476   0.526   2.221 -1.5424 -1.2621  0.4201
    2MOL   H988 2190   1.269   0.635   2.119 -0.2453  2.7223 -0.8702
    2MOL   H989 2191   1.271   0.732   2.256  0.2853 -0.4322 -0.3157
    2MOL   H990 2192   1.511   0.822   2.164 -0.9642  0.3497  2.0437
    2MOL   H991 2193   1.454   0.738   2.020 -0.4226  1.0890 -0.2657
    2MOL   H992 2194   1.234   0.871   2.040 -0.4387  1.6368 -1.5853
    2MOL   H993 2195   1.288   0.964   2.166  0.9087 -0.7253  0.1711
    2MOL   H994 2196   1.372   0.976   1.881 -2.2455 -0.1143 -0.0850
    2MOL   H995 2197   1.495   1.022   1.996 -0.2492  0.1843  0.7835
    2MOL   H996 2198   1.358   1.217   2.073  0.2139  0.7794 -0.1714
    2MOL   H997 2199   1.211   1.151   2.018 -0.7904 -4.2317 -1.0119
    2MOL   H998 2200   1.305   1.185   1.781  1.1414 -2.4182  1.1270
    2MOL   H999 2201   1.453   1.262   1.850  0.5691 -1.6675  1.8306
    2MOL     H1 2202   1.309   1.406   1.966 -0.0821 -1.1499  0.2473
    2MOL     H2 2203   1.159   1.364   1.894 -0.0146 -2.1392  1.3497
    2MOL     H3 2204   1.271   1.571   1.819  2.6307  0.3915  0.6948
    2MOL     H4 2205   1.402   1.486   1.756 -0.4514  2.1575 -1.1435
    2MOL     H5 2206   1.110   1.431   1.664  0.6512 -0.7251  2.0249
    2MOL     H6 2207   1.202   1.539   1.582 -0.3277  1.2332  2.1261
    2MOL     H7 2208   1.502   1.288   1.318 -0.7309 -0.2544 -1.0298
    2MOL     H8 2209   1.340   1.217   1.329  0.0891 -2.1149  1.1590
    2MOL     H9 2210   1.491   1.061   1.399  1.9874  0.8464  0.5111
    2MOL    H10 2211   1.374   1.093   1.529  1.2218 -0.9754  1.8588
    2MOL    H11 2212   1.561   1.244   1.626 -0.5868  1.6253 -1.8286
    2MOL    H12 2213   1.655   1.208   1.496 -0.1122  1.5288  0.6901
    2MOL    H13 2214   1.636   0.965   1.560  0.0140  2.1154 -0.6916
    2MOL    H14 2215   1.534   1.009   1.705 -0.6864 -0.3374 -0.3382
    2MOL    H15 2216   1.725   1.162   1.769  0.0494  0.8695 -2.2485
    2MOL    H16 2217   1.741   0.991   1.795 -2.7955  0.2160  0.0882
    2MOL    H17 2218   1.882   0.956   1.586  1.5209  0.5489  0.0490
    2MOL    H18 2219   1.855   1.120   1.543 -1.3745 -0.4443 -0.0591
    2MOL    H19 2220   1.997   1.051   1.807  0.6899 -1.5328 -0.0191
    2MOL    H20 2221   1.998   1.199   1.726 -1.9937  0.4839 -0.6159
    2MOL    H21 2222   2.204   1.041   1.733 -1.4304 -0.2440  0.6240
    2MOL    H22 2223   2.125   0.932   1.620 -2.9144 -0.3528 -1.7548
    2MOL    O23 2224   2.148   1.103   1.424  0.7167 -0.4073 -0.0423
    2MOL    C24 2225   2.198   1.171   1.305 -0.1881  0.2766  0.3755
    2MOL    C25 2226   2.114   1.124   1.179  0.7014  0.1417  0.2318
    2MOL    C26 2227   1.959   1.131   1.199 -0.2024 -0.0964 -0.3464
    2MOL    C27 2228   1.884   1.068   1.084 -0.0322  0.5894  0.6264
    2MOL    C28 2229   1.733   1.062   1.102 -0.1093  0.3090 -0.1409
    2MOL    C29 2230   1.653   1.186   1.059 -0.8664  0.4372  0.2553
    2MOL    C30 2231   1.503   1.163   1.068  0.0802 -0.0887 -0.4999
    2MOL    C31 2232   1.415   1.276   1.021 -0.1229 -0.2300  0.1648
    2MOL    C32 2233   1.406   1.291   0.872  0.7031  0.1719  0.2533
    2MOL    C33 2234   1.308   1.396   0.817 -0.1007  0.5956 -0.2844
    2MOL    O34 2235   1.176   1.357   0.833  0.2571  0.3009 -0.1092
    2MOL    C35 2236   1.123   1.252   0.760 -0.0145 -0.3871  0.8071
    2MOL    O36 2237   1.186   1.193   0.673 -0.4936  0.0725  0.5911
    2MOL    C37 2238   0.981   1.212   0.805  0.3036 -0.2895  0.0712
    2MOL    C38 2239   0.872   1.320   0.800 -0.0132 -0.5301  0.0212
    2MOL    C39 2240   0.744   1.264   0.855  0.3086  0.0490 -0.0399
    2MOL    C40 2241   0.676   1.361   0.950 -0.9829  0.0860 -0.0909
    2MOL    C41 2242   0.551   1.309   1.025 -0.9707 -0.6614 -0.3135
    2MOL    C42 2243   0.493   1.427   1.117 -0.1706  0.2875 -0.5574
    2MOL    C43 2244   0.348   1.401   1.154 -0.2473 -0.5070 -0.6935
    2MOL    C44 2245   0.272   1.523   1.210 -0.0396  0.2338  0.1270
    2MOL    C45 2246   0.277   1.561   1.355  0.7972 -0.9701 -0.2150
    2MOL    O46 2247   0.376   1.621   1.399 -0.3949 -0.0908 -0.0742
    2MOL    H47 2248   2.183   1.278   1.318  0.9376  0.4475  0.3114
    2MOL    H48 2249   2.304   1.158   1.286 -0.4897  1.0200 -1.9202
    2MOL    H49 2250   2.138   1.186   1.093  0.0960  0.1528  0.0720
    2MOL    H50 2251   2.145   1.027   1.139 -0.3347  0.6390 -1.8304
    2MOL    H51 2252   1.933   1.078   1.291  4.4174 -0.0762  1.1051
    2MOL    H52 2253   1.925   1.231   1.225  0.7915  0.3331 -0.6621
    2MOL    H53 2254   1.914   1.123   0.994  1.0932  0.0725  0.6839
    2MOL    H54 2255   1.922   0.967   1.070 -1.3841  0.2386 -0.6412
    2MOL    H55 2256   1.709   1.041   1.206  1.9994 -0.3734  0.2289
    2MOL    H56 2257   1.704   0.975   1.044 -0.9415  0.9831 -0.7448
    2MOL    H57 2258   1.675   1.222   0.958  0.7238  0.1209  0.4750
    2MOL    H58 2259   1.682   1.269   1.124 -0.0889 -0.2315  0.7717
    2MOL    H59 2260   1.480   1.141   1.173  0.3968  1.2454 -0.1390
    2MOL    H60 2261   1.475   1.072   1.015 -0.0209 -0.0552 -0.5035
    2MOL    H61 2262   1.432   1.374   1.066 -1.4858  0.5392 -0.9409
    2MOL    H62 2263   1.312   1.274   1.056 -0.0226 -1.1224  0.4198
    2MOL    H63 2264   1.507   1.315   0.837 -0.2354  2.7484 -0.7836
    2MOL    H64 2265   1.383   1.194   0.828  2.8989 -0.3083  0.0789
    2MOL    H65 2266   1.328   1.488   0.871  0.5407  0.7252 -0.7335
    2MOL    H66 2267   1.310   1.419   0.710  3.9830 -0.0980 -0.4267
    2MOL    H67 2268   0.989   1.162   0.902  3.2230  0.7646  0.4253
    2MOL    H68 2269   0.948   1.148   0.723 -1.3493 -1.7878  1.8528
    2MOL    H69 2270   0.849   1.332   0.694  0.5314  1.3156  0.0896
    2MOL    H70 2271   0.909   1.415   0.839  0.3892 -0.2601 -1.0026
    2MOL    H71 2272   0.768   1.176   0.913  1.5008 -0.3574 -1.1429
    2MOL    H72 2273   0.672   1.247   0.775  0.2147  0.7120 -0.1046
    2MOL    H73 2274   0.651   1.448   0.889 -1.3149  0.7253  0.9398
    2MOL    H74 2275   0.744   1.392   1.030  2.1868 -0.1948 -2.5482
    2MOL    H75 2276   0.483   1.269   0.950 -0.2441  1.3148 -2.0797
    2MOL    H76 2277   0.575   1.223   1.088  3.5422  0.4552 -0.3551
    2MOL    H77 2278   0.565   1.446   1.197  1.4198 -2.5028 -1.2233
    2MOL    H78 2279   0.492   1.519   1.060 -1.5150  0.2239 -0.6374
    2MOL    H79 2280   0.352   1.319   1.225  0.0797 -0.2008 -0.3611
    2MOL    H80 2281   0.302   1.361   1.063 -1.6407 -0.9101  0.1665
    2MOL    H81 2282   0.296   1.612   1.152 -1.1224 -0.1356 -0.8858
    2MOL    H82 2283   0.168   1.498   1.193  0.9922 -3.5112 -1.0246
    2MOL    O83 2284   0.166   1.530   1.427 -0.3964  0.6807  0.0387
    2MOL    C84 2285   0.174   1.572   1.565  0.2453  0.1612  0.0568
    2MOL    C85 2286   0.083   1.478   1.631 -0.5422 -0.2273  0.3534
    2MOL    C86 2287   0.064   1.489   1.779  0.6553  0.1439 -0.2197
    2MOL    C87 2288   0.009   1.358   1.845 -0.9862 -0.0230  0.1737
    2MOL    C88 2289   7.715   1.364   1.989  1.0345  0.2882  0.4488
    2MOL    C89 2290   0.067   1.371   2.094 -0.1383 -0.2130  0.3427
    2MOL    C90 2291   0.017   1.427   2.230 -0.4934  0.7925  0.6119
    2MOL    C91 2292   0.101   1.404   2.359  0.1473  0.7211 -0.0899
    2MOL    C92 2293   0.074   1.505   2.467  0.3362  0.0076 -0.1006
    2MOL    C93 2294   0.159   1.493   2.586  0.1816 -0.2902  0.1326
    2MOL    O94 2295   0.145   1.370   2.652  0.0478 -0.6113 -0.3102
    2MOL    C95 2296   0.233   1.264   2.626 -0.9444  0.0380  0.3399
    2MOL    O96 2297   0.338   1.279   2.563  0.1742 -0.7344 -0.2990
    2MOL    C97 2298   0.180   1.130   2.675  0.0505  0.6845 -0.0106
    2MOL    C98 2299   0.217   1.098   2.821  0.2964  0.3160 -0.1778
    2MOL    C99 2300   0.350   1.021   2.852 -0.2035 -0.0051 -0.9299
    2MOL   C100 2301   0.369   0.998   3.002 -0.3179  0.0759  0.1512
    2MOL   C101 2302   0.492   0.910   3.022  0.0127 -0.0416  0.7466
    2MOL   C102 2303   0.527   0.892   3.171  0.0005  0.3471  0.0606
    2MOL   C103 2304   0.660   0.825   3.211 -0.6745  0.3699  0.5317
    2MOL   C104 2305   0.673   0.676   3.178 -0.2472  0.4201  0.5053
    2MOL   C105 2306   0.637   0.585   3.293  0.3606  0.3094 -0.0245
    2MOL   O106 2307   0.721   0.514   3.354  0.3725 -0.0226 -0.0211
    2MOL   H107 2308   0.279   1.564   1.595 -0.2118 -0.4563  1.5325
    2MOL   H108 2309   0.148   1.677   1.568  1.2599  0.3998  0.8568
    2MOL   H109 2310   7.737   1.478   1.593 -0.9035  1.8787  1.3064
    2MOL   H110 2311   0.114   1.375   1.613 -1.5712 -0.8819  2.2306
    2MOL   H111 2312   0.154   1.521   1.830 -0.7504 -0.1911  2.5821
    2MOL   H112 2313   7.752   1.571   1.800 -0.1838 -0.9236  1.2988
    2MOL   H113 2314   7.683   1.314   1.789 -0.3931 -0.4194 -0.3914
    2MOL   H114 2315   0.082   1.279   1.832  1.2530  1.6870  2.0534
    2MOL   H115 2316   7.655   1.275   2.006  1.6908 -0.4981 -1.2418
    2MOL   H116 2317   7.653   1.453   2.002  0.3078  0.4989 -3.7701
    2MOL   H117 2318   0.149   1.434   2.059 -0.1322 -0.0544  0.6426
    2MOL   H118 2319   0.112   1.272   2.105  0.8021  0.0195 -1.2212
    2MOL   H119 2320   7.681   1.369   2.238 -0.0740  0.1302  0.6864
    2MOL   H120 2321   7.757   1.532   2.208 -2.4650 -0.3677 -4.0724
    2MOL   H121 2322   0.207   1.402   2.332  0.1655 -2.0712  0.0001
    2MOL   H122 2323   0.076   1.304   2.395 -1.6265  1.2222  0.1129
    2MOL   H123 2324   0.080   1.605   2.424  0.0935  0.4867  0.9552
    2MOL   H124 2325   7.729   1.477   2.494 -0.0259  1.5108  0.1564
    2MOL   H125 2326   0.264   1.515   2.565  0.0194  0.0829 -0.3123
    2MOL   H126 2327   0.121   1.570   2.653 -0.9927 -0.9067  0.1904
    2MOL   H127 2328   0.203   1.043   2.614 -0.8341  0.7783 -0.4945
    2MOL   H128 2329   0.071   1.130   2.669  0.1503 -0.9584 -2.5096
    2MOL   H129 2330   0.145   1.027   2.861  0.4491 -0.2241 -0.8455
    2MOL   H130 2331   0.200   1.187   2.882 -0.8298  0.6445 -0.9650
    2MOL   H131 2332   0.433   1.084   2.819  1.5619 -2.8036 -1.9969
    2MOL   H132 2333   0.336   0.923   2.805 -0.5585  0.5422 -1.9829
    2MOL   H133 2334   0.281   0.959   3.053 -0.0640 -4.4887 -2.6953
    2MOL   H134 2335   0.394   1.090   3.057  0.4884 -0.4953  0.7656
    2MOL   H135 2336   0.480   0.812   2.976 -0.3658  1.0031 -1.4362
    2MOL   H136 2337   0.579   0.957   2.976 -0.9050  1.2665  0.3168
    2MOL   H137 2338   0.534   0.992   3.214 -0.1693  0.2937  0.2087
    2MOL   H138 2339   0.454   0.850   3.240  1.1367  1.1487  1.7811
    2MOL   H139 2340   0.673   0.844   3.317  0.9567 -1.4152  0.6778
    2MOL   H140 2341   0.739   0.886   3.167 -0.4970 -0.1787  0.0792
    2MOL   H141 2342   0.599   0.661   3.099  0.5873  5.2033 -1.3720
    2MOL   H142 2343   0.776   0.657   3.148 -0.2211 -1.3669  1.6742
    2MOL   O143 2344   0.510   0.589   3.327 -0.3327  0.2882 -0.0865
    2MOL   C144 2345   0.460   0.491   3.414 -0.1495 -0.6569  0.4582
    2MOL   C145 2346   0.352   0.555   3.489 -0.5674 -0.8736 -0.8042
    2MOL   C146 2347   0.227   0.585   3.410 -0.1081 -0.3750 -0.4701
    2MOL   C147 2348   0.131   0.683   3.482 -0.8291  0.7810 -0.2406
    2MOL   C148 2349   0.003   0.714   3.403 -0.4532 -1.0466  1.1507
    2MOL   C149 2350   0.026   0.813   3.280 -0.0595  0.5922  0.1405
    2MOL   C150 2351   7.665   0.827   3.181  0.1316 -0.1342 -0.8972
    2MOL   C151 2352   7.695   0.883   3.040 -0.2821 -0.2004  0.5285
    2MOL   C152 2353   7.585   0.849   2.939 -0.0043 -0.5418 -0.3906
    2MOL   C153 2354   7.614   0.909   2.796  0.3879  0.3966  0.2814
    2MOL   O154 2355   7.513   0.859   2.705  0.0540  0.1452 -0.4178
    2MOL   C155 2356   7.385   0.919   2.716 -0.2520 -0.1406 -0.1762
    2MOL   O156 2357   7.360   1.014   2.793  0.3394  0.3984 -0.5332
    2MOL   C157 2358   7.283   0.858   2.622  0.1516 -0.1278  0.0096
    2MOL   C158 2359   7.136   0.866   2.675  0.4698 -0.0995 -0.9699
    2MOL   C159 2360   7.028   0.808   2.589  0.9219  0.1216 -0.1597
    2MOL   C160 2361   7.053   0.658   2.561 -0.3476 -0.3788  0.3040
    2MOL   C161 2362   6.945   0.586   2.478  0.5971 -0.0625 -0.4563
    2MOL   C162 2363   6.964   0.436   2.455  0.1293 -0.3962 -0.0202
    2MOL   C163 2364   6.864   0.376   2.364  0.4019 -0.0519 -0.5168
    2MOL   C164 2365   6.728   0.354   2.425 -0.4576 -0.2733  0.1349
    2MOL   C165 2366   6.691   0.234   2.511  0.0964  0.3570  0.1556
    2MOL   O166 2367   6.779   0.197   2.594  0.1158 -0.2102  0.1628
    2MOL   H167 2368   0.410   0.407   3.367 -0.8755  0.9488 -1.7072
    2MOL   H168 2369   0.541   0.453   3.478 -0.2759 -1.3876  0.1906
    2MOL   H169 2370   0.320   0.492   3.572  0.7416 -0.1987  0.2401
    2MOL   H170 2371   0.396   0.648   3.524  0.1200 -1.5629  0.1815
    2MOL   H171 2372   0.255   0.637   3.318 -1.7748  2.3802  0.5296
    2MOL   H172 2373   0.168   0.497   3.384  1.2508 -2.3533  2.8080
    2MOL   H173 2374   0.105   0.629   3.573  1.7218  2.7225  1.6964
    2MOL   H174 2375   0.186   0.775   3.502 -1.0561  0.1936  3.5718
    2MOL   H175 2376   7.689   0.769   3.465  2.2453  1.1435  2.4467
    2MOL   H176 2377   7.707   0.621   3.382 -1.4813 -0.4833  1.2054
    2MOL   H177 2378   0.118   0.787   3.227  0.0730  0.4696  0.4341
    2MOL   H178 2379   0.040   0.915   3.317 -1.9755  1.0404 -0.3235
    2MOL   H179 2380   7.591   0.895   3.223  0.0637 -0.2870 -0.7701
    2MOL   H180 2381   7.619   0.728   3.182 -0.4173  0.1269  0.1715
    2MOL   H181 2382   0.032   0.844   3.000 -0.1997  1.5007 -1.0553
    2MOL   H182 2383   7.708   0.992   3.045  0.9249 -0.3052 -0.1490
    2MOL   H183 2384   7.580   0.740   2.938  3.9750 -0.7845 -0.1170
    2MOL   H184 2385   7.497   0.892   2.988  0.5060 -1.3679  1.2781
    2MOL   H185 2386   7.633   1.016   2.800  0.3148  0.3976  0.6434
    2MOL   H186 2387   7.704   0.861   2.757 -1.0440 -1.4661 -0.7895
    2MOL   H187 2388   7.306   0.753   2.602 -0.3311 -0.2454  0.0683
    2MOL   H188 2389   7.280   0.904   2.523  1.4076  0.2866  0.1534
    2MOL   H189 2390   7.116   0.972   2.690 -0.2472 -0.3882  0.2135
    2MOL   H190 2391   7.138   0.835   2.779 -1.1863 -0.3035 -0.9829
    2MOL   H191 2392   7.019   0.862   2.495 -0.4981  0.7958  0.3539
    2MOL   H192 2393   6.929   0.817   2.635  1.1656  2.3466 -0.0356
    2MOL   H193 2394   7.050   0.602   2.654  2.3787  1.7639  1.7604
    2MOL   H194 2395   7.152   0.660   2.515 -1.6720  2.3314 -2.6679
    2MOL   H195 2396   6.847   0.599   2.525  0.4336 -1.5713 -0.3473
    2MOL   H196 2397   6.947   0.643   2.385 -2.9748  0.6164 -0.1761
    2MOL   H197 2398   7.068   0.434   2.421  0.3739 -0.7927  0.7371
    2MOL   H198 2399   6.984   0.383   2.548 -0.7456 -1.7815 -0.5964
    2MOL   H199 2400   6.882   0.275   2.327  0.6584 -0.5383  0.9269
    2MOL   H200 2401   6.853   0.443   2.279 -0.1482 -0.3467 -0.6835
    2MOL   H201 2402   6.703   0.439   2.489  0.2927  1.0870 -1.3619
    2MOL   H202 2403   6.663   0.357   2.338  1.3467 -1.9400 -1.2978
    2MOL   H203 2404   6.598   0.182   2.490 -0.2990  0.6281  1.2145
    3MOL     O1 2405   3.567   2.211   1.237 -1.2708  0.5664  0.0793
    3MOL     C2 2406   3.653   2.236   1.348 -0.9802 -0.3815 -0.1241
    3MOL     C3 2407   3.780   2.155   1.323 -0.3155  0.0766 -0.7238
    3MOL     C4 2408   3.898   2.201   1.411  0.3500 -0.3221  0.1530
    3MOL     C5 2409   4.028   2.137   1.365 -0.7866  0.2784 -0.1519
    3MOL     C6 2410   4.148   2.203   1.429 -0.0985 -0.1229 -1.0566
    3MOL     C7 2411   4.280   2.121   1.409 -1.0376 -0.2935  0.5567
    3MOL     C8 2412   4.346   2.135   1.274  0.3078  0.3158 -0.2834
    3MOL     C9 2413   4.479   2.065   1.243 -0.6182  0.9297  0.1948
    3MOL    C10 2414   4.601   2.163   1.228  0.0887 -0.1033 -0.1184
    3MOL    C11 2415   4.619   2.252   1.354 -0.4580 -0.0476  0.7120
    3MOL    O12 2416   4.533   2.361   1.377 -0.2899 -0.2416 -0.1746
    3MOL    C13 2417   4.566   2.479   1.318  0.5992  0.4099 -0.3773
    3MOL    O14 2418   4.656   2.497   1.236 -0.1448 -0.1344  0.0111
    3MOL    C15 2419   4.468   2.595   1.361 -0.2221  0.0745 -0.4681
    3MOL    C16 2420   4.331   2.541   1.388  0.2639 -0.5227  0.1042
    3MOL    C17 2421   4.226   2.655   1.412 -0.5266 -0.5073  0.1598
    3MOL    C18 2422   4.085   2.613   1.441 -0.1263  0.0087 -0.9851
    3MOL    C19 2423   4.068   2.554   1.584 -0.1873  0.4367  0.0869
    3MOL    C20 2424   3.917   2.544   1.627  0.5537  0.3629  0.1818
    3MOL    C21 2425   3.901   2.475   1.762  0.2573 -0.4556  0.0540
    3MOL    C22 2426   3.940   2.566   1.884 -0.4350 -0.4385  0.2982
    3MOL    C23 2427   3.974   2.490   2.014 -0.0752 -0.0473  0.1254
    3MOL    O24 2428   4.005   2.371   2.016 -0.1563  0.0542  0.4574
    3MOL    H25 2429   3.684   2.340   1.356 -0.2293 -0.7591  2.1422
    3MOL    H26 2430   3.603   2.218   1.443  0.6845 -1.1342  0.6291
    3MOL    H27 2431   3.762   2.049   1.339  1.7461 -0.4035 -1.4407
    3MOL    H28 2432   3.803   2.170   1.218 -0.1011  1.3873 -0.4989
    3MOL    H29 2433   3.902   2.310   1.410 -1.2013 -0.2159  2.4113
    3MOL    H30 2434   3.880   2.188   1.517 -1.9108  0.9132 -0.0366
    3MOL    H31 2435   4.015   2.035   1.402  0.1287  0.0955 -0.3223
    3MOL    H32 2436   4.044   2.120   1.258 -0.2601 -0.5848  0.0624
    3MOL    H33 2437   4.136   2.224   1.535 -2.2255  1.5341 -1.5964
    3MOL    H34 2438   4.161   2.307   1.397  1.3096  1.1382  3.2891
    3MOL    H35 2439   4.255   2.016   1.425  1.1165 -0.8069  0.7663
    3MOL    H36 2440   4.356   2.137   1.486 -1.6362 -0.6525  1.2225
    3MOL    H37 2441   4.350   2.240   1.245  0.5613  0.4367  0.1754
    3MOL    H38 2442   4.281   2.094   1.198 -1.1724  1.3013  0.4257
    3MOL    H39 2443   4.470   2.005   1.152 -0.2428  1.1998 -0.0200
    3MOL    H40 2444   4.498   1.993   1.323  0.1033  1.9193  0.9190
    3MOL    H41 2445   4.695   2.108   1.224  0.3612  0.4729 -2.0387
    3MOL    H42 2446   4.582   2.226   1.141 -0.4871  2.0356  1.5123
    3MOL    H43 2447   4.617   2.187   1.441 -0.0724 -0.6213  0.2994
    3MOL    H44 2448   4.718   2.298   1.352 -0.5273  0.0801 -1.8812
    3MOL    H45 2449   4.462   2.677   1.290 -0.2366 -0.1281 -0.7008
    3MOL    H46 2450   4.515   2.641   1.448 -1.6387  1.6040 -0.4948
    3MOL    H47 2451   4.332   2.469   1.469 -0.7333 -2.9182 -1.9339
    3MOL    H48 2452   4.300   2.492   1.295 -1.2753  0.8201 -0.1230
    3MOL    H49 2453   4.218   2.731   1.335  1.3904  0.7063  1.1150
    3MOL    H50 2454   4.274   2.712   1.492 -2.4388 -1.5045  2.0823
    3MOL    H51 2455   4.067   2.541   1.361 -1.3841  1.8462 -2.4176
    3MOL    H52 2456   4.015   2.695   1.425  0.3349  0.4104 -0.9747
    3MOL    H53 2457   4.114   2.455   1.586 -1.3982 -0.1131  1.1521
    3MOL    H54 2458   4.112   2.625   1.654 -1.5431 -0.6505  2.1185
    3MOL    H55 2459   3.885   2.648   1.640  2.0065  1.2084 -2.5830
    3MOL    H56 2460   3.860   2.493   1.549  1.9217  0.0869 -0.6472
    3MOL    H57 2461   3.963   2.385   1.755 -1.0471 -1.2455 -1.8015
    3MOL    H58 2462   3.795   2.449   1.769  0.0839  0.2016 -0.0728
    3MOL    H59 2463   4.031   2.623   1.864  1.5025 -3.8541 -1.0439
    3MOL    H60 2464   3.859   2.632   1.914 -0.6142 -0.6992  0.3879
    3MOL    H61 2465   3.481   2.246   1.253 -0.4810  2.5272  0.1276
    3MOL    O62 2466   3.978   2.578   2.117  0.3360  0.1232 -0.3309
    3MOL    C63 2467   3.988   2.526   2.245 -0.0480  0.3712  0.5414
    3MOL    C64 2468   3.948   2.633   2.349  0.8432  0.2099 -0.5842
    3MOL    C65 2469   3.792   2.649   2.370 -0.2321  0.6947  1.0645
    3MOL    C66 2470   3.739   2.790   2.353 -0.1885  0.3971  0.0023
    3MOL    C67 2471   3.591   2.796   2.301  0.4635 -0.5023 -0.3135
    3MOL    C68 2472   3.554   2.946   2.290  0.4990  0.4183 -0.2214
    3MOL    C69 2473   3.606   3.010   2.158 -0.7463 -0.0073  0.3700
    3MOL    C70 2474   3.509   3.000   2.033  0.0284  0.4547  0.1533
    3MOL    C71 2475   3.560   3.055   1.902 -0.0449  0.7570 -0.0592
    3MOL    C72 2476   3.686   2.990   1.847  0.0167  0.4468 -0.2766
    3MOL    O73 2477   3.706   3.023   1.714 -0.7447 -0.0727  0.2913
    3MOL    C74 2478   3.705   2.931   1.611  0.6758 -0.3324  0.1476
    3MOL    O75 2479   3.658   2.822   1.629  0.0650 -0.2037 -0.0467
    3MOL    C76 2480   3.768   2.967   1.470 -0.0095 -0.1745 -0.6212
    3MOL    C77 2481   3.915   3.008   1.488 -0.3618  0.2121 -0.0910
    3MOL    C78 2482   3.987   3.031   1.350 -0.1261 -0.8366  0.5036
    3MOL    C79 2483   4.138   3.062   1.365  0.1385 -0.4314 -0.1910
    3MOL    C80 2484   4.209   3.081   1.227 -0.2314 -0.2668 -0.0637
    3MOL    C81 2485   4.354   3.120   1.231  0.2747  0.0186 -0.6177
    3MOL    C82 2486   4.443   3.033   1.316  0.2099  0.4471 -0.3231
    3MOL    C83 2487   4.587   3.099   1.331 -0.4081 -0.1889  0.0129
    3MOL    C84 2488   4.684   3.050   1.438  0.3316  0.1534 -0.1918
    3MOL    O85 2489   4.795   3.015   1.414  0.1155 -0.1330 -0.3236
    3MOL    H86 2490   3.926   2.437   2.249 -0.1207  0.2032 -2.7946
    3MOL    H87 2491   4.092   2.495   2.257  0.0320  0.0323 -0.9324
    3MOL    H88 2492   3.987   2.584   2.439 -1.7099 -0.2525  0.3015
    3MOL    H89 2493   3.989   2.734   2.338 -0.0884  0.5560 -0.9107
    3MOL    H90 2494   3.750   2.580   2.297 -0.3543  1.8385  0.0404
    3MOL    H91 2495   3.761   2.606   2.465 -1.9300  0.3195  0.3559
    3MOL    H92 2496   3.753   2.854   2.440  1.4755  0.2071 -0.1088
    3MOL    H93 2497   3.793   2.830   2.267  0.4091 -2.3576 -0.9464
    3MOL    H94 2498   3.516   2.755   2.370 -0.0593  2.8407  1.2025
    3MOL    H95 2499   3.579   2.732   2.214  2.0575  1.0892 -1.7390
    3MOL    H96 2500   3.577   2.997   2.384  0.6274  1.0211 -0.5801
    3MOL    H97 2501   3.445   2.955   2.283  0.0279 -1.6664  3.2959
    3MOL    H98 2502   3.709   2.982   2.135 -1.3028 -0.1845 -2.0346
    3MOL    H99 2503   3.602   3.119   2.170 -0.0667 -0.0946  1.5151
    3MOL   H100 2504   3.412   3.043   2.059  1.4394  2.4499  2.2417
    3MOL   H101 2505   3.485   2.893   2.026 -0.6889  0.5047  1.5603
    3MOL   H102 2506   3.481   3.041   1.829  0.6973 -2.3860 -0.3195
    3MOL   H103 2507   3.566   3.164   1.906 -0.0410  0.6946  2.0011
    3MOL   H104 2508   3.769   3.022   1.910 -1.1657 -1.7191  2.4923
    3MOL   H105 2509   3.671   2.882   1.855 -2.2484  0.7473 -0.1347
    3MOL   H106 2510   3.701   3.051   1.453  0.8594  0.6961  0.1737
    3MOL   H107 2511   3.762   2.887   1.397 -0.8115 -0.8504  0.1765
    3MOL   H108 2512   3.972   2.932   1.542  1.2132  0.6843 -1.0662
    3MOL   H109 2513   3.913   3.104   1.542 -1.9308  0.8800 -1.3023
    3MOL   H110 2514   3.936   3.108   1.291  0.8183  0.2922  1.1333
    3MOL   H111 2515   3.966   2.948   1.283 -1.9536  1.1380 -1.4455
    3MOL   H112 2516   4.186   2.986   1.426  0.3743 -0.7506 -0.7719
    3MOL   H113 2517   4.157   3.157   1.416 -0.3592  0.3966 -1.5172
    3MOL   H114 2518   4.211   2.985   1.175 -1.2745  0.1998 -0.9720
    3MOL   H115 2519   4.154   3.158   1.172  3.6160  0.5288 -3.0010
    3MOL   H116 2520   4.393   3.130   1.130  0.1551 -0.3054 -0.6983
    3MOL   H117 2521   4.352   3.219   1.276  1.0217 -0.6730  0.9851
    3MOL   H118 2522   4.456   2.934   1.271 -0.2503  0.5155 -0.6140
    3MOL   H119 2523   4.405   3.020   1.417  0.3052  1.4139 -0.1627
    3MOL   H120 2524   4.633   3.078   1.234  1.7487  1.1375  0.7044
    3MOL   H121 2525   4.588   3.208   1.341  2.0252  0.0087 -1.7308
    3MOL   O122 2526   4.630   3.057   1.561  0.2084  0.0473  0.0775
    3MOL   C123 2527   4.695   2.992   1.669  0.4814 -0.0018 -0.3275
    3MOL   C124 2528   4.674   2.839   1.668  0.4242  0.5408 -0.6329
    3MOL   C125 2529   4.526   2.805   1.684 -0.0162  0.0605  0.2476
    3MOL   C126 2530   4.542   2.655   1.731  0.6174  0.4022  0.2420
    3MOL   C127 2531   4.404   2.584   1.745  0.2843  0.4831  0.0636
    3MOL   C128 2532   4.431   2.438   1.791  0.5314 -0.1844  0.3046
    3MOL   C129 2533   4.297   2.364   1.831  0.3929  0.3036 -0.2567
    3MOL   C130 2534   4.314   2.215   1.824 -0.0612  0.9662 -0.4554
    3MOL   C131 2535   4.191   2.133   1.861  0.1243  0.0511  0.4808
    3MOL   C132 2536   4.215   1.977   1.869 -0.1482 -0.0926  0.3598
    3MOL   O133 2537   4.265   1.925   1.746 -0.5560  0.2081 -0.4265
    3MOL   C134 2538   4.279   1.792   1.736  0.7236  0.1561 -0.2265
    3MOL   O135 2539   4.268   1.719   1.832  0.0168 -0.1782 -0.3620
    3MOL   C136 2540   4.311   1.729   1.601  0.3158  1.1777  0.3972
    3MOL   C137 2541   4.446   1.776   1.553  0.4725 -0.2068  0.3093
    3MOL   C138 2542   4.489   1.726   1.417  0.3871 -0.6228  0.2294
    3MOL   C139 2543   4.635   1.761   1.387 -0.2841 -0.1832  0.6282
    3MOL   C140 2544   4.723   1.649   1.439  0.3581 -0.6845 -0.0475
    3MOL   C141 2545   4.871   1.683   1.404 -0.7311 -0.5458  0.2326
    3MOL   C142 2546   4.973   1.578   1.443 -0.6281 -0.3316 -0.1986
    3MOL   C143 2547   5.120   1.607   1.410  0.0227  0.3845  0.2999
    3MOL   C144 2548   5.219   1.532   1.500 -0.2869 -0.3368  0.3384
    3MOL   O145 2549   5.306   1.470   1.453  0.1824 -0.0591  0.3369
    3MOL   H146 2550   4.800   3.022   1.671  0.6791 -0.6695  3.3444
    3MOL   H147 2551   4.659   3.021   1.767  1.0663 -0.1216 -0.0734
    3MOL   H148 2552   4.717   2.777   1.590 -1.7076 -0.9216 -0.6906
    3MOL   H149 2553   4.733   2.810   1.754 -2.7217 -1.5824  0.9112
    3MOL   H150 2554   4.471   2.859   1.761  1.1322  1.3219  0.2063
    3MOL   H151 2555   4.471   2.816   1.591 -1.3522  1.6668  1.2030
    3MOL   H152 2556   4.606   2.594   1.667  0.7822  2.3772 -1.5463
    3MOL   H153 2557   4.609   2.648   1.818  0.0463 -1.1594  0.5633
    3MOL   H154 2558   4.348   2.583   1.652  2.7373  2.4715 -1.4716
    3MOL   H155 2559   4.346   2.644   1.814  0.7585 -0.0702  0.9569
    3MOL   H156 2560   4.509   2.442   1.867  2.4606  2.7546 -1.7461
    3MOL   H157 2561   4.476   2.388   1.705 -0.0161  1.1783 -0.7914
    3MOL   H158 2562   4.226   2.390   1.753  1.2146  1.3429 -0.6720
    3MOL   H159 2563   4.272   2.401   1.931  0.7777  1.1592 -0.4719
    3MOL   H160 2564   4.401   2.179   1.880 -1.2518  0.7533  1.3053
    3MOL   H161 2565   4.330   2.182   1.721 -0.2405  3.3792 -1.2672
    3MOL   H162 2566   4.147   2.153   1.959 -0.9255 -1.1746  0.2699
    3MOL   H163 2567   4.113   2.166   1.792  0.8099 -1.1944 -0.9193
    3MOL   H164 2568   4.292   1.941   1.937  1.0320  0.6824 -0.5433
    3MOL   H165 2569   4.124   1.919   1.888 -0.1692 -0.5803 -1.1562
    3MOL   H166 2570   4.220   1.752   1.545  1.3297  1.5911 -1.1142
    3MOL   H167 2571   4.314   1.621   1.612 -0.4193  1.0807 -0.2949
    3MOL   H168 2572   4.518   1.748   1.630 -0.9412 -0.7611  1.4601
    3MOL   H169 2573   4.437   1.884   1.563 -3.8584 -0.4793  0.5030
    3MOL   H170 2574   4.426   1.771   1.340 -1.0228  0.2021  1.8212
    3MOL   H171 2575   4.470   1.619   1.419 -2.7019 -0.1027  2.2116
    3MOL   H172 2576   4.671   1.850   1.439  0.1371  0.0243 -0.0167
    3MOL   H173 2577   4.647   1.783   1.281  0.3673 -0.9042  0.5527
    3MOL   H174 2578   4.704   1.621   1.543  0.6712 -0.2535  0.1262
    3MOL   H175 2579   4.695   1.560   1.382  3.1513 -2.0274  0.5886
    3MOL   H176 2580   4.874   1.685   1.296 -0.8405  0.2103  0.2359
    3MOL   H177 2581   4.911   1.779   1.436  0.0377 -0.4752 -0.9262
    3MOL   H178 2582   4.937   1.484   1.399  1.1018 -0.4048 -1.5306
    3MOL   H179 2583   4.964   1.565   1.551  0.6265  0.0757 -0.0368
    3MOL   H180 2584   5.152   1.595   1.306 -0.0938 -0.7232  0.3850
    3MOL   H181 2585   5.144   1.713   1.417 -0.0919  0.3355  1.4573
    3MOL   O182 2586   5.207   1.551   1.629  0.2103  0.6412 -0.3002
    3MOL   C183 2587   5.320   1.537   1.719  0.3307  0.3629 -0.4839
    3MOL   C184 2588   5.313   1.402   1.794 -0.3740  0.5475 -0.8007
    3MOL   C185 2589   5.439   1.368   1.880 -0.2341 -0.0609  0.6431
    3MOL   C186 2590   5.441   1.229   1.945 -0.6692  0.2628 -0.3635
    3MOL   C187 2591   5.562   1.184   2.029 -0.1363 -0.1028  0.2490
    3MOL   C188 2592   5.530   1.053   2.102 -0.5758  0.2773  0.3915
    3MOL   C189 2593   5.521   0.934   1.998  0.8273  0.2502  0.1225
    3MOL   C190 2594   5.489   0.801   2.071  0.3179 -0.2798 -0.1257
    3MOL   C191 2595   5.456   0.681   1.979  0.1397  0.3563 -0.4808
    3MOL   C192 2596   5.402   0.554   2.046  0.8724  0.1968  0.3631
    3MOL   O193 2597   5.283   0.577   2.114  0.0255 -0.6053 -0.4305
    3MOL   C194 2598   5.251   0.482   2.207  0.7622 -0.2965 -0.4601
    3MOL   O195 2599   5.313   0.381   2.235 -0.2440  0.1697 -0.2805
    3MOL   C196 2600   5.117   0.503   2.274 -0.5216  0.6018  0.0694
    3MOL   C197 2601   4.994   0.411   2.231  0.1804 -0.0285 -0.2659
    3MOL   C198 2602   4.879   0.432   2.334  0.0055 -0.0230 -0.1719
    3MOL   C199 2603   4.753   0.365   2.265  0.6104  0.5632  0.0584
    3MOL   C200 2604   4.618   0.380   2.340  0.3749 -0.4538  0.1649
    3MOL   C201 2605   4.560   0.525   2.336  0.6736  0.7815 -0.0211
    3MOL   C202 2606   4.448   0.546   2.443  0.0391 -0.6490  0.0283
    3MOL   C203 2607   4.403   0.690   2.458 -0.4997  0.2448  1.2388
    3MOL   C204 2608   4.334   0.720   2.594  0.0372 -0.2231  0.4805
    3MOL   O205 2609   4.215   0.729   2.601  0.4278 -0.0096 -0.3686
    3MOL   H206 2610   5.413   1.549   1.663 -1.1585  1.6625 -2.7341
    3MOL   H207 2611   5.332   1.617   1.792 -1.4037  0.8388 -0.6871
    3MOL   H208 2612   5.220   1.380   1.846  0.2854  0.3387  0.3130
    3MOL   H209 2613   5.305   1.325   1.717  0.0736 -0.3983  0.0791
    3MOL   H210 2614   5.525   1.380   1.814 -1.9335 -0.2720 -1.6926
    3MOL   H211 2615   5.453   1.439   1.962 -0.4654  0.9895 -0.2059
    3MOL   H212 2616   5.371   1.239   2.029  2.5293  0.5369  2.3786
    3MOL   H213 2617   5.421   1.150   1.873 -1.5346 -0.1796  0.3515
    3MOL   H214 2618   5.597   1.264   2.095  1.9355 -0.7436 -0.0154
    3MOL   H215 2619   5.643   1.161   1.960  0.0919 -3.1127  1.4577
    3MOL   H216 2620   5.440   1.066   2.163  0.0500 -2.0455  1.8729
    3MOL   H217 2621   5.601   1.033   2.183 -2.4068  1.8170  2.4517
    3MOL   H218 2622   5.618   0.928   1.948  1.3224 -0.7524  1.1569
    3MOL   H219 2623   5.451   0.953   1.917  1.3123  2.7178  0.2489
    3MOL   H220 2624   5.403   0.821   2.135  1.7908  0.0664  1.7788
    3MOL   H221 2625   5.574   0.784   2.137 -0.6719  1.1687  1.5322
    3MOL   H222 2626   5.381   0.717   1.909 -0.0272  1.1793  0.1068
    3MOL   H223 2627   5.541   0.656   1.916  1.6140 -0.2966  1.7147
    3MOL   H224 2628   5.382   0.472   1.977 -0.6234 -0.1677  1.2136
    3MOL   H225 2629   5.477   0.521   2.118  1.0018 -5.2021 -1.9638
    3MOL   H226 2630   5.086   0.606   2.256 -1.5114  0.3112  0.0463
    3MOL   H227 2631   5.142   0.490   2.379 -2.4070  2.6660  0.8114
    3MOL   H228 2632   5.024   0.306   2.235  1.9940  0.4959  0.0666
    3MOL   H229 2633   4.963   0.447   2.133 -1.5157 -3.0112 -0.8951
    3MOL   H230 2634   4.854   0.538   2.337  1.3890  0.2733  1.5852
    3MOL   H231 2635   4.899   0.405   2.438 -0.3569  0.5305  0.0443
    3MOL   H232 2636   4.775   0.259   2.251  1.6863  0.7052  0.6002
    3MOL   H233 2637   4.744   0.411   2.166 -1.5818  0.1339  0.0333
    3MOL   H234 2638   4.545   0.318   2.288 -0.6130  0.2991  0.6318
    3MOL   H235 2639   4.621   0.338   2.440  1.0422 -1.1568 -0.1478
    3MOL   H236 2640   4.646   0.586   2.364 -0.0233  1.3612  0.9058
    3MOL   H237 2641   4.523   0.565   2.242 -0.7832 -1.4145 -0.4310
    3MOL   H238 2642   4.482   0.503   2.538  3.9330  2.6882  0.2905
    3MOL   H239 2643   4.352   0.497   2.425  0.3709 -0.8936 -1.1166
    3MOL   H240 2644   4.486   0.760   2.463 -0.4180  0.1332  1.4406
    3MOL   H241 2645   4.347   0.722   2.370 -0.2195 -0.8685  0.6462
    3MOL   O242 2646   4.423   0.714   2.694 -0.1338  0.4541 -0.3558
    3MOL   C243 2647   4.380   0.709   2.827  0.1716 -0.0602 -0.6456
    3MOL   C244 2648   4.488   0.655   2.913 -0.7469 -0.0142 -0.9931
    3MOL   C245 2649   4.613   0.749   2.921 -0.1323 -0.0590 -0.1926
    3MOL   C246 2650   4.742   0.706   2.848 -0.4133  0.2444 -0.4115
    3MOL   C247 2651   4.858   0.800   2.884 -0.5920 -0.2926  0.6073
    3MOL   C248 2652   4.979   0.791   2.797 -0.2460 -0.4435 -0.2847
    3MOL   C249 2653   4.964   0.825   2.648 -0.6960  0.0453 -0.0541
    3MOL   C250 2654   5.100   0.862   2.583  0.4308 -0.2296 -0.0839
    3MOL   C251 2655   5.086   0.896   2.431  0.1115  0.1583  0.7532
    3MOL   C252 2656   5.226   0.940   2.377 -0.0199 -0.3091  0.1962
    3MOL   O253 2657   5.271   1.071   2.409 -0.4765  0.3010 -0.4410
    3MOL   C254 2658   5.237   1.187   2.347 -0.0575  0.1770  0.4168
    3MOL   O255 2659   5.178   1.180   2.242  0.4836  0.6952  0.0821
    3MOL   C256 2660   5.293   1.318   2.401  0.6253 -0.6126  0.1300
    3MOL   C257 2661   5.444   1.345   2.374 -0.1003  0.2899  0.6066
    3MOL   C258 2662   5.535   1.255   2.467  0.1385 -0.0952  0.8932
    3MOL   C259 2663   5.681   1.314   2.479  0.1364  0.7690 -0.0143
    3MOL   C260 2664   5.753   1.259   2.607  0.3499 -0.3640  0.2120
    3MOL   C261 2665   5.895   1.320   2.621 -0.6020  0.5628 -0.9870
    3MOL   C262 2666   5.985   1.260   2.727  0.0600 -0.0224  0.1618
    3MOL   C263 2667   6.131   1.318   2.727  0.4081 -0.2047 -0.6899
    3MOL   C264 2668   6.136   1.464   2.777 -0.3550 -0.9005  0.5166
    3MOL   O265 2669   6.155   1.556   2.697 -0.5772  0.2179  0.0008
    3MOL   H266 2670   4.342   0.808   2.854  1.8102  0.3784  0.0962
    3MOL   H267 2671   4.292   0.645   2.824  0.4583 -0.5375  0.7571
    3MOL   H268 2672   4.449   0.630   3.012  1.2000  2.7209  0.5265
    3MOL   H269 2673   4.522   0.558   2.877 -1.4921  0.3610 -2.7880
    3MOL   H270 2674   4.585   0.843   2.872  0.9622 -0.7821 -2.2916
    3MOL   H271 2675   4.636   0.778   3.023  0.0942  0.9455 -0.5190
    3MOL   H272 2676   4.767   0.602   2.867 -0.0180  0.9458  3.4369
    3MOL   H273 2677   4.728   0.704   2.740 -1.4942  1.3436 -0.3079
    3MOL   H274 2678   4.880   0.782   2.989 -1.1046 -0.6064  0.6609
    3MOL   H275 2679   4.822   0.902   2.874  0.7871  0.0619 -1.1329
    3MOL   H276 2680   5.024   0.693   2.808  0.8879  0.1479  0.5296
    3MOL   H277 2681   5.052   0.856   2.845  0.9416 -0.7226 -1.6704
    3MOL   H278 2682   4.898   0.911   2.654  1.2578  1.6571 -0.7801
    3MOL   H279 2683   4.926   0.735   2.600 -0.9923  0.0078  0.2552
    3MOL   H280 2684   5.169   0.778   2.593  1.1550  0.2711 -0.7461
    3MOL   H281 2685   5.140   0.953   2.627  0.9862 -0.2535 -0.5293
    3MOL   H282 2686   5.032   0.812   2.388 -1.8409  0.3550  2.7706
    3MOL   H283 2687   5.018   0.978   2.408 -0.3630 -0.8573 -1.6477
    3MOL   H284 2688   5.308   0.875   2.406 -1.1841 -2.3796 -1.0507
    3MOL   H285 2689   5.230   0.931   2.268 -0.3855  3.6978 -0.2243
    3MOL   H286 2690   5.296   1.297   2.508  2.6558 -1.1982 -0.0331
    3MOL   H287 2691   5.239   1.408   2.371  1.0222 -0.3067  0.3309
    3MOL   H288 2692   5.448   1.452   2.394 -0.4049 -0.0027  2.2713
    3MOL   H289 2693   5.461   1.335   2.267 -0.1053 -1.7690  0.7903
    3MOL   H290 2694   5.533   1.156   2.422 -1.7823  0.2691  0.1391
    3MOL   H291 2695   5.492   1.245   2.567 -3.3078  0.7200 -0.4361
    3MOL   H292 2696   5.683   1.423   2.482  1.5382  0.7574 -0.1861
    3MOL   H293 2697   5.725   1.281   2.385 -2.1650  0.1935 -0.9209
    3MOL   H294 2698   5.700   1.284   2.699  0.4168  1.4906 -0.2313
    3MOL   H295 2699   5.749   1.150   2.596  1.8039 -0.1418 -3.1083
    3MOL   H296 2700   5.940   1.299   2.524 -0.9913  0.9639 -1.2598
    3MOL   H297 2701   5.883   1.429   2.625 -0.7001  0.4960  2.0259
    3MOL   H298 2702   5.985   1.152   2.720 -0.6634  0.0462 -0.9291
    3MOL   H299 2703   5.944   1.281   2.826  0.5941  1.2240  0.1320
    3MOL   H300 2704   6.189   1.258   2.797  1.1916  1.4109  0.0814
    3MOL   H301 2705   6.174   1.306   2.628  1.6366 -0.3959 -0.1359
    3MOL   O302 2706   6.130   1.467   2.912  0.0540  0.2520  0.3586
    3MOL   C303 2707   6.127   1.591   2.981  0.2027 -0.0924  0.3225
    3MOL   C304 2708   6.275   1.634   3.000  0.7085  0.3562 -0.3465
    3MOL   C305 2709   6.341   1.549   3.108  0.1461  0.3272  0.3723
    3MOL   C306 2710   6.488   1.584   3.145  1.0377  0.1840 -0.2026
    3MOL   C307 2711   6.593   1.592   3.029  0.3112  0.0508 -0.5446
    3MOL   C308 2712   6.740   1.622   3.065  0.4175  0.3897 -0.1264
    3MOL   C309 2713   6.838   1.623   2.944  0.7837  0.2485  0.6174
    3MOL   C310 2714   6.983   1.648   2.982  0.4262  0.0761 -0.5067
    3MOL   C311 2715   7.080   1.695   2.871  0.2208 -0.8411 -0.0979
    3MOL   C312 2716   7.229   1.700   2.919 -0.0518 -0.3738 -0.1072
    3MOL   O313 2717   7.289   1.578   2.912 -0.5038  0.3893  0.0731
    3MOL   C314 2718   7.319   1.504   2.803  0.3041 -0.1235  0.6736
    3MOL   O315 2719   7.301   1.533   2.682 -0.2487  0.7335  0.0994
    3MOL   C316 2720   7.395   1.375   2.850  0.1862  0.0267 -0.0069
    3MOL   C317 2721   7.505   1.321   2.748  0.0921  0.3000 -0.3160
    3MOL   C318 2722   7.450   1.272   2.618 -0.4886 -0.6113 -0.3327
    3MOL   C319 2723   7.552   1.189   2.545 -0.3544  0.3389  0.6051
    3MOL   C320 2724   7.517   1.157   2.403 -0.0592 -0.4293 -0.8679
    3MOL   C321 2725   7.618   1.072   2.329 -0.4070  0.1277  1.1353
    3MOL   C322 2726   7.634   0.928   2.376  0.2270  0.3848 -0.1971
    3MOL   C323 2727   7.737   0.847   2.294 -0.3696 -0.3840  0.1539
    3MOL   C324 2728   0.124   0.866   2.336 -0.8530 -0.1412 -0.5822
    3MOL   O325 2729   0.148   0.823   2.451 -0.0750  0.5497 -0.0846
    3MOL   H326 2730   6.068   1.662   2.923  0.1955 -3.0171 -3.4218
    3MOL   H327 2731   6.096   1.578   3.085 -0.8731  0.0710  0.0262
    3MOL   H328 2732   6.335   1.618   2.910 -2.1741  1.3436 -2.5260
    3MOL   H329 2733   6.271   1.737   3.035 -0.1460 -0.3539  1.6988
    3MOL   H330 2734   6.278   1.561   3.196 -0.9000  0.4635 -0.3880
    3MOL   H331 2735   6.332   1.445   3.075  0.4253  0.1003  1.0001
    3MOL   H332 2736   6.496   1.680   3.196 -2.3850 -0.1275  1.0714
    3MOL   H333 2737   6.520   1.518   3.225 -1.1716 -0.0052  0.5632
    3MOL   H334 2738   6.565   1.679   2.971 -2.6096  0.8358  1.8854
    3MOL   H335 2739   6.584   1.509   2.959 -0.5419 -2.3522  2.2880
    3MOL   H336 2740   6.772   1.549   3.139 -0.1892 -0.7755 -0.9869
    3MOL   H337 2741   6.742   1.720   3.112 -2.2046 -0.8776  2.8670
    3MOL   H338 2742   6.805   1.700   2.873 -3.1420 -0.3582  1.6638
    3MOL   H339 2743   6.831   1.528   2.890  1.0361  0.9397 -0.6625
    3MOL   H340 2744   7.016   1.553   3.023  2.0904  0.2857 -1.2974
    3MOL   H341 2745   6.989   1.722   3.062  2.8306  0.6835 -1.2147
    3MOL   H342 2746   7.071   1.644   2.776  0.3411  1.2225 -1.2392
    3MOL   H343 2747   7.053   1.798   2.846  1.6660 -0.1080  1.1903
    3MOL   H344 2748   7.286   1.760   2.848  0.2192  1.6162  1.7456
    3MOL   H345 2749   7.248   1.731   3.022 -0.1000 -0.5019 -0.0598
    3MOL   H346 2750   7.324   1.299   2.884  0.6483 -1.2166 -1.7529
    3MOL   H347 2751   7.461   1.410   2.930  0.6874  2.7576 -1.5876
    3MOL   H348 2752   7.568   1.253   2.807  0.3486  0.2210 -0.6802
    3MOL   H349 2753   7.575   1.402   2.731  2.0845 -1.6717 -1.8458
    3MOL   H350 2754   7.413   1.359   2.563 -0.1816 -0.3692 -0.1570
    3MOL   H351 2755   7.363   1.208   2.629 -0.1127 -1.2262 -0.8753
    3MOL   H352 2756   7.553   1.094   2.598 -0.2189  0.2524  0.4463
    3MOL   H353 2757   7.649   1.239   2.555  0.7161 -1.6734  0.4652
    3MOL   H354 2758   7.419   1.110   2.397 -0.9841  1.6777 -3.0667
    3MOL   H355 2759   7.501   1.253   2.355  1.3772  0.7081  0.8568
    3MOL   H356 2760   7.578   1.070   2.228 -0.8454  0.7608  1.2903
    3MOL   H357 2761   7.709   1.132   2.326 -0.5855  0.3381 -0.4749
    3MOL   H358 2762   7.537   0.879   2.370 -0.3145  1.0979  2.4088
    3MOL   H359 2763   7.659   0.942   2.481  0.2047 -1.1356  0.0114
    3MOL   H360 2764   7.716   0.741   2.309  1.0260 -1.2137 -3.2414
    3MOL   H361 2765   7.717   0.858   2.187  1.0626 -1.5399 -0.2600
    3MOL   O362 2766   0.201   0.940   2.254  0.7165 -0.0403 -0.1128
    3MOL   C363 2767   0.335   0.984   2.286 -0.1305  0.3916  0.4176
    3MOL   C364 2768   0.365   1.114   2.216 -0.3407 -0.6864 -0.0650
    3MOL   C365 2769   0.347   1.109   2.063  0.1195 -0.1437 -0.3290
    3MOL   C366 2770   0.419   1.234   1.998 -0.2762  0.2115 -0.3155
    3MOL   C367 2771   0.464   1.218   1.850 -0.3144  1.0231 -0.2179
    3MOL   C368 2772   0.363   1.217   1.737 -0.0259  0.0423 -0.4114
    3MOL   C369 2773   0.417   1.137   1.614 -0.2127 -0.1020 -0.6646
    3MOL   C370 2774   0.315   1.138   1.500  0.4289  0.3922  0.4418
    3MOL   C371 2775   0.340   1.028   1.389 -0.2039  0.6223  0.1481
    3MOL   C372 2776   0.212   0.990   1.306 -1.1632 -0.2094  0.2825
    3MOL   O373 2777   0.143   1.110   1.277 -0.0367  0.0928  0.2157
    3MOL   C374 2778   0.009   1.116   1.296 -0.0108  0.2433 -0.5049
    3MOL   O375 2779   7.696   1.021   1.331  0.0344 -0.3349  0.7400
    3MOL   C376 2780   7.707   1.254   1.285  0.8053  0.4400 -0.5038
    3MOL   C377 2781   7.571   1.274   1.356  0.4671 -0.0083 -0.3705
    3MOL   C378 2782   7.514   1.418   1.329 -0.1048 -0.3678  0.1503
    3MOL   C379 2783   7.386   1.446   1.404 -0.3915  0.8698 -0.7202
    3MOL   C380 2784   7.403   1.457   1.558  0.2078  0.4340  0.8184
    3MOL   C381 2785   7.451   1.587   1.620 -0.6900  0.2183 -0.1999
    3MOL   C382 2786   7.420   1.585   1.768 -0.2130 -0.2367 -0.3449
    3MOL   C383 2787   7.422   1.719   1.847 -0.7804 -1.0408  0.1711
    3MOL   C384 2788   7.554   1.781   1.872 -0.3397 -0.0305 -0.7501
    3MOL   O385 2789   7.625   1.753   1.970 -0.2665  0.4688  0.6491
    3MOL   H386 2790   0.339   1.006   2.393  1.9983  0.6123  0.3118
    3MOL   H387 2791   0.392   0.897   2.255  1.0953  0.5737  2.0924
    3MOL   H388 2792   0.286   1.181   2.248 -0.7398 -1.7840  1.2740
    3MOL   H389 2793   0.465   1.147   2.245  0.1076 -1.8664 -0.2276
    3MOL   H390 2794   0.390   1.019   2.019 -2.2487 -2.0175  1.1005
    3MOL   H391 2795   0.239   1.109   2.046  0.1897 -1.6898 -0.8919
    3MOL   H392 2796   0.344   1.312   2.003 -1.2156 -0.6949 -0.1141
    3MOL   H393 2797   0.509   1.271   2.048 -0.2050  1.7971 -1.5700
    3MOL   H394 2798   0.525   1.127   1.845  0.3543  1.5686 -2.4206
    3MOL   H395 2799   0.548   1.281   1.821  0.4160 -0.1828 -0.7860
    3MOL   H396 2800   0.333   1.318   1.708  0.9324  0.2421 -0.7418
    3MOL   H397 2801   0.264   1.180   1.764 -0.3865 -0.0860 -1.8654
    3MOL   H398 2802   0.442   1.034   1.641  0.7681  0.7024  1.6925
    3MOL   H399 2803   0.509   1.184   1.579 -0.9153  2.5840  0.9895
    3MOL   H400 2804   0.286   1.240   1.473  0.5043  0.5047  0.7880
    3MOL   H401 2805   0.224   1.108   1.551  0.2874 -0.3076 -0.2135
    3MOL   H402 2806   0.426   1.055   1.328  1.5122  0.5121  2.4418
    3MOL   H403 2807   0.375   0.938   1.439  2.6905  0.9419 -1.2549
    3MOL   H404 2808   0.242   0.947   1.211  0.3340 -1.7919  1.4397
    3MOL   H405 2809   0.156   0.908   1.352 -0.0835 -1.2438 -0.2505
    3MOL   H406 2810   7.686   1.278   1.181  0.1064 -2.2483 -1.0356
    3MOL   H407 2811   0.033   1.322   1.303 -0.3519  1.6224  0.4078
    3MOL   H408 2812   7.583   1.246   1.460 -1.0061  1.6341  0.2675
    3MOL   H409 2813   7.496   1.203   1.320 -1.7957  1.4597  1.3073
    3MOL   H410 2814   7.491   1.430   1.224  3.9259  4.4491 -0.3553
    3MOL   H411 2815   7.584   1.500   1.345  0.2080  0.0425 -3.1347
    3MOL   H412 2816   7.319   1.362   1.384  1.2759 -0.7080  0.1046
    3MOL   H413 2817   7.344   1.536   1.358 -1.2742  1.6596  1.5685
    3MOL   H414 2818   7.310   1.426   1.604 -0.1705 -0.7580 -0.7277
    3MOL   H415 2819   7.471   1.377   1.588 -0.7553 -0.6560  0.0932
    3MOL   H416 2820   7.553   1.611   1.591  0.1452 -0.8367  1.7911
    3MOL   H417 2821   7.405   1.674   1.574 -0.4566  0.1145 -0.6367
    3MOL   H418 2822   7.466   1.500   1.818  1.8258  1.2197  0.3535
    3MOL   H419 2823   7.315   1.564   1.785 -0.3480  1.6941  1.5180
    3MOL   H420 2824   7.377   1.804   1.796  0.0922 -0.2430  0.6997
    3MOL   H421 2825   7.384   1.711   1.949 -1.7038 -1.3037 -0.1914
    3MOL   O422 2826   7.592   1.869   1.773 -0.1694 -0.0463  0.0509
    3MOL   C423 2827   7.704   1.949   1.794  0.0772  0.7830 -0.0340
    3MOL   C424 2828   7.677   2.097   1.760  0.8436  0.2682  0.8279
    3MOL   C425 2829   0.060   2.169   1.761  0.1901 -0.4657 -0.4582
    3MOL   C426 2830   0.045   2.319   1.731  0.5601 -0.4370  0.1388
    3MOL   C427 2831   7.746   2.363   1.593 -0.3324  0.0886  0.3124
    3MOL   C428 2832   7.734   2.516   1.567 -0.1488  0.3501 -0.7187
    3MOL   C429 2833   7.629   2.541   1.460 -0.1827  0.1742 -0.0020
    3MOL   C430 2834   7.635   2.690   1.408 -0.7377 -0.1131  0.6090
    3MOL   C431 2835   7.520   2.748   1.317 -0.1003 -0.4688 -0.3804
    3MOL   C432 2836   7.526   2.694   1.172 -0.4714 -0.0173 -0.0582
    3MOL   O433 2837   7.418   2.741   1.104  0.3077 -0.3587  1.0826
    3MOL   C434 2838   7.445   2.798   0.986 -0.3301  0.5029 -0.3803
    3MOL   O435 2839   7.556   2.821   0.939  0.4942  0.0476 -0.1518
    3MOL   C436 2840   7.324   2.847   0.910 -0.3408  0.4639 -0.0263
    3MOL   C437 2841   7.327   2.829   0.758  0.1415 -0.0383  0.2043
    3MOL   C438 2842   7.306   2.682   0.718 -0.2559  0.9064  0.0320
    3MOL   C439 2843   7.433   2.584   0.725  0.2969  0.0744 -0.2942
    3MOL   C440 2844   7.416   2.469   0.617  0.3290  0.2983 -0.5221
    3MOL   C441 2845   7.500   2.345   0.628 -0.4294 -0.0982 -0.2722
    3MOL   C442 2846   7.508   2.267   0.496 -0.0179  0.0393  0.1833
    3MOL   C443 2847   7.607   2.322   0.396  0.2484 -0.0052  1.0472
    3MOL   C444 2848   7.589   2.262   0.260 -0.4254  1.0506  0.0089
    3MOL   O445 2849   7.654   2.157   0.227  0.3593 -0.3346  0.2647
    3MOL   H446 2850   7.754   1.930   1.890  1.0827 -4.0761 -1.3806
    3MOL   H447 2851   0.026   1.924   1.723  0.5322  0.9011  0.4241
    3MOL   H448 2852   7.621   2.102   1.667  1.3666  0.8548  0.5407
    3MOL   H449 2853   7.611   2.147   1.832  0.6256  0.9932  0.1287
    3MOL   H450 2854   0.100   2.165   1.862 -0.8499 -0.4819 -0.0446
    3MOL   H451 2855   0.132   2.121   1.694  0.3810  0.4441 -0.9092
    3MOL   H452 2856   7.721   2.354   1.797 -0.0580 -1.4305 -0.0771
    3MOL   H453 2857   0.137   2.373   1.750  0.2992  0.1386 -0.2327
    3MOL   H454 2858   7.648   2.317   1.596  0.0485 -0.6708  1.6652
    3MOL   H455 2859   0.060   2.322   1.520 -0.8575  0.6661 -0.5231
    3MOL   H456 2860   0.075   2.540   1.524 -0.7037  2.1141 -1.0409
    3MOL   H457 2861   7.721   2.569   1.661  1.8265 -1.6269  0.7130
    3MOL   H458 2862   7.531   2.516   1.501 -0.5705 -0.0079 -1.0454
    3MOL   H459 2863   7.645   2.477   1.374 -0.2812 -1.4988  1.1939
    3MOL   H460 2864   7.740   2.717   1.396 -0.8934  0.9550  1.5975
    3MOL   H461 2865   7.612   2.754   1.494 -0.6258 -0.6427  1.0359
    3MOL   H462 2866   7.423   2.715   1.355  0.4417 -2.8353 -0.9714
    3MOL   H463 2867   7.528   2.857   1.316 -0.4720 -0.4098  1.6286
    3MOL   H464 2868   7.623   2.718   1.130  1.1170 -1.3106  2.7421
    3MOL   H465 2869   7.519   2.585   1.175 -0.3766 -0.0623 -1.1774
    3MOL   H466 2870   7.317   2.954   0.927  0.2692  0.4765  0.1663
    3MOL   H467 2871   7.235   2.800   0.951  0.3890 -1.4260 -0.5488
    3MOL   H468 2872   7.420   2.863   0.711 -1.0658  2.2444 -0.6016
    3MOL   H469 2873   7.242   2.890   0.728 -0.8659 -0.6786  1.6968
    3MOL   H470 2874   7.257   2.685   0.621  0.8242 -2.7359 -0.6735
    3MOL   H471 2875   7.215   2.647   0.767  1.0506 -1.2382  0.9915
    3MOL   H472 2876   7.442   2.534   0.821  1.6532  0.4313 -0.2262
    3MOL   H473 2877   7.521   2.647   0.732  0.9301 -0.9136  0.6638
    3MOL   H474 2878   7.310   2.444   0.612  0.3893 -0.4896  1.5917
    3MOL   H475 2879   7.451   2.524   0.530 -1.0238  3.1157  0.6145
    3MOL   H476 2880   7.602   2.370   0.654 -0.5384 -0.0353  0.1100
    3MOL   H477 2881   7.465   2.280   0.709 -0.1769  2.7879  2.2489
    3MOL   H478 2882   7.409   2.281   0.454 -0.0279  0.4033  0.3246
    3MOL   H479 2883   7.526   2.161   0.516 -1.0093 -0.2001 -0.2078
    3MOL   H480 2884   7.595   2.429   0.378  1.2308  0.2002  1.5714
    3MOL   H481 2885   7.707   2.301   0.434 -0.2718  0.4562  2.7187
    3MOL   O482 2886   7.501   2.317   0.178  0.7040  0.0982 -0.3694
    3MOL   C483 2887   7.463   2.250   0.057  0.4755 -0.1941  0.0498
    3MOL   C484 2888   7.499   2.352   7.696 -0.4251 -0.4581 -0.0729
    3MOL   C485 2889   7.652   2.382   7.672  0.4555  0.9294 -0.1434
    3MOL   C486 2890   7.684   2.505   7.589  0.1157 -0.0228  0.0845
    3MOL   C487 2891   7.575   2.537   7.478  0.5876 -0.1542 -0.1031
    3MOL   C488 2892   7.631   2.610   7.361 -0.2156 -0.4925 -0.1373
    3MOL   C489 2893   7.692   2.744   7.410  0.2876 -0.1753 -0.2417
    3MOL   C490 2894   7.699   2.853   7.299 -0.2845  0.9185  0.5682
    3MOL   C491 2895   7.714   3.001   7.346  0.1534 -0.0869 -0.3347
    3MOL   C492 2896   7.706   3.098   7.227 -0.2373  0.7781  0.7345
    3MOL   O493 2897   7.754   3.228   7.261 -0.1502  0.5463  0.4137
    3MOL   C494 2898   7.707   3.336   7.208  0.3961 -0.3554 -0.0088
    3MOL   O495 2899   7.609   3.337   7.135 -0.1954  0.2974 -0.7293
    3MOL   C496 2900   0.030   3.465   7.236  0.3590  0.4266 -0.6919
    3MOL   C497 2901   7.747   3.584   7.153 -0.5578 -0.5709  0.6141
    3MOL   C498 2902   7.615   3.646   7.173  0.5349 -0.5720  0.1728
    3MOL   C499 2903   7.595   3.768   7.085  0.1236 -0.1377 -0.2623
    3MOL   C500 2904   7.448   3.805   7.071  0.2886  0.5550  0.9740
    3MOL   C501 2905   7.397   3.897   7.187  0.2588  0.2563  0.2671
    3MOL   C502 2906   7.261   3.958   7.160 -0.2737  0.6680  0.0798
    3MOL   C503 2907   7.145   3.885   7.231  0.4067 -0.8505 -0.2093
    3MOL   C504 2908   7.117   3.738   7.183  0.5291  0.2366  0.3065
    3MOL   O505 2909   7.123   3.649   7.264 -0.2976 -0.3418 -0.4188
    3MOL   H506 2910   7.505   2.152   0.033 -1.7545 -1.4205  0.9884
    3MOL   H507 2911   7.354   2.241   0.060  0.2619  2.4209  1.1007
    3MOL   H508 2912   7.462   2.321   7.599  0.2324 -1.0026 -0.1514
    3MOL   H509 2913   7.453   2.446   7.728  0.5927 -0.2651  0.8791
    3MOL   H510 2914   7.695   2.385   0.016 -0.6671  0.2036  0.3827
    3MOL   H511 2915   7.687   2.298   7.613 -0.4452  1.6021 -1.6449
    3MOL   H512 2916   7.694   2.598   7.646 -1.4349 -0.3900  0.9881
    3MOL   H513 2917   0.020   2.477   7.540  0.6991  1.2516  0.4137
    3MOL   H514 2918   7.498   2.601   7.521  2.5616  1.8664  0.5176
    3MOL   H515 2919   7.531   2.446   7.438  1.6978  0.4680 -2.9077
    3MOL   H516 2920   7.554   2.628   7.286 -2.6502 -0.5078  2.2840
    3MOL   H517 2921   7.715   2.553   7.322 -0.7012 -2.6532  1.8949
    3MOL   H518 2922   0.029   2.731   7.463  1.1195  0.3439 -1.5620
    3MOL   H519 2923   7.630   2.780   7.492 -0.5165  1.8567 -1.6868
    3MOL   H520 2924   7.604   2.853   7.246 -0.6204 -0.4689  1.1708
    3MOL   H521 2925   0.017   2.829   7.223 -0.8908 -0.9131  0.5250
    3MOL   H522 2926   7.643   3.036   7.421  0.9948  1.7979 -0.3672
    3MOL   H523 2927   0.054   3.010   7.394 -0.5974  0.1337  1.1579
    3MOL   H524 2928   7.752   3.065   7.134 -2.0056 -0.4349  0.2666
    3MOL   H525 2929   7.600   3.108   7.204 -0.5479  2.9008  2.8848
    3MOL   H526 2930   0.133   3.438   7.214 -0.0417 -0.3761 -1.6083
    3MOL   H527 2931   0.016   3.484   7.343  2.5226 -1.8322  0.0391
    3MOL   H528 2932   7.753   3.550   7.050 -0.1998 -3.5294  1.5489
    3MOL   H529 2933   0.064   3.663   7.169  0.0405 -0.7171 -1.2819
    3MOL   H530 2934   7.603   3.672   7.278  1.1956  0.2214  0.0623
    3MOL   H531 2935   7.532   3.581   7.146 -1.5350  2.6546 -1.5926
    3MOL   H532 2936   7.623   3.744   6.983  1.9249 -0.5937  0.3327
    3MOL   H533 2937   7.660   3.849   7.117 -0.5160  0.4409 -0.4109
    3MOL   H534 2938   7.450   3.866   6.980 -1.7744 -0.7631 -0.0046
    3MOL   H535 2939   7.391   3.718   7.038 -1.7151  1.5689  1.7153
    3MOL   H536 2940   7.407   3.839   7.278 -0.4702 -1.4300 -0.7091
    3MOL   H537 2941   7.463   3.983   7.195 -1.2763  1.5091 -0.2721
    3MOL   H538 2942   7.234   3.965   7.055 -1.4823  3.7436  0.5381
    3MOL   H539 2943   7.257   4.060   7.200  3.9632  0.5502  0.9760
    3MOL   H540 2944   7.165   3.893   7.338  0.9872  0.4376 -0.4110
    3MOL   H541 2945   7.059   3.951   7.216  0.6349 -0.3995  0.4599
    3MOL   O542 2946   7.079   3.719   7.056  0.2555  0.2192 -0.2534
    3MOL   C543 2947   7.048   3.589   7.008 -0.3483  0.5047  0.5420
    3MOL   C544 2948   7.042   3.587   6.854 -0.4978 -0.0597 -0.5134
    3MOL   C545 2949   7.173   3.609   6.780 -0.2758  1.1527 -0.9366
    3MOL   C546 2950   7.287   3.516   6.830 -0.4686  0.0078  0.4163
    3MOL   C547 2951   7.414   3.541   6.748  0.4523  0.0169 -0.3421
    3MOL   C548 2952   7.535   3.478   6.814 -0.4753 -0.5194  0.3608
    3MOL   C549 2953   7.680   3.518   6.769  0.5132 -0.0395 -0.0479
    3MOL   C550 2954   7.719   3.508   6.620 -0.0394 -0.0430 -1.3302
    3MOL   C551 2955   0.109   3.516   6.593  0.2001  0.0177  0.0345
    3MOL   C552 2956   0.138   3.504   6.433  0.1354 -0.2302  0.3205
    3MOL   O553 2957   0.273   3.509   6.401  0.7536  0.6850 -0.1843
    3MOL   C554 2958   0.312   3.504   6.281  0.4445 -0.9519  0.3177
    3MOL   O555 2959   0.241   3.517   6.184 -0.4595 -0.0908 -0.2159
    3MOL   C556 2960   0.462   3.496   6.271  1.0123 -0.6227  0.0643
    3MOL   C557 2961   0.541   3.629   6.295  0.1572 -0.2414 -0.9100
    3MOL   C558 2962   0.582   3.686   6.156 -0.4443 -0.2691  1.1488
    3MOL   C559 2963   0.708   3.623   6.080 -0.1512  0.1248  0.1994
    3MOL   C560 2964   0.844   3.627   6.158 -0.2864  0.8208  0.1728
    3MOL   C561 2965   0.953   3.562   6.087 -0.0736  0.3983 -0.1865
    3MOL   C562 2966   1.080   3.548   6.168 -0.1571  0.7594 -0.0519
    3MOL   C563 2967   1.204   3.519   6.077  0.2309 -0.2847 -0.0249
    3MOL   C564 2968   1.206   3.379   6.022 -0.0135  0.0114 -0.6712
    3MOL   O565 2969   1.303   3.304   6.038 -0.3007  0.1558 -0.1557
    3MOL   H566 2970   7.123   3.524   7.051  0.9887  0.5977 -1.5997
    3MOL   H567 2971   6.954   3.554   7.051  0.1603 -1.3379  0.1860
    3MOL   H568 2972   7.015   3.485   6.827  1.0008  0.0445 -2.5601
    3MOL   H569 2973   6.964   3.658   6.825 -0.0895  0.3049 -0.7227
    3MOL   H570 2974   7.180   3.595   6.672 -2.5423  0.5962 -1.0471
    3MOL   H571 2975   7.221   3.707   6.792  0.8270  0.7278 -1.8173
    3MOL   H572 2976   7.312   3.550   6.931  0.9373 -1.6682  0.6582
    3MOL   H573 2977   7.256   3.412   6.839  1.0277 -0.4580  0.3855
    3MOL   H574 2978   7.422   3.649   6.759  0.3139 -0.1847  1.8968
    3MOL   H575 2979   7.409   3.513   6.643 -1.0872  2.1066 -0.8790
    3MOL   H576 2980   7.525   3.370   6.799  1.0938 -0.3174 -2.6387
    3MOL   H577 2981   7.531   3.496   6.921  1.6703  0.2628  0.3361
    3MOL   H578 2982   7.745   3.450   6.825 -1.0787 -0.0329  1.8650
    3MOL   H579 2983   7.705   3.612   6.817  0.0157  0.0826 -0.0254
    3MOL   H580 2984   7.667   3.587   6.565 -2.4319  0.1245  1.0693
    3MOL   H581 2985   7.668   3.422   6.576 -0.8588  0.1990 -0.8670
    3MOL   H582 2986   0.145   3.614   6.623 -1.3310  0.9138 -0.9809
    3MOL   H583 2987   0.166   3.441   6.648  0.1502 -0.0782 -0.0444
    3MOL   H584 2988   0.102   3.411   6.389  0.6787 -0.5203  0.4798
    3MOL   H585 2989   0.102   3.591   6.378  2.2930 -0.5195 -1.6196
    3MOL   H586 2990   0.474   3.456   6.170 -0.4362  0.6821 -0.6365
    3MOL   H587 2991   0.499   3.422   6.343  1.6978  0.1304  0.4919
    3MOL   H588 2992   0.629   3.620   6.359 -1.4948 -1.8148  1.2099
    3MOL   H589 2993   0.478   3.698   6.351  1.0389 -0.2248  0.0797
    3MOL   H590 2994   0.616   3.785   6.186  1.0087 -0.6119  0.6695
    3MOL   H591 2995   0.493   3.698   6.095  0.1782  2.3337  0.6980
    3MOL   H592 2996   0.712   3.680   5.987  1.5260 -0.7275 -0.2614
    3MOL   H593 2997   0.693   3.522   6.043  0.1606  0.2756 -0.3501
    3MOL   H594 2998   0.849   3.729   6.194  0.3258  0.8597 -0.0293
    3MOL   H595 2999   0.817   3.576   6.252  2.1658 -2.1492 -0.6411
    3MOL   H596 3000   0.917   3.463   6.061  0.5045  0.3572 -0.8547
    3MOL   H597 3001   0.983   3.600   5.989 -2.4278 -0.6721 -1.3583
    3MOL   H598 3002   1.089   3.474   6.248 -1.0572  3.2833  2.4629
    3MOL   H599 3003   1.098   3.646   6.211  0.0364  0.0581  1.4962
    3MOL   H600 3004   1.221   3.585   5.992 -1.1573 -1.7019 -1.4270
    3MOL   H601 3005   1.300   3.528   6.128  1.0105 -0.4122 -1.4478
    3MOL   O602 3006   1.097   3.363   5.940 -0.4901 -0.0550 -0.3157
    3MOL   C603 3007   1.091   3.250   5.861 -0.3092  1.1759 -0.0050
    3MOL   C604 3008   0.943   3.203   5.837  0.5686  0.6984  0.0470
    3MOL   C605 3009   0.859   3.307   5.768 -0.6389  0.3701  0.2956
    3MOL   C606 3010   0.712   3.262   5.762 -0.2801 -0.1333  0.3616
    3MOL   C607 3011   0.621   3.348   5.679 -0.2843  0.4868 -0.3531
    3MOL   C608 3012   0.597   3.490   5.738 -0.1276  0.1298 -0.4275
    3MOL   C609 3013   0.505   3.574   5.652 -0.2036 -0.1399 -0.1028
    3MOL   C610 3014   0.478   3.707   5.706  0.4267 -0.1513 -0.2525
    3MOL   C611 3015   0.384   3.801   5.624 -0.6464  1.0092  0.1378
    3MOL   C612 3016   0.354   3.934   5.690  0.1511 -0.5145  0.3944
    3MOL   O613 3017   0.456   4.022   5.684 -0.0311  0.3426 -0.1049
    3MOL   C614 3018   0.435   4.143   5.621 -0.3870  0.1810  0.8786
    3MOL   O615 3019   0.335   4.163   5.551 -0.3334 -0.3035 -0.5696
    3MOL   C616 3020   0.527   4.257   5.657 -0.5307  0.5229 -0.2118
    3MOL   C617 3021   0.632   4.257   5.537  0.1149  0.3625  1.2106
    3MOL   C618 3022   0.759   4.181   5.567 -0.8329  0.6427  0.1786
    3MOL   C619 3023   0.893   4.227   5.503  0.1436 -0.7854  0.7378
    3MOL   C620 3024   0.922   4.206   5.350  0.5189  0.4156 -0.3436
    3MOL   C621 3025   0.897   4.065   5.294  0.9094  0.6325  0.3153
    3MOL   C622 3026   0.990   3.962   5.353  0.2717 -0.6416 -0.2991
    3MOL   C623 3027   0.961   3.817   5.292 -0.4618  0.0176  0.2372
    3MOL   C624 3028   0.831   3.750   5.327  0.8053  0.1502 -0.6746
    3MOL   O625 3029   0.757   3.798   5.416  0.4696 -0.0209 -0.7895
    3MOL   H626 3030   1.151   3.265   5.772 -0.2498  1.9653  0.1662
    3MOL   H627 3031   1.145   3.163   5.898  0.5941  1.2129 -1.2081
    3MOL   H628 3032   0.939   3.111   5.778 -0.1812  0.4705  0.4523
    3MOL   H629 3033   0.900   3.176   5.934 -0.0014  0.1357 -0.3516
    3MOL   H630 3034   0.859   3.400   5.825  0.2666  0.7291 -0.2880
    3MOL   H631 3035   0.902   3.311   5.668  0.2507 -1.7018  0.5711
    3MOL   H632 3036   0.721   3.168   5.709 -1.6339 -0.4523  0.6698
    3MOL   H633 3037   0.674   3.230   5.859  0.1517  0.0447  0.5910
    3MOL   H634 3038   0.523   3.303   5.665 -1.2879  1.8220  2.0854
    3MOL   H635 3039   0.657   3.343   5.576 -0.0589 -0.4277 -0.2354
    3MOL   H636 3040   0.691   3.544   5.734 -0.0946 -0.0367 -2.3210
    3MOL   H637 3041   0.564   3.475   5.841 -0.3178 -0.6781 -0.6011
    3MOL   H638 3042   0.411   3.520   5.639  1.4161 -3.2724  0.5974
    3MOL   H639 3043   0.542   3.583   5.550  1.2080  0.3853  0.4532
    3MOL   H640 3044   0.574   3.757   5.713 -0.0385  0.7676 -0.3523
    3MOL   H641 3045   0.437   3.680   5.803 -1.3096 -0.1729 -0.9753
    3MOL   H642 3046   0.415   3.799   5.519 -1.5796  0.1850 -0.1314
    3MOL   H643 3047   0.289   3.758   5.593  0.4675 -1.5221  0.1025
    3MOL   H644 3048   0.260   3.977   5.656  1.3369  0.5264 -1.6901
    3MOL   H645 3049   0.320   3.913   5.791  0.1852 -0.4511  0.4187
    3MOL   H646 3050   0.574   4.244   5.755  0.3939  3.9144 -0.1533
    3MOL   H647 3051   0.471   4.349   5.667  0.2469  1.0422 -0.5775
    3MOL   H648 3052   0.650   4.357   5.497  1.5426  0.0549  1.0903
    3MOL   H649 3053   0.586   4.210   5.449  2.0347 -2.7811  1.8275
    3MOL   H650 3054   0.743   4.075   5.545 -3.0019  0.3728  2.7983
    3MOL   H651 3055   0.762   4.175   5.676  0.7917 -0.0306  0.1231
    3MOL   H652 3056   0.976   4.190   5.562  1.0636 -1.9133 -1.2101
    3MOL   H653 3057   0.884   4.334   5.522 -1.2479 -0.2836 -2.4010
    3MOL   H654 3058   0.860   4.280   5.299  2.4323  2.4488  0.2227
    3MOL   H655 3059   1.028   4.224   5.335  0.7835 -1.0164 -0.2283
    3MOL   H656 3060   0.794   4.047   5.327  0.9915  3.9053  2.6624
    3MOL   H657 3061   0.900   4.069   5.186 -3.7221 -2.0980 -0.0465
    3MOL   H658 3062   0.975   3.945   5.460 -0.1704  0.3403 -0.2018
    3MOL   H659 3063   1.090   3.999   5.330 -0.6142  1.1128 -1.4096
    3MOL   H660 3064   0.967   3.831   5.184  0.2754  0.9572  0.3837
    3MOL   H661 3065   1.048   3.757   5.320 -0.4680 -0.5275 -0.9183
    3MOL   O662 3066   0.803   3.643   5.250  0.2197 -0.4847 -0.1483
    3MOL   C663 3067   0.688   3.565   5.276  0.0325 -0.2420  0.9386
    3MOL   C664 3068   0.739   3.425   5.258 -0.4017  0.0257  0.6585
    3MOL   C665 3069   0.872   3.403   5.328 -0.1920  0.8466 -0.3748
    3MOL   C666 3070   0.932   3.265   5.330  0.1948  0.2923  0.2906
    3MOL   C667 3071   0.841   3.142   5.322 -0.7005 -0.2094 -1.0361
    3MOL   C668 3072   0.909   3.022   5.402 -0.2987 -0.1765  0.6105
    3MOL   C669 3073   0.812   2.900   5.402  0.2905 -0.4839 -0.0108
    3MOL   C670 3074   0.873   2.808   5.500 -0.0222  0.4886 -0.2683
    3MOL   C671 3075   0.796   2.677   5.529 -0.1805  0.0053  0.7300
    3MOL   C672 3076   0.852   2.602   5.648 -0.1646  0.1859  0.1479
    3MOL   O673 3077   0.783   2.482   5.665  0.2755  0.4402 -0.0765
    3MOL   C674 3078   0.838   2.389   5.747 -0.4963  0.0695  0.3883
    3MOL   O675 3079   0.951   2.397   5.796  0.0835  0.1385 -0.8006
    3MOL   C676 3080   0.738   2.277   5.782  0.4400  0.3961 -0.1667
    3MOL   C677 3081   0.806   2.146   5.835  0.1238  0.2401  0.2731
    3MOL   C678 3082   0.905   2.080   5.740 -0.3020 -0.5243 -0.1417
    3MOL   C679 3083   0.978   1.960   5.791  0.0651 -0.1346 -0.0013
    3MOL   C680 3084   1.111   1.934   5.718 -0.0000  0.1358  0.2242
    3MOL   C681 3085   1.185   1.808   5.767  0.0965 -0.1960  0.0871
    3MOL   C682 3086   1.339   1.828   5.762 -0.3066 -0.0498 -0.5551
    3MOL   C683 3087   1.439   1.713   5.798 -0.7720 -0.0514 -0.0356
    3MOL   C684 3088   1.419   1.655   5.940 -0.2825  0.3663  0.0506
    3MOL   O685 3089   1.436   1.721   6.040  0.4085  0.3072 -0.0307
    3MOL   H686 3090   0.667   3.567   5.383 -0.1500  1.9500  0.8835
    3MOL   H687 3091   0.600   3.591   5.217  1.3948 -0.0778 -1.0795
    3MOL   H688 3092   0.664   3.362   5.308 -0.2792  0.0060  0.8175
    3MOL   H689 3093   0.740   3.400   5.152 -1.2982  0.2069  0.6046
    3MOL   H690 3094   0.945   3.470   5.282  0.3468 -0.0341 -0.8058
    3MOL   H691 3095   0.861   3.427   5.434 -0.0441 -0.9893  0.0729
    3MOL   H692 3096   1.007   3.264   5.251  2.2092  1.4958  2.1193
    3MOL   H693 3097   0.996   3.273   5.418 -0.8150  0.0206  1.0610
    3MOL   H694 3098   0.808   3.115   5.222 -1.0271 -4.6599  0.1610
    3MOL   H695 3099   0.749   3.172   5.372 -1.0163  0.1620 -1.8387
    3MOL   H696 3100   0.937   3.065   5.498 -1.1108  1.5280  0.1107
    3MOL   H697 3101   1.000   3.005   5.345 -1.0369  1.3098 -1.0832
    3MOL   H698 3102   0.806   2.850   5.305 -1.8425  0.2761 -0.2737
    3MOL   H699 3103   0.712   2.930   5.430 -0.3030 -0.8065 -1.7224
    3MOL   H700 3104   0.883   2.868   5.590 -1.8520  0.8742 -0.3122
    3MOL   H701 3105   0.972   2.777   5.466 -1.0098 -1.2281 -1.6349
    3MOL   H702 3106   0.689   2.697   5.536 -0.2804 -0.3482  0.2351
    3MOL   H703 3107   0.812   2.616   5.440  1.6548  1.3987  0.0979
    3MOL   H704 3108   0.955   2.578   5.622  0.0335 -0.8635  1.8635
    3MOL   H705 3109   0.845   2.670   5.732 -1.0385  0.0933  0.1503
    3MOL   H706 3110   0.661   2.257   5.707  0.5839 -0.2263 -0.1485
    3MOL   H707 3111   0.676   2.300   5.868 -1.0495 -3.6164 -0.0674
    3MOL   H708 3112   0.736   2.069   5.870  0.8807  0.0050  1.2807
    3MOL   H709 3113   0.868   2.164   5.923 -0.7805  1.4196  0.6807
    3MOL   H710 3114   0.975   2.158   5.710  0.2632 -2.1512 -3.1480
    3MOL   H711 3115   0.850   2.053   5.650  0.3978  2.3719 -1.5141
    3MOL   H712 3116   0.915   1.871   5.794 -0.8431  0.5343  3.9513
    3MOL   H713 3117   0.991   1.966   5.899 -1.1485 -2.1837  0.2781
    3MOL   H714 3118   1.111   1.938   5.609  0.6840 -0.5520  0.1995
    3MOL   H715 3119   1.180   2.016   5.731  0.9595 -0.8353  1.3310
    3MOL   H716 3120   1.149   1.791   5.868 -0.1391  0.9891  0.2084
    3MOL   H717 3121   1.164   1.722   5.703 -0.8761  0.0513  0.0754
    3MOL   H718 3122   1.370   1.922   5.807  0.6190  0.9113 -3.1145
    3MOL   H719 3123   1.372   1.860   5.664 -0.2801  0.7100 -0.2989
    3MOL   H720 3124   1.427   1.632   5.726 -3.2826 -0.6838  1.0512
    3MOL   H721 3125   1.542   1.747   5.784 -0.8813 -0.1688 -1.2327
    3MOL   O722 3126   1.366   1.532   5.932  0.0474  0.0195  0.4551
    3MOL   C723 3127   1.327   1.454   6.044  0.5281 -0.0010 -0.3649
    3MOL   C724 3128   1.187   1.395   6.015 -0.4779  0.5636  0.3746
    3MOL   C725 3129   1.093   1.509   5.991 -0.6272 -0.6761 -0.5708
    3MOL   C726 3130   0.949   1.462   5.983  0.0691 -0.1828 -0.1696
    3MOL   C727 3131   0.866   1.575   5.920 -0.0398 -0.1931 -0.2276
    3MOL   C728 3132   0.717   1.583   5.962 -0.3776  0.8253 -0.8627
    3MOL   C729 3133   0.656   1.698   5.882  0.0236 -1.5391  0.0471
    3MOL   C730 3134   0.532   1.771   5.939 -0.3469  0.3067  0.7152
    3MOL   C731 3135   0.574   1.858   6.050 -0.3322 -0.1979  0.0191
    3MOL   C732 3136   0.447   1.924   6.115 -0.1144 -0.0283 -0.6164
    3MOL   O733 3137   0.374   2.014   6.030  0.7947  0.0687 -0.0378
    3MOL   C734 3138   0.416   2.136   5.997 -0.2577 -0.7791  0.0108
    3MOL   O735 3139   0.522   2.179   6.038  0.4423  0.0061 -0.4783
    3MOL   C736 3140   0.328   2.215   5.901 -0.0846  0.4998  0.1379
    3MOL   C737 3141   0.242   2.333   5.961 -0.5833  0.2611  0.0579
    3MOL   C738 3142   0.163   2.406   5.861  0.5076 -0.2806  0.3188
    3MOL   C739 3143   0.094   2.525   5.920 -0.1861  0.0644  0.7814
    3MOL   C740 3144   7.753   2.592   5.826  0.8253 -0.6060  0.2238
    3MOL   C741 3145   7.692   2.715   5.894  0.1021 -1.0091 -0.4022
    3MOL   C742 3146   7.580   2.793   5.816  0.3320  0.0126 -0.6905
    3MOL   C743 3147   7.549   2.931   5.883  0.0531 -0.0755 -0.5232
    3MOL   C744 3148   7.448   2.914   6.004 -0.2763 -0.1235  0.6447
    3MOL   O745 3149   7.476   2.956   6.120 -0.0657 -0.1547  0.1059
    3MOL   H746 3150   1.395   1.370   6.060 -0.6569 -1.3110 -2.0165
    3MOL   H747 3151   1.332   1.515   6.134  1.2443 -1.9981  0.9772
    3MOL   H748 3152   1.194   1.329   5.928 -2.4607  0.4177  0.3191
    3MOL   H749 3153   1.155   1.332   6.097  0.7113 -0.5334  0.0120
    3MOL   H750 3154   1.096   1.579   6.074 -2.3616 -0.6215 -0.5355
    3MOL   H751 3155   1.114   1.568   5.902 -0.5076 -1.8623 -1.3380
    3MOL   H752 3156   0.933   1.377   5.917 -0.1684  0.0744 -0.4471
    3MOL   H753 3157   0.914   1.449   6.086  1.5789  0.1637  0.4033
    3MOL   H754 3158   0.881   1.565   5.813  1.3918 -0.1023 -0.0360
    3MOL   H755 3159   0.904   1.674   5.946  0.2859  0.2734 -2.3931
    3MOL   H756 3160   0.705   1.614   6.066 -2.1586  1.9189 -1.3878
    3MOL   H757 3161   0.661   1.493   5.940  1.5914 -1.6957  3.6464
    3MOL   H758 3162   0.632   1.661   5.783 -1.7491 -1.7913  0.5621
    3MOL   H759 3163   0.734   1.775   5.875 -1.3055 -0.1830 -0.0108
    3MOL   H760 3164   0.456   1.697   5.965 -0.7935 -0.1302 -1.6952
    3MOL   H761 3165   0.494   1.843   5.867 -1.8016  0.9333  2.0891
    3MOL   H762 3166   0.616   1.787   6.122 -0.3497 -1.4913 -1.2210
    3MOL   H763 3167   0.652   1.930   6.026 -2.5632  2.2080 -0.3323
    3MOL   H764 3168   0.380   1.840   6.132 -0.2480  0.0579 -0.7128
    3MOL   H765 3169   0.464   1.978   6.208 -1.7909 -0.3588 -0.1009
    3MOL   H766 3170   0.258   2.136   5.872  0.6200  0.3545 -1.2260
    3MOL   H767 3171   0.388   2.248   5.816 -0.2475  0.1054 -0.1361
    3MOL   H768 3172   0.314   2.402   6.004  1.4113 -2.3856  1.1417
    3MOL   H769 3173   0.185   2.304   6.049 -1.1528  2.6805  0.5033
    3MOL   H770 3174   0.086   2.351   5.806  1.1874 -1.3365  0.4099
    3MOL   H771 3175   0.226   2.446   5.782 -0.0741  1.6201  0.7959
    3MOL   H772 3176   0.152   2.597   5.977  0.3426 -0.5900  1.0693
    3MOL   H773 3177   0.028   2.485   5.997  1.5729 -1.7366  1.4013
    3MOL   H774 3178   0.026   2.625   5.726 -1.1104 -0.1281 -0.2263
    3MOL   H775 3179   7.669   2.527   5.799  0.4231  0.5251 -1.3668
    3MOL   H776 3180   7.648   2.682   5.988  0.2935  0.3297  0.1696
    3MOL   H777 3181   0.011   2.791   5.908  0.3470 -1.3360  0.0397
    3MOL   H778 3182   7.491   2.731   5.813  0.5786 -0.3880 -0.0020
    3MOL   H779 3183   7.624   2.819   5.719 -0.9092  2.1642 -0.7021
    3MOL   H780 3184   7.635   2.993   5.909  0.0040 -0.7961  1.4315
    3MOL   H781 3185   7.492   2.988   5.810  1.4434 -0.4728 -1.9562
    3MOL   O782 3186   7.329   2.871   5.971  0.1990 -0.2042  0.3378
    3MOL   C783 3187   7.214   2.872   6.057  0.6162  0.0407  0.0475
    3MOL   C784 3188   7.115   2.991   6.036  0.6234 -0.0849  0.0087
    3MOL   C785 3189   7.034   3.004   5.901  0.5341 -0.3343  0.1418
    3MOL   C786 3190   7.126   3.039   5.784 -0.2280  0.8288 -0.6323
    3MOL   C787 3191   7.224   3.155   5.796  0.2220 -0.6190 -0.4018
    3MOL   C788 3192   7.311   3.164   5.675 -0.3736  0.8059 -0.0710
    3MOL   C789 3193   7.419   3.276   5.684 -0.3573 -0.2497 -0.0428
    3MOL   C790 3194   7.525   3.270   5.574  0.7349  0.9544  0.0549
    3MOL   C791 3195   7.459   3.302   5.438  1.0504  0.4681  1.1830
    3MOL   C792 3196   7.561   3.289   5.323 -0.3820  0.2358 -0.7674
    3MOL   O793 3197   7.595   3.150   5.312  0.1492 -0.1705 -0.8191
    3MOL   C794 3198   7.703   3.112   5.230 -0.1650 -0.5707  0.2455
    3MOL   O795 3199   0.030   3.190   5.187  0.0059  0.3411 -0.2707
    3MOL   C796 3200   7.704   2.962   5.197  0.0183  0.5353 -0.5249
    3MOL   C797 3201   7.693   2.869   5.318  0.2058 -0.1669 -0.4594
    3MOL   C798 3202   7.692   2.721   5.281  0.0161 -0.5829  0.9542
    3MOL   C799 3203   7.660   2.629   5.402 -0.4251 -0.2626 -0.0848
    3MOL   C800 3204   7.682   2.478   5.374 -0.8496 -0.3687 -0.2365
    3MOL   C801 3205   7.699   2.389   5.496  0.7717  0.0271 -0.3148
    3MOL   C802 3206   7.564   2.377   5.574  0.0349 -0.2008 -0.0119
    3MOL   C803 3207   7.576   2.267   5.682 -0.6365 -0.2586  0.2320
    3MOL   C804 3208   7.444   2.256   5.762  0.5548  0.1139 -0.6077
    3MOL   O805 3209   7.335   2.232   5.706 -0.1041  0.0891  1.0517
    3MOL   H806 3210   7.153   2.783   6.045  0.4805  0.2113 -0.5351
    3MOL   H807 3211   7.252   2.866   6.159 -1.0456  0.3362  0.7057
    3MOL   H808 3212   7.034   2.995   6.109  1.0216  0.4791  0.4247
    3MOL   H809 3213   7.175   3.080   6.054 -2.6252  2.1676 -0.0653
    3MOL   H810 3214   6.976   2.913   5.887  0.6104 -0.5282  1.0855
    3MOL   H811 3215   6.962   3.086   5.906 -0.3188 -1.0905  0.3739
    3MOL   H812 3216   7.193   2.953   5.778  0.8688  1.5245  1.2666
    3MOL   H813 3217   7.060   3.057   5.698  0.4843  1.2712 -1.0892
    3MOL   H814 3218   7.296   3.138   5.875  1.3878 -1.3088 -1.5952
    3MOL   H815 3219   7.175   3.249   5.822 -0.8478 -1.3137  0.1245
    3MOL   H816 3220   7.248   3.171   5.586  1.0374  0.2656 -1.1261
    3MOL   H817 3221   7.359   3.067   5.673 -2.0709 -0.0452  0.1418
    3MOL   H818 3222   7.459   3.273   5.785 -0.5264  0.5193  0.0506
    3MOL   H819 3223   7.358   3.366   5.682 -3.0192 -1.8860  2.9525
    3MOL   H820 3224   7.579   3.175   5.573 -1.9789 -0.6242 -1.2805
    3MOL   H821 3225   7.594   3.354   5.582  1.9529 -0.0118 -0.0126
    3MOL   H822 3226   7.380   3.231   5.411 -1.6557  2.1902  4.2561
    3MOL   H823 3227   7.417   3.402   5.428  1.2141  0.3551 -0.9621
    3MOL   H824 3228   7.507   3.322   5.234  0.7496  1.5378 -0.9858
    3MOL   H825 3229   7.645   3.357   5.336 -0.3255  0.0471 -0.1513
    3MOL   H826 3230   0.038   2.947   5.138 -0.4774 -0.1437 -1.1223
    3MOL   H827 3231   7.620   2.941   5.131 -0.8591  0.0897  0.7327
    3MOL   H828 3232   7.604   2.889   5.378 -0.2321 -1.6773 -0.5830
    3MOL   H829 3233   0.018   2.895   5.385 -0.8011  1.5473  0.1156
    3MOL   H830 3234   0.036   2.700   5.244  0.2505  1.3151  0.4536
    3MOL   H831 3235   7.618   2.703   5.203 -0.0257 -0.9065  1.0670
    3MOL   H832 3236   7.555   2.638   5.428  0.0488 -0.8376  2.1247
    3MOL   H833 3237   7.709   2.657   5.496 -1.3010 -0.1351  0.3437
    3MOL   H834 3238   7.604   2.437   5.310  0.3899 -1.5112 -1.0394
    3MOL   H835 3239   0.012   2.471   5.308 -1.8812  2.9718 -2.0962
    3MOL   H836 3240   7.728   2.288   5.470  3.0203  0.8514 -1.1098
    3MOL   H837 3241   0.019   2.427   5.564 -1.0158  1.7506  0.8080
    3MOL   H838 3242   7.482   2.350   5.508  1.3125 -0.6354 -1.4621
    3MOL   H839 3243   7.534   2.475   5.609 -0.8090 -0.2734 -0.5333
    3MOL   H840 3244   7.597   2.167   5.642 -1.1740  0.1827 -1.1800
    3MOL   H841 3245   7.657   2.285   5.753 -0.3532  2.0865 -0.6516
    3MOL   O842 3246   7.459   2.270   5.898 -0.1112 -0.0388  0.2784
    3MOL   C843 3247   7.344   2.288   5.973 -0.3629  0.5960 -0.1216
    3MOL   C844 3248   7.346   2.427   6.044  0.2310  0.1687  0.6462
    3MOL   C845 3249   7.447   2.442   6.158  0.0550  0.1790 -0.0093
    3MOL   C846 3250   7.458   2.584   6.220 -0.4879  0.5558 -0.2872
    3MOL   C847 3251   7.538   2.588   6.350 -0.1591 -0.1666 -1.0219
    3MOL   C848 3252   7.685   2.598   6.313 -1.3938 -0.4774  0.4867
    3MOL   C849 3253   0.019   2.632   6.432  0.8548 -0.1975 -0.7193
    3MOL   C850 3254   0.164   2.647   6.397 -0.2624  0.2733  0.3072
    3MOL   C851 3255   0.264   2.635   6.510  0.3122  0.9611 -0.3463
    3MOL   C852 3256   0.222   2.689   6.645 -0.1748 -0.4068 -0.0426
    3MOL   O853 3257   0.222   2.830   6.656  0.0270  0.1090  0.3528
    3MOL   C854 3258   0.134   2.899   6.740  0.4156 -0.4349  0.0505
    3MOL   O855 3259   0.072   2.848   6.835  0.3415 -0.8829  0.1230
    3MOL   C856 3260   0.131   3.047   6.696  0.0849  0.5084 -0.0883
    3MOL   C857 3261   7.745   3.102   6.717  0.3616  0.1350  0.3885
    3MOL   C858 3262   7.656   3.065   6.598  0.5001 -0.1400 -0.2584
    3MOL   C859 3263   7.513   3.115   6.613 -0.2150  0.9393  1.2793
    3MOL   C860 3264   7.419   3.104   6.490 -0.3427  1.0975  0.1726
    3MOL   C861 3265   7.292   3.183   6.509 -0.1449 -0.2287  0.3421
    3MOL   C862 3266   7.193   3.174   6.386 -0.2240  0.3718  0.3651
    3MOL   C863 3267   7.108   3.305   6.373  0.0074  0.1257  0.1152
    3MOL   C864 3268   6.998   3.317   6.477  0.0790 -0.1865  0.3096
    3MOL   O865 3269   6.973   3.427   6.532 -0.0007 -0.0613  0.8999
    3MOL   H866 3270   7.248   2.283   5.921 -0.5546  0.0502  0.2814
    3MOL   H867 3271   7.330   2.209   6.046 -3.1646  1.1795  0.0313
    3MOL   H868 3272   7.379   2.500   5.971  0.2015  1.5992  2.0260
    3MOL   H869 3273   7.250   2.456   6.088 -0.7594 -3.1591  0.8494
    3MOL   H870 3274   7.431   2.369   6.237 -1.9245  2.7737  2.0744
    3MOL   H871 3275   7.544   2.426   6.111  0.4757 -3.2590  1.8663
    3MOL   H872 3276   7.487   2.658   6.144  0.5046  0.8265  0.3562
    3MOL   H873 3277   7.357   2.615   6.246 -1.0405 -1.0457 -0.4657
    3MOL   H874 3278   7.519   2.502   6.414  1.7054 -0.3170 -0.6419
    3MOL   H875 3279   7.512   2.683   6.397  0.9506 -0.1089 -0.5041
    3MOL   H876 3280   7.703   2.684   6.249  2.9785 -1.3634  0.3806
    3MOL   H877 3281   7.726   2.506   6.272  0.6465  0.1722  1.0044
    3MOL   H878 3282   0.003   2.549   6.501  0.3134  0.5895  0.1290
    3MOL   H879 3283   7.731   2.713   6.490 -1.5284 -2.5564  0.8435
    3MOL   H880 3284   0.170   2.747   6.353 -0.9355 -0.4451 -1.4509
    3MOL   H881 3285   0.194   2.589   6.310 -1.2024 -1.2416  0.9838
    3MOL   H882 3286   0.274   2.530   6.536 -2.9984  1.2536  2.4708
    3MOL   H883 3287   0.359   2.683   6.487  1.8714 -1.3218  1.1579
    3MOL   H884 3288   0.120   2.662   6.671 -0.8851  0.2364 -2.0478
    3MOL   H885 3289   0.285   2.646   6.724 -0.1794  1.6747  1.1417
    3MOL   H886 3290   0.156   3.041   6.590 -1.5280 -1.3973 -0.4081
    3MOL   H887 3291   0.199   3.102   6.760 -1.1589 -0.7713  2.4225
    3MOL   H888 3292   7.756   3.211   6.713 -1.2238  0.3081  0.4069
    3MOL   H889 3293   7.707   3.075   6.815  1.6701  1.6606  1.3502
    3MOL   H890 3294   7.653   2.957   6.579  3.4157 -0.0234 -1.7055
    3MOL   H891 3295   7.693   3.101   6.503 -3.1054  1.1984 -1.2215
    3MOL   H892 3296   7.517   3.219   6.648  2.9718  1.1224  0.5561
    3MOL   H893 3297   7.465   3.065   6.697  1.4697  0.4096  1.9379
    3MOL   H894 3298   7.475   3.141   6.404  0.2035 -0.3793 -0.1191
    3MOL   H895 3299   7.395   2.998   6.479  0.1643  1.0497 -0.4864
    3MOL   H896 3300   7.242   3.134   6.592 -2.4899  1.3343 -0.1153
    3MOL   H897 3301   7.317   3.284   6.542 -0.0918  0.2944 -1.2455
    3MOL   H898 3302   7.129   3.086   6.390  1.0640 -0.5670  0.8053
    3MOL   H899 3303   7.255   3.166   6.296 -3.0209 -1.2836 -1.4773
    3MOL   H900 3304   7.175   3.390   6.368 -0.7654  0.7125 -0.3123
    3MOL   H901 3305   7.063   3.324   6.276 -0.1897 -1.9571 -0.2338
    3MOL   O902 3306   6.921   3.212   6.502  0.7379  0.2361  0.0091
    3MOL   C903 3307   6.821   3.221   6.602  0.3773  0.2045  0.7973
    3MOL   C904 3308   6.865   3.154   6.729  0.4024  0.2869  0.0566
    3MOL   C905 3309   6.751   3.134   6.826  1.0092  0.2130  0.1544
    3MOL   C906 3310   6.796   3.077   6.967  0.1812 -0.1523 -0.0831
    3MOL   C907 3311   6.885   2.947   6.954 -0.0967 -0.0618 -0.4572
    3MOL   C908 3312   6.821   2.824   6.893  0.5031  0.9259 -0.5671
    3MOL   C909 3313   6.906   2.704   6.891  0.5767  0.0180  0.0405
    3MOL   C910 3314   6.842   2.583   6.827 -0.0877  0.3050  0.2349
    3MOL   C911 3315   6.931   2.461   6.835  0.4462  0.1281 -0.8194
    3MOL   C912 3316   6.871   2.341   6.766 -0.2215 -0.0451  0.8703
    3MOL   O913 3317   6.738   2.315   6.808 -0.1390 -0.5370  0.2526
    3MOL   C914 3318   6.671   2.216   6.747 -0.4389  0.8119 -0.1207
    3MOL   O915 3319   6.712   2.136   6.661  0.1211 -0.8728  0.0397
    3MOL   C916 3320   6.532   2.205   6.815  0.3800 -0.5714 -0.2430
    3MOL   C917 3321   6.431   2.124   6.724 -0.4237 -0.0147  0.2740
    3MOL   C918 3322   6.296   2.108   6.786  0.1464 -0.4200 -0.0533
    3MOL   C919 3323   6.205   2.007   6.710  0.0082 -0.1555  0.5371
    3MOL   C920 3324   6.059   2.006   6.767 -0.3099 -0.0824 -0.0243
    3MOL   C921 3325   5.969   1.888   6.722  0.1181  0.1576 -0.1120
    3MOL   C922 3326   5.822   1.887   6.767  0.2272 -0.0083  0.2027
    3MOL   C923 3327   5.808   1.803   6.901 -0.1088 -0.0635 -0.0936
    3MOL   C924 3328   5.785   1.655   6.875 -0.0073 -0.6006 -0.0310
    3MOL   O925 3329   5.750   1.614   6.769  0.3494 -0.2741 -0.2259
    3MOL   H926 3330   6.783   3.323   6.607  0.4467  0.3219 -0.7756
    3MOL   H927 3331   6.737   3.158   6.573  0.8087 -1.3443  2.7693
    3MOL   H928 3332   6.916   3.062   6.704  0.1110  0.6616 -2.0307
    3MOL   H929 3333   6.935   3.230   6.765  2.0450 -1.0002 -0.3790
    3MOL   H930 3334   6.696   3.228   6.831  0.6688  0.1224 -1.4740
    3MOL   H931 3335   6.688   3.058   6.779 -0.6544  0.0476  2.5540
    3MOL   H932 3336   6.852   3.160   7.010  0.3216 -0.8067  1.0145
    3MOL   H933 3337   6.713   3.047   7.032  0.2975 -2.4916 -0.9530
    3MOL   H934 3338   6.913   2.914   7.054  1.2499 -0.8044 -1.0660
    3MOL   H935 3339   6.976   2.978   6.904 -0.8113  1.5256 -0.7956
    3MOL   H936 3340   6.775   2.837   6.795 -2.4574 -0.7662  0.5294
    3MOL   H937 3341   6.737   2.801   6.960  1.1286 -0.9940 -0.4396
    3MOL   H938 3342   6.939   2.677   6.991  2.0330 -0.2266 -0.4855
    3MOL   H939 3343   6.992   2.735   6.830  2.3878 -0.2955  2.3791
    3MOL   H940 3344   6.812   2.606   6.725  1.3000  1.1879  0.0095
    3MOL   H941 3345   6.747   2.558   6.874  0.4134 -2.1437 -0.0206
    3MOL   H942 3346   7.023   2.487   6.783  0.3041 -0.0245 -1.1483
    3MOL   H943 3347   6.963   2.443   6.938  0.5478 -0.1545 -0.8992
    3MOL   H944 3348   6.871   2.370   6.661 -1.8783 -0.1650  0.8187
    3MOL   H945 3349   6.931   2.250   6.770 -2.1530 -1.3867  0.0074
    3MOL   H946 3350   6.493   2.303   6.841  0.3388 -0.4579 -0.7260
    3MOL   H947 3351   6.540   2.155   6.912  0.3900 -1.6586 -0.7909
    3MOL   H948 3352   6.468   2.024   6.705  2.7566  0.9249  1.1647
    3MOL   H949 3353   6.421   2.173   6.627 -1.2293 -0.6184  0.0511
    3MOL   H950 3354   6.249   2.206   6.791  1.1144 -0.0447  2.8472
    3MOL   H951 3355   6.298   2.067   6.887 -0.4021 -0.6930 -0.1488
    3MOL   H952 3356   6.247   1.906   6.705 -0.5465 -0.5012  2.4332
    3MOL   H953 3357   6.183   2.023   6.605 -0.1127  1.6595  0.8203
    3MOL   H954 3358   6.069   2.011   6.875  1.8575 -0.0053 -0.2055
    3MOL   H955 3359   6.017   2.102   6.739 -0.7702 -0.1228  0.5331
    3MOL   H956 3360   5.962   1.882   6.614  0.2785 -1.6103 -0.0529
    3MOL   H957 3361   6.020   1.794   6.745  0.5403 -0.0715 -1.8912
    3MOL   H958 3362   5.768   1.856   6.678  1.7934 -0.3107 -0.6537
    3MOL   H959 3363   5.798   1.990   6.794  1.6910  0.0781  1.2570
    3MOL   H960 3364   5.892   1.805   6.970 -1.6672 -1.5813  1.8953
    3MOL   H961 3365   5.722   1.829   6.963  0.0224 -3.4793  1.6049
    3MOL   O962 3366   5.782   1.584   6.987  0.1046  0.1952  0.0566
    3MOL   C963 3367   5.737   1.442   6.983 -0.1643 -0.2458 -0.1877
    3MOL   C964 3368   5.807   1.377   7.102  0.6778 -0.1835 -0.5968
    3MOL   C965 3369   5.829   1.226   7.088  0.2846  0.1951 -0.1754
    3MOL   C966 3370   5.889   1.159   7.217 -0.8431 -0.2060 -0.1251
    3MOL   C967 3371   5.918   1.008   7.209  0.3872 -0.2287 -0.0997
    3MOL   C968 3372   6.002   0.945   7.326  0.3701 -0.7074  0.1737
    3MOL   C969 3373   6.047   0.808   7.287 -0.1703 -0.0708  0.1911
    3MOL   C970 3374   6.115   0.723   7.394 -0.4490  0.0825  0.6060
    3MOL   C971 3375   6.171   0.583   7.343  0.4308  0.2475  0.3214
    3MOL   C972 3376   6.175   0.471   7.449  0.7665 -0.1126 -0.5342
    3MOL   O973 3377   6.050   0.444   7.520  0.4803  0.1487 -0.0599
    3MOL   C974 3378   5.981   0.331   7.501  0.5892 -0.0566  0.1932
    3MOL   O975 3379   6.013   0.242   7.422 -0.1483 -0.1429  0.0377
    3MOL   C976 3380   5.860   0.316   7.587  0.2227  0.0417 -0.2785
    3MOL   C977 3381   5.895   0.266   7.728 -0.0013 -0.0273 -1.4147
    3MOL   C978 3382   5.942   0.124   7.736 -0.5082 -0.3392 -0.3670
    3MOL   C979 3383   5.849   0.022   7.660 -0.3577 -0.4564  0.2980
    3MOL   C980 3384   5.714   7.743   7.730  0.5374 -0.3848  0.0295
    3MOL   C981 3385   5.614   7.682   7.640  0.2492 -0.6711  0.1346
    3MOL   C982 3386   5.473   7.696   7.694 -0.1206 -0.0947 -0.1070
    3MOL   C983 3387   5.439   7.665   0.088 -0.1380  0.4080  0.0171
    3MOL   C984 3388   5.287   7.672   0.122 -0.5566  0.3220  0.0499
    3MOL   O985 3389   5.244   7.749   0.209  0.1191  0.3992 -0.2434
    3MOL   H986 3390   5.630   1.435   7.005 -0.1522  0.8460  0.2204
    3MOL   H987 3391   5.757   1.391   6.889  3.0436 -1.7880  1.2444
    3MOL   H988 3392   5.901   1.426   7.129  0.2954  0.3308 -0.1681
    3MOL   H989 3393   5.747   1.400   7.190  0.4138 -0.7729 -0.6269
    3MOL   H990 3394   5.740   1.172   7.056 -0.0194  0.4769  0.1921
    3MOL   H991 3395   5.890   1.209   7.000  0.7147 -1.3322  0.3987
    3MOL   H992 3396   5.978   1.216   7.243 -0.8512  1.3010 -3.1509
    3MOL   H993 3397   5.814   1.167   7.296 -0.2424  0.1481  0.4044
    3MOL   H994 3398   5.976   0.987   7.119 -1.0121  0.9143 -1.2963
    3MOL   H995 3399   5.829   0.946   7.194 -0.3228  0.9856 -0.9777
    3MOL   H996 3400   5.947   0.943   7.420  0.3502 -0.3070  0.1710
    3MOL   H997 3401   6.085   1.014   7.340  0.3593 -0.6144 -0.2048
    3MOL   H998 3402   6.110   0.809   7.199  0.6766 -0.2722  0.7940
    3MOL   H999 3403   5.959   0.761   7.243 -0.2110  2.2964 -2.4047
    3MOL     H1 3404   6.035   0.723   7.467 -1.6109  2.2546 -0.5949
    3MOL     H2 3405   6.195   0.784   7.436 -0.6956  1.0273 -0.2748
    3MOL     H3 3406   6.109   0.544   7.262 -1.0628  1.9613  0.5779
    3MOL     H4 3407   6.269   0.604   7.302  0.5776  0.9771  1.0210
    3MOL     H5 3408   6.224   0.382   7.409  0.6470 -0.9351  1.1081
    3MOL     H6 3409   6.251   0.508   7.517 -0.8734  2.7653 -0.1877
    3MOL     H7 3410   5.779   0.262   7.539  1.9322 -1.7724 -1.2096
    3MOL     H8 3411   5.821   0.417   7.602 -0.6971 -0.0065 -2.2430
    3MOL     H9 3412   5.812   0.283   0.040  0.9200  1.4547 -0.6470
    3MOL    H10 3413   5.972   0.330   0.014  0.1932 -0.5407 -0.9915
    3MOL    H11 3414   5.954   0.088   0.081  0.1116  0.3859 -0.1764
    3MOL    H12 3415   6.034   0.118   7.677 -0.0192 -0.1741  0.3661
    3MOL    H13 3416   5.905   7.685   7.654 -1.0995 -0.8439 -0.8694
    3MOL    H14 3417   5.829   0.059   7.559  1.4607 -0.3187 -0.0280
    3MOL    H15 3418   5.732   7.681   0.062 -0.9693 -0.2358  0.4577
    3MOL    H16 3419   5.672   0.078   0.014 -0.7672  0.3901 -2.9352
    3MOL    H17 3420   5.615   7.727   7.540  0.6987  0.3720  0.6005
    3MOL    H18 3421   5.631   7.575   7.623  0.4651 -0.5172 -0.6420
    3MOL    H19 3422   5.405   7.641   7.628  0.0428 -0.0511 -0.3125
    3MOL    H20 3423   5.447   0.045   7.686 -0.6578 -0.1529  0.7843
    3MOL    H21 3424   5.473   7.565   0.115  0.2719  1.1165  2.2060
    3MOL    H22 3425   5.490   7.734   0.155  0.2347 -0.4319  0.6128
    3MOL    O23 3426   5.211   7.588   0.043  0.2401  0.7659  0.1489
    3MOL    C24 3427   5.071   7.604   0.065 -0.0698  0.1938 -0.2763
    3MOL    C25 3428   5.004   7.543   7.704 -0.0749  0.3872  0.5299
    3MOL    C26 3429   5.033   7.621   7.575 -0.3013  0.3739 -0.5206
    3MOL    C27 3430   4.928   7.606   7.463 -0.9367  0.6258 -0.0099
    3MOL    C28 3431   4.918   7.461   7.405  0.1386  0.1229 -0.6330
    3MOL    C29 3432   4.805   7.449   7.305  0.1599  0.1682  1.2592
    3MOL    C30 3433   4.854   7.457   7.159  0.4509 -0.1392 -0.0081
    3MOL    C31 3434   4.731   7.461   7.057  0.1981  0.2780 -0.1144
    3MOL    C32 3435   4.770   7.466   6.914 -0.7083 -0.0141  0.3432
    3MOL    C33 3436   4.691   7.555   6.819  0.4154 -0.0738  0.6288
    3MOL    O34 3437   4.558   7.520   6.782 -0.6552 -0.0266 -0.1431
    3MOL    C35 3438   4.525   7.469   6.664  0.1354 -0.4543 -0.5105
    3MOL    O36 3439   4.593   7.427   6.573  0.0856 -0.0234 -0.2380
    3MOL    C37 3440   4.379   7.440   6.658 -0.2555  0.7165 -0.0647
    3MOL    C38 3441   4.344   7.295   6.707 -0.2980  0.5843  0.7033
    3MOL    C39 3442   4.202   7.245   6.671 -0.0885 -0.2392 -0.8728
    3MOL    C40 3443   4.175   7.104   6.717  0.0131 -0.0369  0.7054
    3MOL    C41 3444   4.033   7.069   6.695 -0.0172 -0.2291 -0.0541
    3MOL    C42 3445   4.000   6.937   6.765 -0.1294  0.8408  0.0781
    3MOL    C43 3446   3.868   6.868   6.734 -0.3875 -0.2921 -0.9283
    3MOL    C44 3447   3.845   6.744   6.825 -0.5794  0.8107  0.3574
    3MOL    C45 3448   3.911   6.610   6.799 -0.1092 -0.0030  0.4795
    3MOL    O46 3449   3.854   6.507   6.828 -0.4202 -0.4831  0.3370
    3MOL    H47 3450   5.044   7.549   0.155 -1.6867 -1.5551 -1.8064
    3MOL    H48 3451   5.048   7.709   0.082  2.3331  0.7533 -0.2591
    3MOL    H49 3452   5.021   7.437   7.688  1.5842  0.8419 -0.8952
    3MOL    H50 3453   4.899   7.547   7.732  0.3196 -1.0610  2.3032
    3MOL    H51 3454   5.053   7.724   7.605  0.8498 -0.2287  0.8010
    3MOL    H52 3455   5.131   7.582   7.550 -1.1352 -1.8866 -0.3659
    3MOL    H53 3456   4.832   7.643   7.498  0.5173  2.3470  2.3109
    3MOL    H54 3457   4.959   7.676   7.385 -2.2784  1.7900  0.4695
    3MOL    H55 3458   4.895   7.392   7.486  0.2461  0.3638 -0.3988
    3MOL    H56 3459   5.012   7.423   7.366  0.1172 -2.4598  1.6968
    3MOL    H57 3460   4.720   7.516   7.321 -0.8341 -0.6589 -0.5137
    3MOL    H58 3461   4.753   7.354   7.305  2.1896 -1.0683 -2.6836
    3MOL    H59 3462   4.904   7.364   7.135 -1.1341 -0.9342 -0.2779
    3MOL    H60 3463   4.917   7.545   7.145  0.1930  0.1218  0.4404
    3MOL    H61 3464   4.681   7.555   7.078  1.4919  0.9731 -0.0998
    3MOL    H62 3465   4.658   7.381   7.066 -0.3812  0.7423 -0.6528
    3MOL    H63 3466   4.876   7.494   6.913 -0.5188 -0.6573  1.3453
    3MOL    H64 3467   4.765   7.364   6.875 -2.5203 -0.1088  0.7774
    3MOL    H65 3468   4.677   7.651   6.869 -0.7155  1.3767 -2.3273
    3MOL    H66 3469   4.745   7.567   6.725 -0.7545 -1.4378 -0.2267
    3MOL    H67 3470   4.349   7.444   6.553 -1.7422  0.2255  0.3257
    3MOL    H68 3471   4.316   7.515   6.705 -1.5259  0.0571 -0.6922
    3MOL    H69 3472   4.353   7.287   6.816  1.3616 -0.8447  0.4737
    3MOL    H70 3473   4.418   7.227   6.665  0.1340  1.0633  0.6821
    3MOL    H71 3474   4.181   7.250   6.564  1.5299  0.5644 -1.1614
    3MOL    H72 3475   4.141   7.322   6.719  2.1465  0.1568  1.4111
    3MOL    H73 3476   4.210   7.105   6.820  0.3895  2.4562  0.5828
    3MOL    H74 3477   4.245   7.032   6.675  3.4296  3.6118 -0.0254
    3MOL    H75 3478   3.962   7.139   6.739 -0.1781 -1.2254  1.3366
    3MOL    H76 3479   4.008   7.062   6.589  0.1293  0.3099 -0.1216
    3MOL    H77 3480   4.079   6.868   6.737 -1.0607  0.4540 -1.7208
    3MOL    H78 3481   4.002   6.948   6.873  0.3544  0.4473  0.1089
    3MOL    H79 3482   3.844   6.857   6.628 -1.8736  2.6877 -0.9386
    3MOL    H80 3483   3.789   6.937   6.764  0.3252  0.1149  0.0258
    3MOL    H81 3484   3.882   6.771   6.924 -1.2290 -0.8464  1.0654
    3MOL    H82 3485   3.739   6.719   6.832 -0.3591  0.0592  1.0189
    3MOL    O83 3486   4.028   6.617   6.736 -0.0224 -0.0061 -0.6673
    3MOL    C84 3487   4.100   6.502   6.705 -0.3145 -0.2734  0.1620
    3MOL    C85 3488   4.206   6.532   6.599  0.2069 -0.2619  0.1537
    3MOL    C86 3489   4.324   6.602   6.662 -0.3947 -0.8385 -0.8561
    3MOL    C87 3490   4.442   6.649   6.558 -0.6366  0.5636 -0.7759
    3MOL    C88 3491   4.531   6.526   6.529 -0.0054 -0.0853 -0.7332
    3MOL    C89 3492   4.605   6.534   6.394 -0.3333 -0.2716 -0.1312
    3MOL    C90 3493   4.716   6.437   6.381 -0.2020 -0.0569 -0.5763
    3MOL    C91 3494   4.800   6.468   6.257  0.4513 -0.3249 -0.0676
    3MOL    C92 3495   4.951   6.435   6.276 -0.5016 -0.0540  0.0323
    3MOL    C93 3496   4.975   6.286   6.319  0.5817  0.6028  0.0581
    3MOL    O94 3497   4.920   6.196   6.222 -0.4975 -0.4470 -0.4732
    3MOL    C95 3498   4.888   6.077   6.272 -0.7527 -0.3950 -0.5162
    3MOL    O96 3499   4.900   6.046   6.390 -0.1624  0.0842  0.3262
    3MOL    C97 3500   4.838   5.982   6.162 -0.1001 -0.0060  0.1679
    3MOL    C98 3501   4.728   6.032   6.063 -0.2950  0.1043 -0.6709
    3MOL    C99 3502   4.679   5.920   5.967 -0.7048  0.9967 -0.2344
    3MOL   C100 3503   4.589   5.959   5.852 -0.9442  0.2320  0.0657
    3MOL   C101 3504   4.445   5.966   5.900  0.0866 -0.4525 -0.3428
    3MOL   C102 3505   4.344   5.957   5.786 -0.1134 -0.2012  0.3777
    3MOL   C103 3506   4.201   5.909   5.827 -0.3316 -0.2203 -0.5268
    3MOL   C104 3507   4.090   5.893   5.718 -0.0900  0.7756 -0.3495
    3MOL   C105 3508   4.054   6.025   5.652  0.5957  0.2203 -0.4418
    3MOL   O106 3509   4.110   6.131   5.673  0.2626 -0.0621 -0.5874
    3MOL   H107 3510   4.149   6.472   6.798  1.3667  0.5014 -0.4611
    3MOL   H108 3511   4.034   6.422   6.672  1.4242 -1.2014 -1.1764
    3MOL   H109 3512   4.238   6.435   6.562 -0.6500  0.4264 -2.4704
    3MOL   H110 3513   4.163   6.584   6.514 -0.1256 -0.9702 -0.1155
    3MOL   H111 3514   4.270   6.689   6.702 -1.2419 -1.9513  0.4693
    3MOL   H112 3515   4.361   6.556   6.754  0.6306  1.9110  0.1891
    3MOL   H113 3516   4.403   6.698   6.468  0.0797  1.1874 -0.7496
    3MOL   H114 3517   4.497   6.726   6.611 -0.8143 -1.1409  1.9615
    3MOL   H115 3518   4.487   6.427   6.540 -0.4760  0.2980  0.8872
    3MOL   H116 3519   4.617   6.534   6.595  0.6699  0.2563 -1.6441
    3MOL   H117 3520   4.636   6.637   6.374  0.5625 -0.5378 -0.1099
    3MOL   H118 3521   4.530   6.507   6.319 -1.7617 -3.0696  2.2264
    3MOL   H119 3522   4.682   6.333   6.383  2.8514 -1.1246 -1.4484
    3MOL   H120 3523   4.781   6.446   6.468  0.2896 -0.1016 -0.9395
    3MOL   H121 3524   4.810   6.569   6.217  2.4568 -1.1871 -1.8404
    3MOL   H122 3525   4.760   6.413   6.172 -0.0404 -0.0786  0.0055
    3MOL   H123 3526   5.008   6.448   6.184  0.1866 -0.1031  0.4511
    3MOL   H124 3527   4.992   6.499   6.353 -1.4797 -0.3297  0.7968
    3MOL   H125 3528   5.077   6.254   6.340  0.2463 -0.6944 -0.2779
    3MOL   H126 3529   4.932   6.274   6.418  0.8971 -1.1765 -0.0099
    3MOL   H127 3530   4.817   5.890   6.218  0.9795  0.2855  1.0749
    3MOL   H128 3531   4.924   5.959   6.099 -1.3511  0.4115 -1.7128
    3MOL   H129 3532   4.763   6.114   6.001 -0.4520 -0.3113 -1.3187
    3MOL   H130 3533   4.642   6.060   6.125  0.0512  0.3738 -0.3116
    3MOL   H131 3534   4.640   5.834   6.020  0.2269  1.3624  1.0915
    3MOL   H132 3535   4.765   5.868   5.924 -1.8281 -0.5787 -0.5756
    3MOL   H133 3536   4.584   5.879   5.779  1.0089  2.2048 -2.3207
    3MOL   H134 3537   4.609   6.048   5.793  1.9968 -1.0151 -0.9073
    3MOL   H135 3538   4.430   5.882   5.968  1.0927 -0.5076 -0.1810
    3MOL   H136 3539   4.426   6.056   5.959 -1.0057 -0.6160 -0.4199
    3MOL   H137 3540   4.340   6.058   5.746  0.4557  0.4053  1.8334
    3MOL   H138 3541   4.379   5.888   5.709 -0.6458  1.0016 -0.9600
    3MOL   H139 3542   4.172   5.991   5.893 -2.0539 -1.2562  0.0148
    3MOL   H140 3543   4.192   5.817   5.885 -1.3499 -0.2430 -0.7222
    3MOL   H141 3544   4.117   5.813   5.649  1.2394  1.6496 -0.8841
    3MOL   H142 3545   3.996   5.859   5.760 -0.7267 -0.9231 -3.0477
    3MOL   O143 3546   3.958   6.008   5.569  0.0315 -0.1304  0.3238
    3MOL   C144 3547   3.915   6.111   5.490  0.1344  0.1961  0.5249
    3MOL   C145 3548   3.801   6.196   5.541 -0.5765  0.2817  0.6710
    3MOL   C146 3549   3.675   6.109   5.564 -0.8215  0.0444 -0.0415
    3MOL   C147 3550   3.556   6.194   5.623  0.1313  1.1472 -0.4497
    3MOL   C148 3551   3.429   6.123   5.685  0.4254 -0.0416  0.0384
    3MOL   C149 3552   3.460   6.024   5.806 -0.8592 -0.1503  0.0263
    3MOL   C150 3553   3.333   5.984   5.876 -0.2248  0.2870 -0.0572
    3MOL   C151 3554   3.374   5.906   6.007  0.3379  0.1825 -0.4097
    3MOL   C152 3555   3.251   5.859   6.076  0.1547  0.5856  0.0941
    3MOL   C153 3556   3.266   5.772   6.200 -0.7851  0.1306  0.1705
    3MOL   O154 3557   3.133   5.744   6.240 -0.5273 -0.6428 -0.2212
    3MOL   C155 3558   3.095   5.746   6.363 -0.2132 -0.1277  0.2345
    3MOL   O156 3559   3.166   5.758   6.462  0.4022  0.2307  0.1431
    3MOL   C157 3560   2.949   5.695   6.383 -0.6905  0.0107  0.3562
    3MOL   C158 3561   2.856   5.777   6.302 -0.0976  0.6111  0.4065
    3MOL   C159 3562   2.710   5.765   6.354  0.6903  0.5464 -0.3208
    3MOL   C160 3563   2.613   5.840   6.264  0.0703 -0.2176  0.4142
    3MOL   C161 3564   2.465   5.823   6.314 -0.7016  0.8038  0.4043
    3MOL   C162 3565   2.354   5.903   6.237  0.3677  0.0852 -0.3467
    3MOL   C163 3566   2.345   5.866   6.086  0.2462  0.6199 -0.5281
    3MOL   C164 3567   2.234   5.948   6.019  0.3204  0.2333 -0.1792
    3MOL   C165 3568   2.246   5.948   5.869 -0.1065  0.7710 -0.7434
    3MOL   O166 3569   2.358   5.931   5.816  0.4509 -0.1496  0.3830
    3MOL   H167 3570   3.997   6.181   5.475 -0.4738  1.1570  1.6254
    3MOL   H168 3571   3.882   6.068   5.395  0.2980 -1.1758  1.0690
    3MOL   H169 3572   3.826   6.253   5.630 -0.8666 -0.3624  1.1669
    3MOL   H170 3573   3.771   6.266   5.462 -0.1851 -1.1179 -0.7464
    3MOL   H171 3574   3.645   6.060   5.471 -3.3191 -0.0591  0.7845
    3MOL   H172 3575   3.703   6.033   5.637 -0.3519 -2.8290 -3.0779
    3MOL   H173 3576   3.601   6.251   5.704  2.6848 -0.2369 -0.8206
    3MOL   H174 3577   3.522   6.270   5.553 -3.5355  2.6833  2.8373
    3MOL   H175 3578   3.383   6.058   5.610  1.0374  0.5015 -0.8160
    3MOL   H176 3579   3.354   6.199   5.710 -0.1974  0.2781 -2.6438
    3MOL   H177 3580   3.522   6.088   5.869  0.2962  1.2762 -2.4986
    3MOL   H178 3581   3.522   5.938   5.781 -2.3450 -0.8107 -1.4670
    3MOL   H179 3582   3.273   5.914   5.818 -2.9855  1.7266  0.9867
    3MOL   H180 3583   3.270   6.070   5.898 -0.2344  0.0730  0.7545
    3MOL   H181 3584   3.437   5.979   6.056  0.2830 -0.2752  0.3441
    3MOL   H182 3585   3.446   5.828   5.980  2.4886  2.0389 -0.1478
    3MOL   H183 3586   3.191   5.950   6.082  0.3353  0.6323  1.2210
    3MOL   H184 3587   3.207   5.793   6.001  1.4012 -1.9002  1.4877
    3MOL   H185 3588   3.315   5.677   6.180 -0.3843  0.5721 -0.9330
    3MOL   H186 3589   3.330   5.815   6.277  2.8781 -1.2100 -1.9950
    3MOL   H187 3590   2.931   5.705   6.491 -0.0195 -0.6180  0.5310
    3MOL   H188 3591   2.930   5.590   6.358  1.9533 -0.1400 -1.1540
    3MOL   H189 3592   2.872   5.774   6.194 -0.5071  0.1694  0.3562
    3MOL   H190 3593   2.891   5.879   6.317  1.3142 -0.0339  1.6410
    3MOL   H191 3594   2.714   5.808   6.454 -1.0135  0.8929 -0.3812
    3MOL   H192 3595   2.695   5.657   6.359 -0.3674  0.7025  0.0854
    3MOL   H193 3596   2.608   5.806   6.160 -4.4319  0.4783  0.3223
    3MOL   H194 3597   2.626   5.948   6.260 -0.1355 -0.2648 -2.8467
    3MOL   H195 3598   2.444   5.717   6.333  0.2308  0.6685  0.6968
    3MOL   H196 3599   2.461   5.861   6.416  0.3668 -0.0900  0.7891
    3MOL   H197 3600   2.262   5.889   6.293  0.5251 -1.6035 -0.4845
    3MOL   H198 3601   2.388   6.007   6.242  0.9658 -0.0998 -0.4712
    3MOL   H199 3602   2.346   5.758   6.068  2.3925  0.6517 -0.7135
    3MOL   H200 3603   2.435   5.896   6.031 -0.2275 -0.4294 -1.9108
    3MOL   H201 3604   2.141   5.919   6.067  0.8288 -0.6976  0.2578
    3MOL   H202 3605   2.251   6.051   6.049 -0.2899  0.5227 -0.8216
    3MOL   H203 3606   2.153   5.968   5.815  0.4624  1.7757 -1.3603
    4MOL     O1 3607   1.121   6.665   4.976  0.2834 -0.1976  0.0765
    4MOL     C2 3608   1.257   6.652   5.005 -0.5765 -0.3255  0.1714
    4MOL     C3 3609   1.277   6.576   5.133 -0.1169  0.5977 -0.1584
    4MOL     C4 3610   1.211   6.441   5.141  0.3561 -0.1776 -0.1821
    4MOL     C5 3611   1.263   6.357   5.254  0.3310 -0.2917  0.5483
    4MOL     C6 3612   1.212   6.211   5.257  0.0374 -0.3660  0.0654
    4MOL     C7 3613   1.267   6.135   5.379 -0.0228 -0.1087  0.4546
    4MOL     C8 3614   1.172   6.017   5.420 -0.5169  0.0443 -0.6983
    4MOL     C9 3615   1.173   5.890   5.328 -1.1221  0.1857 -0.1560
    4MOL    C10 3616   1.105   5.765   5.389  0.5866  0.1703  0.3692
    4MOL    C11 3617   1.198   5.697   5.491  0.2220 -0.0123 -0.3473
    4MOL    O12 3618   1.190   5.557   5.487 -0.8452  0.4534 -0.3620
    4MOL    C13 3619   1.068   5.494   5.526 -0.7282 -0.3634 -0.3719
    4MOL    O14 3620   0.961   5.537   5.575 -0.0262  0.1207  0.2819
    4MOL    C15 3621   1.059   5.352   5.472 -0.2258 -0.4426  0.4471
    4MOL    C16 3622   1.150   5.256   5.544  0.4206 -0.4444  0.1736
    4MOL    C17 3623   1.137   5.104   5.510 -0.6529 -0.5442 -0.1161
    4MOL    C18 3624   1.209   5.056   5.380  0.9619  0.0731 -0.1228
    4MOL    C19 3625   1.361   5.016   5.401 -0.5088  0.2176 -0.3229
    4MOL    C20 3626   1.410   4.908   5.303  0.4827 -0.2969  0.3856
    4MOL    C21 3627   1.553   4.856   5.318  0.7283 -0.3129 -0.0099
    4MOL    C22 3628   1.574   4.765   5.440  0.3043 -0.2738  0.6666
    4MOL    C23 3629   1.713   4.716   5.462  0.0277 -0.1753 -0.7291
    4MOL    O24 3630   1.809   4.772   5.407  0.1369 -0.0709  0.7358
    4MOL    H25 3631   1.295   6.608   4.912 -0.3660  3.3878 -1.5965
    4MOL    H26 3632   1.281   6.757   5.023  1.7077 -0.4993 -1.5630
    4MOL    H27 3633   1.383   6.553   5.145 -0.1592  0.2591 -0.4201
    4MOL    H28 3634   1.253   6.634   5.222 -0.2605 -1.7587  1.3944
    4MOL    H29 3635   1.104   6.462   5.140 -0.2439 -3.0277 -1.1530
    4MOL    H30 3636   1.235   6.391   5.046 -1.7553  0.8481 -1.2741
    4MOL    H31 3637   1.371   6.353   5.246  0.3767  0.2790  0.8493
    4MOL    H32 3638   1.240   6.415   5.344  0.5591  0.4817  0.1181
    4MOL    H33 3639   1.235   6.155   5.166 -0.1422 -0.0632 -0.1687
    4MOL    H34 3640   1.105   6.223   5.270 -0.1522  0.7250 -2.3458
    4MOL    H35 3641   1.289   6.205   5.459  0.6737  0.9409 -0.6466
    4MOL    H36 3642   1.363   6.100   5.341  0.1202  0.7046  0.0650
    4MOL    H37 3643   1.068   6.050   5.422 -0.4700  0.1096  1.4632
    4MOL    H38 3644   1.190   5.985   5.522 -0.4183 -0.1800 -0.7877
    4MOL    H39 3645   1.274   5.866   5.294 -0.3276  2.4933  0.4676
    4MOL    H40 3646   1.126   5.922   5.235 -2.2625  2.0977  1.0546
    4MOL    H41 3647   1.001   5.780   5.417 -0.0696 -0.8223 -1.4706
    4MOL    H42 3648   1.096   5.696   5.306  0.4278  1.4526 -0.6932
    4MOL    H43 3649   1.300   5.712   5.455  0.7190 -2.3060  0.0093
    4MOL    H44 3650   1.181   5.731   5.593 -2.5638 -1.4819 -0.2685
    4MOL    H45 3651   1.076   5.337   5.365 -2.7310  0.9675 -0.1828
    4MOL    H46 3652   0.955   5.321   5.486 -0.5806  0.7084  0.4402
    4MOL    H47 3653   1.122   5.276   5.648  1.8263  0.8037  0.3265
    4MOL    H48 3654   1.255   5.281   5.529 -0.1579  1.8576 -0.1438
    4MOL    H49 3655   1.029   5.088   5.503 -0.5844 -2.1908  1.9214
    4MOL    H50 3656   1.167   5.044   5.596  0.5504  0.3246  0.0856
    4MOL    H51 3657   1.206   5.140   5.310  0.4027 -0.2248 -0.4591
    4MOL    H52 3658   1.148   4.969   5.356  0.6015  0.7991 -1.8848
    4MOL    H53 3659   1.423   5.105   5.411 -2.3166  1.6703 -1.6360
    4MOL    H54 3660   1.375   4.977   5.502  1.0245  4.3025  1.1459
    4MOL    H55 3661   1.347   4.819   5.298  3.9990 -2.8311 -0.5809
    4MOL    H56 3662   1.388   4.956   5.208  0.0960 -0.2635  0.4927
    4MOL    H57 3663   1.630   4.932   5.325  1.0916 -0.9051  2.9185
    4MOL    H58 3664   1.571   4.801   5.225 -1.9522 -0.6301 -0.3799
    4MOL    H59 3665   1.554   4.821   5.532 -0.6700  0.2595  0.1501
    4MOL    H60 3666   1.497   4.688   5.443 -1.0901  1.1343  1.9600
    4MOL    H61 3667   1.105   6.685   4.885  0.9641  0.1537  0.0322
    4MOL    O62 3668   1.710   4.606   5.540 -0.1907 -0.0641 -0.0388
    4MOL    C63 3669   1.840   4.541   5.576  0.3894  0.3338 -0.0571
    4MOL    C64 3670   1.882   4.615   5.708 -0.4614  0.2854  0.4230
    4MOL    C65 3671   2.028   4.566   5.746 -0.7080 -0.3600 -0.0568
    4MOL    C66 3672   2.053   4.611   5.891 -0.7543 -0.1658 -0.6366
    4MOL    C67 3673   1.975   4.508   5.982 -0.1444  0.1958  0.2967
    4MOL    C68 3674   2.022   4.511   6.126 -0.4542  0.2773  0.5048
    4MOL    C69 3675   1.977   4.387   6.205  0.2920 -1.1691  0.3690
    4MOL    C70 3676   2.062   4.368   6.332  0.6287  0.2228  0.5946
    4MOL    C71 3677   2.035   4.465   6.441  0.4639  0.4139 -0.0733
    4MOL    C72 3678   2.151   4.480   6.541  0.1020  0.5431  0.2908
    4MOL    O73 3679   2.137   4.581   6.639  0.3398  0.1361 -0.1745
    4MOL    C74 3680   2.152   4.706   6.610 -0.2909 -0.2321  0.3061
    4MOL    O75 3681   2.192   4.748   6.502 -0.3670 -0.3504  0.1528
    4MOL    C76 3682   2.135   4.799   6.731  0.1832  0.0163  0.7533
    4MOL    C77 3683   2.181   4.944   6.712  0.3270 -0.5405 -0.1901
    4MOL    C78 3684   2.093   5.025   6.615 -0.7128  0.5999 -1.1965
    4MOL    C79 3685   2.147   5.163   6.595  0.2647 -0.0098 -1.3051
    4MOL    C80 3686   2.094   5.277   6.693 -0.3452 -0.5375 -0.4043
    4MOL    C81 3687   2.136   5.274   6.839 -0.4550  0.2490 -0.3063
    4MOL    C82 3688   2.058   5.378   6.921  0.7200 -0.0495 -0.1625
    4MOL    C83 3689   2.104   5.401   7.065 -0.3868 -0.8279  0.2999
    4MOL    C84 3690   2.028   5.511   7.140 -0.0312 -0.2087 -0.2466
    4MOL    O85 3691   1.946   5.581   7.085 -0.4320 -0.1830 -0.3828
    4MOL    H86 3692   1.827   4.435   5.597  0.7697  0.0407 -1.2328
    4MOL    H87 3693   1.901   4.549   5.486 -0.9293 -1.7888 -1.1558
    4MOL    H88 3694   1.898   4.720   5.688  0.7275  0.1773  0.8073
    4MOL    H89 3695   1.801   4.594   5.778 -0.6715 -0.0917  0.0760
    4MOL    H90 3696   2.038   4.458   5.735 -1.5176 -0.4946  0.4251
    4MOL    H91 3697   2.102   4.614   5.682 -1.0612 -0.7918 -0.7864
    4MOL    H92 3698   2.159   4.614   5.914 -0.9203  0.5432  0.0629
    4MOL    H93 3699   2.017   4.714   5.900  0.2545  0.3217 -2.1456
    4MOL    H94 3700   1.996   4.404   5.954  0.6336 -0.1078  1.9070
    4MOL    H95 3701   1.867   4.516   5.975 -0.1761 -0.8895 -0.6263
    4MOL    H96 3702   1.981   4.601   6.173 -1.0665  1.2210 -1.7173
    4MOL    H97 3703   2.130   4.522   6.133 -0.1141 -2.7251  0.2413
    4MOL    H98 3704   1.980   4.302   6.137 -2.0713  0.6303 -2.0707
    4MOL    H99 3705   1.871   4.399   6.228  0.1642 -0.9279 -0.3298
    4MOL   H100 3706   2.168   4.347   6.320  0.1157 -1.7242 -0.8397
    4MOL   H101 3707   2.026   4.276   6.379  2.8520 -2.0773 -2.0709
    4MOL   H102 3708   2.034   4.564   6.396  1.8534  0.9985  1.1258
    4MOL   H103 3709   1.936   4.450   6.483  1.1135  0.7036  1.5945
    4MOL   H104 3710   2.163   4.381   6.584 -1.2440  1.4873  2.9178
    4MOL   H105 3711   2.237   4.501   6.477  0.9751  0.8802  1.5602
    4MOL   H106 3712   2.208   4.763   6.803  0.1047 -0.2143  0.7201
    4MOL   H107 3713   2.036   4.781   6.774 -1.0775  1.0704 -1.5894
    4MOL   H108 3714   2.278   4.943   6.663 -0.0115  0.1362 -0.8796
    4MOL   H109 3715   2.181   4.985   6.813 -1.4478 -1.3010  0.1406
    4MOL   H110 3716   1.984   5.019   6.620 -0.7548  0.9299 -1.6117
    4MOL   H111 3717   2.103   4.971   6.521 -2.2562  0.7818 -1.4899
    4MOL   H112 3718   2.139   5.186   6.489  0.1672  2.8100 -0.7408
    4MOL   H113 3719   2.255   5.151   6.604  0.4196  2.1911  0.3449
    4MOL   H114 3720   2.121   5.374   6.651  2.2286 -0.1609  2.0038
    4MOL   H115 3721   1.986   5.268   6.683 -0.3765 -0.5767 -0.0088
    4MOL   H116 3722   2.115   5.183   6.894 -0.3243  0.2208 -0.3029
    4MOL   H117 3723   2.240   5.298   6.862 -0.4594 -0.1214  0.1008
    4MOL   H118 3724   1.959   5.336   6.933  0.4192  0.0688 -2.0669
    4MOL   H119 3725   2.051   5.470   6.862 -1.8775  1.1680  1.9428
    4MOL   H120 3726   2.113   5.309   7.123  2.2505 -1.9264 -1.7289
    4MOL   H121 3727   2.200   5.448   7.046  0.0760 -1.4675  1.0090
    4MOL   O122 3728   2.055   5.509   7.275  0.0651  0.6467  0.4571
    4MOL   C123 3729   1.981   5.601   7.361  0.0909 -0.2214  0.8915
    4MOL   C124 3730   2.035   5.592   7.508 -0.1617 -0.4348 -0.0521
    4MOL   C125 3731   2.173   5.654   7.529  0.3362  0.1385  0.7904
    4MOL   C126 3732   2.214   5.673   7.677  0.3656  0.0655  0.0699
    4MOL   C127 3733   2.363   5.713   7.691  0.0426 -0.7077 -0.2103
    4MOL   C128 3734   2.394   5.764   0.073 -0.1093  0.0740  0.0059
    4MOL   C129 3735   2.540   5.805   0.090 -0.2552  0.0862  0.5698
    4MOL   C130 3736   2.586   5.788   0.235 -1.0377  0.4584  0.0223
    4MOL   C131 3737   2.722   5.868   0.251 -0.5393  0.1505  0.1404
    4MOL   C132 3738   2.784   5.853   0.397  0.2436 -0.4934 -0.8137
    4MOL   O133 3739   2.893   5.950   0.401 -0.5789 -0.6228  0.1324
    4MOL   C134 3740   2.938   5.979   0.520 -0.5956 -0.3370 -0.4044
    4MOL   O135 3741   2.917   5.920   0.627  0.2411  0.2487 -0.3788
    4MOL   C136 3742   3.029   6.099   0.507  0.2931  0.1036  0.2217
    4MOL   C137 3743   2.962   6.235   0.483 -0.0531 -0.0220  0.3411
    4MOL   C138 3744   2.844   6.242   0.382 -0.1820 -0.3706  0.1649
    4MOL   C139 3745   2.773   6.380   0.383  1.1406  0.7148 -0.4091
    4MOL   C140 3746   2.707   6.411   0.248  0.2223 -0.0158  0.3474
    4MOL   C141 3747   2.623   6.539   0.242  0.3428 -0.0813 -0.3045
    4MOL   C142 3748   2.546   6.558   0.114  0.3237  0.0630  1.1046
    4MOL   C143 3749   2.464   6.687   0.100  0.1551 -0.0299 -1.4181
    4MOL   C144 3750   2.438   6.740   7.713 -1.0547 -0.0011  0.4129
    4MOL   O145 3751   2.484   6.675   7.620  0.0263 -0.4870  0.0360
    4MOL   H146 3752   1.993   5.704   7.326  3.7615 -0.8419  0.1128
    4MOL   H147 3753   1.876   5.571   7.357 -0.8293  2.8100  0.6705
    4MOL   H148 3754   1.968   5.645   7.576  1.4517  1.3485  0.1729
    4MOL   H149 3755   2.049   5.487   7.537  1.4237 -1.1584 -3.2147
    4MOL   H150 3756   2.247   5.596   7.474  0.7006  2.5553 -1.3657
    4MOL   H151 3757   2.156   5.756   7.495 -2.3844 -1.0165 -1.5390
    4MOL   H152 3758   2.153   5.747   7.728 -0.9770 -1.0114  0.0646
    4MOL   H153 3759   2.198   5.570   7.710  1.3060 -0.2164 -0.3107
    4MOL   H154 3760   2.380   5.788   7.614  0.8355 -0.8986 -0.2169
    4MOL   H155 3761   2.424   5.630   7.655  2.4080  1.2666 -0.7799
    4MOL   H156 3762   2.366   5.692   0.150 -0.1602 -1.1508 -1.1437
    4MOL   H157 3763   2.335   5.853   0.093  0.1697 -0.4418  3.3680
    4MOL   H158 3764   2.552   5.908   0.055  0.8579 -1.2565 -3.2475
    4MOL   H159 3765   2.609   5.752   0.026 -0.1437 -0.1416  0.8777
    4MOL   H160 3766   2.605   5.685   0.265 -1.2648  0.0506 -1.2124
    4MOL   H161 3767   2.518   5.825   0.312 -1.4061  3.4379 -1.6415
    4MOL   H162 3768   2.804   5.838   0.186  0.2294 -0.9345  1.5725
    4MOL   H163 3769   2.710   5.974   0.230  1.5330  0.7773  1.9545
    4MOL   H164 3770   2.713   5.866   0.478  1.2243  0.1837 -0.0455
    4MOL   H165 3771   2.813   5.750   0.417 -0.3605 -0.2763  1.2354
    4MOL   H166 3772   3.096   6.066   0.428  0.0439  1.8055 -0.7237
    4MOL   H167 3773   3.103   6.116   0.585  1.6587 -0.4590 -0.9511
    4MOL   H168 3774   3.045   6.302   0.460 -1.5606  2.0602  0.8352
    4MOL   H169 3775   2.918   6.271   0.576  0.8729 -0.2726  0.8793
    4MOL   H170 3776   2.767   6.167   0.399  0.5995 -1.1149  0.4904
    4MOL   H171 3777   2.897   6.217   0.290 -0.1581  1.5211 -0.3473
    4MOL   H172 3778   2.843   6.460   0.409 -0.5727  2.5342 -1.2643
    4MOL   H173 3779   2.700   6.377   0.463 -0.3996  0.5292 -1.7921
    4MOL   H174 3780   2.785   6.416   0.171 -1.7416  0.1679 -1.6990
    4MOL   H175 3781   2.642   6.333   0.210 -0.9367  1.0463  0.1201
    4MOL   H176 3782   2.549   6.518   0.320 -0.1899 -0.8496 -1.0078
    4MOL   H177 3783   2.675   6.629   0.276  2.6197 -1.4839  0.0311
    4MOL   H178 3784   2.479   6.472   0.111 -0.2430  0.5205  0.4362
    4MOL   H179 3785   2.613   6.549   0.028 -0.0189 -1.2575  0.9699
    4MOL   H180 3786   2.375   6.672   0.161  0.1879 -1.5367 -1.7244
    4MOL   H181 3787   2.511   6.766   0.157 -0.4332 -0.4420 -0.3558
    4MOL   O182 3788   2.370   6.855   7.705 -0.0058 -0.1812 -0.0998
    4MOL   C183 3789   2.384   6.929   7.584 -0.6158  1.0156  0.5339
    4MOL   C184 3790   2.512   7.020   7.590 -0.4764 -0.0125 -0.2994
    4MOL   C185 3791   2.519   7.143   7.495  0.2626 -0.2683 -0.0663
    4MOL   C186 3792   2.625   7.237   7.534  0.0368 -0.5059  0.5650
    4MOL   C187 3793   2.619   7.369   7.466  0.2489 -0.1116 -0.6448
    4MOL   C188 3794   2.686   7.476   7.552  0.3092  0.5197 -0.3911
    4MOL   C189 3795   2.724   7.606   7.472 -0.8254  0.5545 -0.3035
    4MOL   C190 3796   2.639   7.726   7.458  0.1697 -0.1805 -0.4432
    4MOL   C191 3797   2.526   7.721   7.350  0.5202 -0.0348  0.0423
    4MOL   C192 3798   2.472   0.107   7.324  0.2839 -0.3332 -0.1509
    4MOL   O193 3799   2.372   0.089   7.228 -0.1410 -0.2425 -0.2820
    4MOL   C194 3800   2.358   0.173   7.121 -1.1217  0.9739 -1.2267
    4MOL   O195 3801   2.427   0.268   7.102 -0.3721  0.1763  1.0919
    4MOL   C196 3802   2.264   0.110   7.019 -0.5263 -0.0692  0.3257
    4MOL   C197 3803   2.118   0.161   7.032  0.1393 -0.4906 -0.6931
    4MOL   C198 3804   2.012   0.102   6.934  0.3330 -0.7808  0.3847
    4MOL   C199 3805   1.872   0.170   6.938 -0.2437 -0.2326 -0.2252
    4MOL   C200 3806   1.780   0.116   6.822 -0.0191 -0.2448  0.4958
    4MOL   C201 3807   1.647   0.189   6.821  0.5529 -0.4576  0.4948
    4MOL   C202 3808   1.540   0.131   6.918 -0.0386  0.2968 -1.0498
    4MOL   C203 3809   1.410   0.218   6.930 -0.3746  0.5149 -0.1407
    4MOL   C204 3810   1.301   0.193   6.824  0.2279 -0.1759  0.5948
    4MOL   O205 3811   1.258   0.081   6.795  0.2230  0.0548  0.4357
    4MOL   H206 3812   2.400   6.869   7.495 -0.5152  2.1435 -0.2213
    4MOL   H207 3813   2.306   7.002   7.564 -0.8646  1.0248  1.4758
    4MOL   H208 3814   2.513   7.066   7.689  2.6172 -1.1885  0.3002
    4MOL   H209 3815   2.605   6.963   7.583  0.2013  1.1221 -0.5802
    4MOL   H210 3816   2.522   7.122   7.388 -0.1230  1.1186 -0.3606
    4MOL   H211 3817   2.418   7.186   7.496  0.0219 -0.8244  0.7263
    4MOL   H212 3818   2.599   7.262   7.637  2.5680  1.2372  0.8127
    4MOL   H213 3819   2.729   7.206   7.536  1.1162  2.8323 -0.5505
    4MOL   H214 3820   2.512   7.386   7.454  0.0921 -2.0943 -2.3664
    4MOL   H215 3821   2.653   7.361   7.363  1.6939  0.8543 -0.2572
    4MOL   H216 3822   2.778   7.436   7.593 -1.8632 -1.1109  3.1480
    4MOL   H217 3823   2.630   7.498   7.643  1.4505  2.0781 -0.0416
    4MOL   H218 3824   2.764   7.571   7.376 -0.0583 -1.4902  0.7323
    4MOL   H219 3825   2.819   7.626   7.521  0.0579 -2.1018 -0.8356
    4MOL   H220 3826   2.701   0.055   7.432 -1.6311  1.2716 -0.0370
    4MOL   H221 3827   2.600   0.005   7.554  1.2478  0.7330 -0.3298
    4MOL   H222 3828   2.564   7.679   7.257  0.1178  1.0939 -0.6450
    4MOL   H223 3829   2.441   7.658   7.374 -0.2722  0.5416 -1.1960
    4MOL   H224 3830   2.431   0.160   7.410 -1.1265  1.0245 -1.6075
    4MOL   H225 3831   2.551   0.172   7.288  0.0789  0.5385  0.9288
    4MOL   H226 3832   2.269   0.002   7.031  0.5910 -0.1892 -1.0638
    4MOL   H227 3833   2.302   0.127   6.918  2.2736  0.0967  1.3771
    4MOL   H228 3834   2.119   0.270   7.036 -0.0410 -0.5443  1.2559
    4MOL   H229 3835   2.100   0.134   7.136  2.4290  0.2870 -0.0726
    4MOL   H230 3836   2.000   7.754   6.965  0.4835 -0.7598  0.5154
    4MOL   H231 3837   2.059   0.103   6.835 -2.2968 -0.2673 -0.8954
    4MOL   H232 3838   1.875   0.276   6.915  1.6464 -0.4479 -1.1040
    4MOL   H233 3839   1.829   0.176   7.037 -0.8898  0.7972 -0.5592
    4MOL   H234 3840   1.826   0.142   6.726 -1.8208  0.8938 -0.0839
    4MOL   H235 3841   1.768   0.009   6.839 -0.2718 -0.0511  1.5343
    4MOL   H236 3842   1.663   0.293   6.851  2.4883 -1.0888  1.7198
    4MOL   H237 3843   1.597   0.196   6.724  0.2651 -0.9465  0.6004
    4MOL   H238 3844   1.575   0.110   7.019 -2.0218  0.6294 -0.2773
    4MOL   H239 3845   1.520   0.031   6.879 -2.2400  0.6694 -0.8993
    4MOL   H240 3846   1.383   0.188   7.031 -1.3331  2.6678  0.2810
    4MOL   H241 3847   1.427   0.326   6.931 -0.0991  0.4863 -1.1004
    4MOL   O242 3848   1.268   0.306   6.763 -0.4652 -0.4610  0.5817
    4MOL   C243 3849   1.186   0.310   6.648 -0.0470  0.0539 -0.1300
    4MOL   C244 3850   1.262   0.363   6.528  0.5623  0.7109 -0.6297
    4MOL   C245 3851   1.350   0.258   6.452 -0.3863  0.1654 -0.7311
    4MOL   C246 3852   1.444   0.313   6.354  0.4423 -0.6167  0.0356
    4MOL   C247 3853   1.540   0.213   6.293  0.6333  0.2501 -0.1807
    4MOL   C248 3854   1.633   0.137   6.381 -0.3560 -0.1181  0.1617
    4MOL   C249 3855   1.731   0.057   6.301  0.1506  0.7312  0.1433
    4MOL   C250 3856   1.830   7.744   6.399  0.3423  0.5869 -0.7797
    4MOL   C251 3857   1.927   7.645   6.331 -0.1270 -0.0407  0.5573
    4MOL   C252 3858   1.988   7.544   6.430 -0.8436 -0.7257 -0.0647
    4MOL   O253 3859   2.071   7.614   6.527  0.3866 -0.7007  0.3908
    4MOL   C254 3860   2.200   7.643   6.505  0.4602 -0.1315 -0.2681
    4MOL   O255 3861   2.261   7.633   6.398  0.4960  0.4279 -0.0898
    4MOL   C256 3862   2.291   7.655   6.634  0.1425 -0.3637  0.4992
    4MOL   C257 3863   2.363   7.523   6.675  0.4273  0.1281 -0.2291
    4MOL   C258 3864   2.257   7.420   6.716  0.0944 -0.0194  0.2882
    4MOL   C259 3865   2.320   7.296   6.781 -0.1615  0.0337  0.0276
    4MOL   C260 3866   2.219   7.195   6.837 -0.2487  0.2047  0.5535
    4MOL   C261 3867   2.279   7.066   6.890 -0.5109  0.0218 -0.1820
    4MOL   C262 3868   2.378   7.095   7.011 -0.3187 -0.0843  0.1475
    4MOL   C263 3869   2.338   7.205   7.110  0.4068 -0.8753  1.0833
    4MOL   C264 3870   2.251   7.142   7.216 -0.1548  0.3147 -0.4734
    4MOL   O265 3871   2.284   7.040   7.271 -0.3713  0.4012 -0.1620
    4MOL   H266 3872   1.133   0.219   6.620  1.6387 -1.3675  1.1972
    4MOL   H267 3873   1.106   0.378   6.677  1.7975  1.0779  2.8512
    4MOL   H268 3874   1.185   0.383   6.453 -0.6339 -1.4679 -0.0470
    4MOL   H269 3875   1.331   0.439   6.562  1.3123 -0.1282 -0.2565
    4MOL   H270 3876   1.401   0.206   6.533 -1.9128  0.8570  0.6893
    4MOL   H271 3877   1.285   0.177   6.417  0.0779 -0.5157 -0.0221
    4MOL   H272 3878   1.383   0.360   6.276  0.0719 -1.3478 -0.1163
    4MOL   H273 3879   1.500   0.400   6.390 -0.3342  0.0943 -0.4425
    4MOL   H274 3880   1.596   0.265   6.215  0.1235  1.4596  0.2488
    4MOL   H275 3881   1.481   0.134   6.247  0.5523 -0.5239  1.2349
    4MOL   H276 3882   1.594   0.067   6.454  0.1305 -1.9436 -1.3030
    4MOL   H277 3883   1.687   0.210   6.442 -2.3423 -0.5047  2.4686
    4MOL   H278 3884   1.800   0.117   6.242  0.7203  1.1718  1.2444
    4MOL   H279 3885   1.680   7.745   6.232  1.1487  1.3614 -1.2471
    4MOL   H280 3886   1.768   7.685   6.467  1.1427  0.7793  0.1278
    4MOL   H281 3887   1.881   0.063   6.457 -1.6737  0.8546  0.6862
    4MOL   H282 3888   1.865   7.596   6.256 -0.4277  2.1549 -0.6710
    4MOL   H283 3889   2.003   7.695   6.272  0.1199 -3.0596 -1.7842
    4MOL   H284 3890   1.905   7.493   6.480 -1.6344 -0.7794 -1.3972
    4MOL   H285 3891   2.046   7.468   6.378  0.1879 -0.4068  0.6052
    4MOL   H286 3892   2.225   7.699   6.709  1.6135 -0.3664  1.8385
    4MOL   H287 3893   2.359   7.738   6.615 -0.1258  0.2520  2.1255
    4MOL   H288 3894   2.422   7.535   6.766 -3.4451  3.6108  1.9669
    4MOL   H289 3895   2.429   7.493   6.593  1.0711  0.7394  0.0480
    4MOL   H290 3896   2.199   7.387   6.629  1.6203 -0.9861 -0.3785
    4MOL   H291 3897   2.189   7.460   6.791  0.4990  0.0852  0.5982
    4MOL   H292 3898   2.393   7.329   6.855 -0.5573  1.2293 -0.1019
    4MOL   H293 3899   2.374   7.239   6.706 -1.2723  0.0455 -0.7934
    4MOL   H294 3900   2.159   7.238   6.917  0.7098  3.4510 -0.4268
    4MOL   H295 3901   2.152   7.165   6.757  1.5004 -1.9711 -0.1521
    4MOL   H296 3902   2.197   7.009   6.934  2.2613 -0.3888  4.8292
    4MOL   H297 3903   2.326   7.012   6.807 -0.7790  0.6180 -0.7263
    4MOL   H298 3904   2.469   7.135   6.967 -0.3473 -0.5830 -0.3759
    4MOL   H299 3905   2.410   7.005   7.062 -1.0598 -1.2277 -1.3557
    4MOL   H300 3906   2.428   7.253   7.148  1.5771 -2.3261  0.1663
    4MOL   H301 3907   2.288   7.292   7.067  1.0583  0.2575  2.5756
    4MOL   O302 3908   2.143   7.215   7.242 -0.1320 -0.1773  0.5942
    4MOL   C303 3909   2.046   7.179   7.336 -0.5023  0.3960  0.2874
    4MOL   C304 3910   1.937   7.093   7.261 -0.3693 -0.2748  0.3603
    4MOL   C305 3911   1.975   6.948   7.243  0.6779  0.0837  0.2400
    4MOL   C306 3912   1.855   6.859   7.200 -0.8966 -0.8718  0.0952
    4MOL   C307 3913   1.855   6.710   7.219  0.0950  0.0715  0.1068
    4MOL   C308 3914   1.709   6.662   7.207 -0.0531 -0.8426  0.4912
    4MOL   C309 3915   1.692   6.512   7.209 -0.2180  0.7131 -0.1156
    4MOL   C310 3916   1.546   6.472   7.192  0.3851 -0.3246 -0.4341
    4MOL   C311 3917   1.552   6.332   7.124  0.1317 -0.6920 -0.5854
    4MOL   C312 3918   1.423   6.269   7.132 -0.5664  0.1956 -0.4354
    4MOL   O313 3919   1.418   6.209   7.255 -0.6773 -0.3129 -0.4403
    4MOL   C314 3920   1.330   6.123   7.285  0.0046 -0.3933  0.5872
    4MOL   O315 3921   1.232   6.087   7.225 -0.7384  0.3534  0.1129
    4MOL   C316 3922   1.364   6.068   7.418  0.1659 -0.4643 -0.0268
    4MOL   C317 3923   1.359   6.162   7.538 -0.1357  0.1441 -0.5622
    4MOL   C318 3924   1.479   6.275   7.551 -0.4985 -0.0311 -0.2326
    4MOL   C319 3925   1.497   6.308   7.697 -0.8913  0.0418  0.0941
    4MOL   C320 3926   1.593   6.432   7.725  0.6355  0.4319 -0.3021
    4MOL   C321 3927   1.586   6.469   0.109  0.3340  0.5867  0.0077
    4MOL   C322 3928   1.666   6.597   0.151  0.1765  0.0770  0.1312
    4MOL   C323 3929   1.814   6.573   0.118  0.8506  0.3354  0.2178
    4MOL   C324 3930   1.912   6.589   0.234  0.9417 -0.0234 -0.1028
    4MOL   O325 3931   1.979   6.693   0.254 -0.6458 -0.2237 -0.3892
    4MOL   H326 3932   2.094   7.125   7.417 -0.5979 -0.9463 -0.5331
    4MOL   H327 3933   2.002   7.268   7.379 -0.2523  1.3305 -1.3278
    4MOL   H328 3934   1.848   7.095   7.324 -1.1409  0.9952 -0.7404
    4MOL   H329 3935   1.904   7.130   7.164 -2.4107 -0.1090  1.0798
    4MOL   H330 3936   2.043   6.943   7.158 -0.7107  2.1896 -1.0263
    4MOL   H331 3937   2.040   6.914   7.324  0.4347 -1.7635 -0.3119
    4MOL   H332 3938   1.766   6.903   7.244  0.2855  1.6477  0.0769
    4MOL   H333 3939   1.843   6.862   7.091  0.1258  0.6756 -0.0019
    4MOL   H334 3940   1.903   6.702   7.317 -0.3019 -3.1573  0.0968
    4MOL   H335 3941   1.923   6.661   7.149 -0.0380  2.1484 -1.5511
    4MOL   H336 3942   1.667   6.698   7.113  1.3805 -0.6918 -0.1063
    4MOL   H337 3943   1.648   6.718   7.278  0.6398  0.9240 -0.2876
    4MOL   H338 3944   1.749   6.457   7.283  2.1286  0.4574 -2.0530
    4MOL   H339 3945   1.742   6.483   7.116 -1.1752  1.2655 -0.8125
    4MOL   H340 3946   1.497   6.546   7.130 -0.4557  0.1701  0.7902
    4MOL   H341 3947   1.496   6.468   7.289  0.0617 -2.9371 -0.6748
    4MOL   H342 3948   1.585   6.346   7.021 -0.6546  0.2744 -0.7110
    4MOL   H343 3949   1.626   6.263   7.163  0.3957  0.1960  0.4998
    4MOL   H344 3950   1.337   6.332   7.109  1.6394  3.0472 -1.0671
    4MOL   H345 3951   1.421   6.192   7.055  0.8333  1.2161 -1.5231
    4MOL   H346 3952   1.468   6.036   7.413 -0.3112 -1.9102 -0.7514
    4MOL   H347 3953   1.299   5.981   7.432  0.7347 -1.0136 -0.7961
    4MOL   H348 3954   1.367   6.104   7.630  2.3080 -0.1146 -0.8851
    4MOL   H349 3955   1.266   6.219   7.535  0.8039  1.7500 -0.0211
    4MOL   H350 3956   1.457   6.356   7.481 -2.2814 -1.3611 -1.2413
    4MOL   H351 3957   1.577   6.235   7.523 -0.5594  1.1546 -2.2142
    4MOL   H352 3958   1.545   6.225   7.749  0.0770  0.2667 -0.4476
    4MOL   H353 3959   1.401   6.345   7.735 -0.5344  0.1622  0.8801
    4MOL   H354 3960   1.692   6.414   7.683  1.6900  1.8915  1.4845
    4MOL   H355 3961   1.553   6.512   7.663 -0.4736 -1.6061 -2.2996
    4MOL   H356 3962   1.481   6.482   0.133 -0.0768 -3.4947  0.7722
    4MOL   H357 3963   1.618   6.387   0.173 -2.1640 -0.8519 -0.5408
    4MOL   H358 3964   1.656   6.619   0.257 -0.7507 -2.7390  0.6856
    4MOL   H359 3965   1.620   6.675   0.091  0.2185 -1.0232 -1.3650
    4MOL   H360 3966   1.821   6.471   0.081 -2.4323  1.3333 -3.5893
    4MOL   H361 3967   1.848   6.639   0.037 -0.9788  0.6268 -0.3205
    4MOL   O362 3968   1.907   6.477   0.318 -0.0874 -0.0712 -0.1537
    4MOL   C363 3969   1.981   6.470   0.442  0.3993 -0.3000 -0.3445
    4MOL   C364 3970   1.956   6.346   0.529 -0.1927 -0.6195 -0.2151
    4MOL   C365 3971   1.805   6.335   0.578 -0.0665  0.1033  0.0203
    4MOL   C366 3972   1.791   6.211   0.671  0.2050  0.3875 -0.0892
    4MOL   C367 3973   1.639   6.180   0.707  0.4067  0.6381 -0.2275
    4MOL   C368 3974   1.624   6.093   0.832  0.0448  0.1375  0.2376
    4MOL   C369 3975   1.472   6.067   0.874  0.1602 -0.7694 -0.4977
    4MOL   C370 3976   1.413   5.950   0.794 -0.6774  0.6055  0.4120
    4MOL   C371 3977   1.266   5.923   0.818  0.8480  0.6142 -0.0832
    4MOL   C372 3978   1.205   5.815   0.726 -0.5522  0.6441 -0.2190
    4MOL   O373 3979   1.085   5.773   0.775  0.2119 -0.0287 -0.3485
    4MOL   C374 3980   1.058   5.639   0.788 -0.8440 -0.3794 -0.1991
    4MOL   O375 3981   1.121   5.553   0.734  0.0398 -0.1908  0.6729
    4MOL   C376 3982   0.929   5.621   0.863  0.6123  0.0857  0.0986
    4MOL   C377 3983   0.836   5.505   0.813 -0.3202 -0.8106  0.1306
    4MOL   C378 3984   0.690   5.504   0.865  0.0908  0.5378 -0.8302
    4MOL   C379 3985   0.601   5.611   0.810  0.0949 -0.0110 -0.8025
    4MOL   C380 3986   0.468   5.642   0.879 -0.2894  0.6763 -0.9244
    4MOL   C381 3987   0.384   5.747   0.801 -0.0930 -0.3186  0.1507
    4MOL   C382 3988   0.253   5.783   0.873  0.0027  0.1320 -0.0668
    4MOL   C383 3989   0.147   5.675   0.863 -0.7569  0.5220  0.1171
    4MOL   C384 3990   0.042   5.709   0.969  0.3237 -0.3172  0.0171
    4MOL   O385 3991   0.057   5.674   1.084 -0.4738  0.1129 -0.5636
    4MOL   H386 3992   2.085   6.462   0.411  0.8224  1.8617  0.3763
    4MOL   H387 3993   1.975   6.562   0.501  4.0301 -0.6643  0.7611
    4MOL   H388 3994   1.978   6.260   0.465 -0.2880  0.4063 -1.6698
    4MOL   H389 3995   2.020   6.338   0.616 -0.5998  0.7238  0.2174
    4MOL   H390 3996   1.781   6.423   0.637 -0.9449 -0.4942  0.5828
    4MOL   H391 3997   1.732   6.333   0.497  2.8955  1.7687 -2.7599
    4MOL   H392 3998   1.837   6.122   0.628  1.8475  1.1557  0.0380
    4MOL   H393 3999   1.839   6.216   0.769 -0.7895 -1.4997  0.5212
    4MOL   H394 4000   1.600   6.127   0.621 -0.2040  1.5265 -0.5124
    4MOL   H395 4001   1.605   6.284   0.712  2.2891  1.3567 -1.7345
    4MOL   H396 4002   1.664   6.152   0.915  1.5051 -2.1609  1.2244
    4MOL   H397 4003   1.684   6.002   0.836 -1.1446 -0.6331  1.2137
    4MOL   H398 4004   1.408   6.152   0.850  0.4406 -0.2195  0.6697
    4MOL   H399 4005   1.457   6.064   0.981  1.4467 -0.0772 -0.2899
    4MOL   H400 4006   1.479   5.865   0.812  1.1308  1.6565 -1.0653
    4MOL   H401 4007   1.426   5.970   0.688 -2.3354  1.4876  0.3558
    4MOL   H402 4008   1.251   5.899   0.923 -1.2928 -0.2011 -0.5427
    4MOL   H403 4009   1.208   6.014   0.802 -1.5016 -1.2428 -2.6338
    4MOL   H404 4010   1.194   5.865   0.630  2.2968  1.2261 -0.2833
    4MOL   H405 4011   1.276   5.734   0.711 -0.3639  0.4526  1.6016
    4MOL   H406 4012   0.879   5.718   0.860  0.7165  0.2135  2.2311
    4MOL   H407 4013   0.958   5.606   0.967  1.0522 -0.4845 -0.1018
    4MOL   H408 4014   0.880   5.412   0.849 -1.1130 -0.5516  1.7990
    4MOL   H409 4015   0.819   5.505   0.705  0.6175 -0.9106 -0.0252
    4MOL   H410 4016   0.688   5.531   0.970 -1.1104  1.9945 -1.2190
    4MOL   H411 4017   0.655   5.402   0.849  0.8148  0.2589 -0.6517
    4MOL   H412 4018   0.580   5.595   0.704 -1.1781 -1.1956 -0.3777
    4MOL   H413 4019   0.668   5.697   0.812 -0.9966  0.8388 -0.4587
    4MOL   H414 4020   0.410   5.550   0.886 -0.4118  0.6567 -2.1363
    4MOL   H415 4021   0.492   5.667   0.983  2.5786 -0.0063 -1.3833
    4MOL   H416 4022   0.438   5.842   0.800 -0.8209  0.0917 -0.1820
    4MOL   H417 4023   0.370   5.721   0.696  1.2248  0.0594 -0.1274
    4MOL   H418 4024   0.216   5.880   0.840  0.3479 -0.4081 -2.0866
    4MOL   H419 4025   0.275   5.797   0.979 -1.9857  3.7084 -0.0533
    4MOL   H420 4026   0.097   5.664   0.767  0.4149 -0.0920 -0.4412
    4MOL   H421 4027   0.179   5.576   0.896  1.3292  1.1852  0.1808
    4MOL   O422 4028   7.698   5.781   0.912 -0.5246  0.5556 -0.3987
    4MOL   C423 4029   7.589   5.821   0.990  0.1260 -0.4231  0.2624
    4MOL   C424 4030   7.495   5.704   1.012 -0.1521 -0.0354 -0.3452
    4MOL   C425 4031   7.354   5.746   1.067  0.0969  0.7964  0.1343
    4MOL   C426 4032   7.266   5.630   1.125  0.1505 -0.1907  0.3583
    4MOL   C427 4033   7.189   5.542   1.023 -0.1237 -0.7469 -0.3537
    4MOL   C428 4034   7.117   5.427   1.086 -0.2805  0.2047  0.1046
    4MOL   C429 4035   6.987   5.475   1.155 -0.0496  0.1280  0.0113
    4MOL   C430 4036   6.904   5.366   1.204  0.1883 -0.1256  0.0994
    4MOL   C431 4037   6.770   5.411   1.275  0.6454  0.1519  0.5643
    4MOL   C432 4038   6.663   5.301   1.259 -0.1106  0.3802 -0.5652
    4MOL   O433 4039   6.597   5.286   1.133  0.1699  0.1693  0.4662
    4MOL   C434 4040   6.506   5.373   1.094 -0.0772 -0.2402 -0.5414
    4MOL   O435 4041   6.454   5.466   1.160 -0.0391  0.5716 -0.4653
    4MOL   C436 4042   6.460   5.346   0.948  0.0961  0.3537 -0.5627
    4MOL   C437 4043   6.576   5.366   0.848  0.0196 -1.1170  0.6474
    4MOL   C438 4044   6.637   5.510   0.858 -0.4277  0.1324 -0.1680
    4MOL   C439 4045   6.759   5.529   0.767 -0.9918 -0.6814 -0.0448
    4MOL   C440 4046   6.816   5.675   0.777  0.3532  0.6310 -0.1335
    4MOL   C441 4047   6.926   5.694   0.677  0.1541  0.1437 -0.0966
    4MOL   C442 4048   6.997   5.829   0.673 -0.8022  0.1303 -0.5132
    4MOL   C443 4049   7.102   5.858   0.786  0.3952 -0.2197 -0.2998
    4MOL   C444 4050   7.168   5.996   0.778 -0.7797 -0.7081 -0.3072
    4MOL   O445 4051   7.283   6.008   0.734  0.0336 -0.9002 -0.4979
    4MOL   H446 4052   7.636   5.856   1.081  0.0660 -0.1281  0.1791
    4MOL   H447 4053   7.538   5.899   0.932 -1.0937 -2.1846 -1.1035
    4MOL   H448 4054   7.475   5.646   0.922  0.2327  0.3720 -0.6969
    4MOL   H449 4055   7.532   5.635   1.088 -0.8229  0.2568  0.2509
    4MOL   H450 4056   7.367   5.812   1.152 -1.0059  0.1006  0.8559
    4MOL   H451 4057   7.298   5.797   0.990 -0.9622 -0.6065 -0.0492
    4MOL   H452 4058   7.337   5.575   1.186  0.6832  0.5019  0.3639
    4MOL   H453 4059   7.198   5.687   1.188  1.6083  1.2345  0.6709
    4MOL   H454 4060   7.259   5.498   0.952 -0.8724 -0.7085 -1.1175
    4MOL   H455 4061   7.131   5.601   0.953  2.6071 -0.2717 -2.3030
    4MOL   H456 4062   7.174   5.368   1.158  0.4762  0.7842 -0.0179
    4MOL   H457 4063   7.095   5.357   1.005  1.6311 -0.5257  0.1765
    4MOL   H458 4064   6.926   5.526   1.080 -0.5596 -0.6803 -0.1244
    4MOL   H459 4065   7.008   5.548   1.234  0.4322  0.7467 -0.6770
    4MOL   H460 4066   6.966   5.317   1.279  0.1687  0.8036  0.7342
    4MOL   H461 4067   6.881   5.294   1.126 -0.3382  0.4887 -0.3171
    4MOL   H462 4068   6.794   5.435   1.379 -2.3432 -0.7300  1.4936
    4MOL   H463 4069   6.732   5.503   1.232  0.5052  0.0007  0.3643
    4MOL   H464 4070   6.703   5.204   1.287 -1.0158  0.6941  1.9148
    4MOL   H465 4071   6.594   5.318   1.342 -0.3556 -1.0107 -0.4804
    4MOL   H466 4072   6.376   5.411   0.926 -0.4670 -0.7125 -1.6438
    4MOL   H467 4073   6.423   5.243   0.943 -0.5472  0.3729  2.6784
    4MOL   H468 4074   6.525   5.349   0.753  0.0504 -3.1426  0.9754
    4MOL   H469 4075   6.659   5.302   0.878  1.1684 -0.1442 -0.3999
    4MOL   H470 4076   6.660   5.532   0.962 -3.3723 -0.0887  0.5703
    4MOL   H471 4077   6.569   5.594   0.842  0.1218  0.8624  1.2674
    4MOL   H472 4078   6.741   5.511   0.661 -3.0654  0.1599  0.1270
    4MOL   H473 4079   6.837   5.460   0.800 -2.4161 -1.7240  1.2331
    4MOL   H474 4080   6.740   5.753   0.781 -0.3792  0.0586 -1.9292
    4MOL   H475 4081   6.861   5.680   0.876  1.9454  0.9301 -0.8621
    4MOL   H476 4082   7.002   5.621   0.706 -0.5707  0.2688  2.1638
    4MOL   H477 4083   6.897   5.664   0.576  2.3197 -0.5062 -0.5628
    4MOL   H478 4084   6.928   5.912   0.678  1.4312  1.8795  3.4990
    4MOL   H479 4085   7.034   5.846   0.571 -1.4039 -1.3772 -0.9868
    4MOL   H480 4086   7.054   5.854   0.883 -2.0871 -2.2576 -1.5395
    4MOL   H481 4087   7.182   5.784   0.781  1.4963  0.9535 -0.2958
    4MOL   O482 4088   7.093   6.094   0.829  0.5858  0.3765  0.2418
    4MOL   C483 4089   7.140   6.221   0.817  0.6737  0.1778  0.2911
    4MOL   C484 4090   7.254   6.266   0.908 -0.4035 -0.1847 -0.0517
    4MOL   C485 4091   7.228   6.249   1.055 -0.1308 -0.0546 -0.0460
    4MOL   C486 4092   7.343   6.303   1.141  0.4918 -0.1814 -0.3921
    4MOL   C487 4093   7.458   6.212   1.167  0.7340  0.3145  0.2404
    4MOL   C488 4094   7.555   6.278   1.260  0.2843 -0.7304  0.2010
    4MOL   C489 4095   7.677   6.184   1.297 -0.2335  1.0535  0.0725
    4MOL   C490 4096   0.024   6.166   1.189 -0.7328  0.0809 -0.0516
    4MOL   C491 4097   0.164   6.102   1.233  0.4743  0.5871 -0.6057
    4MOL   C492 4098   0.276   6.127   1.121 -0.2926 -0.2821  0.6120
    4MOL   O493 4099   0.316   6.265   1.115  1.0449  0.2752 -0.2568
    4MOL   C494 4100   0.414   6.309   1.195 -0.7819  0.5674 -0.1645
    4MOL   O495 4101   0.488   6.234   1.265 -0.4078  0.4063 -0.3507
    4MOL   C496 4102   0.443   6.465   1.190 -0.7312 -0.0435  0.4118
    4MOL   C497 4103   0.581   6.498   1.258  0.0343 -0.1065 -0.6987
    4MOL   C498 4104   0.616   6.642   1.254  0.3423 -0.0665 -0.3367
    4MOL   C499 4105   0.543   6.719   1.361  0.2300  0.4220 -0.4513
    4MOL   C500 4106   0.607   6.858   1.376 -0.1222 -0.1042 -0.5477
    4MOL   C501 4107   0.626   6.939   1.244  0.0788  0.2827  0.2058
    4MOL   C502 4108   0.653   7.087   1.279  0.0839 -0.1398  0.0656
    4MOL   C503 4109   0.785   7.123   1.358 -0.0539  0.3337 -0.2861
    4MOL   C504 4110   0.776   7.114   1.503  0.0721 -0.5286  0.0922
    4MOL   O505 4111   0.671   7.140   1.566 -0.2137 -0.3030  0.1840
    4MOL   H506 4112   7.165   6.234   0.712  4.6886  0.0276  1.1438
    4MOL   H507 4113   7.065   6.298   0.836  0.5131  0.2201 -0.4818
    4MOL   H508 4114   7.338   6.204   0.878 -0.1781  0.1091 -0.0203
    4MOL   H509 4115   7.280   6.368   0.882  0.8968 -0.1549  1.3316
    4MOL   H510 4116   7.134   6.305   1.067 -1.6968 -1.4987 -4.7336
    4MOL   H511 4117   7.211   6.145   1.081  3.2611 -0.6368  0.0614
    4MOL   H512 4118   7.372   6.400   1.100 -0.5478  0.2959 -0.0066
    4MOL   H513 4119   7.299   6.329   1.238  0.0391 -0.2856 -0.5720
    4MOL   H514 4120   7.502   6.192   1.068 -1.9719  0.9522 -1.1260
    4MOL   H515 4121   7.420   6.117   1.204  1.4686 -0.2112 -0.3281
    4MOL   H516 4122   7.513   6.302   1.357 -1.0101 -1.1074 -0.2661
    4MOL   H517 4123   7.592   6.373   1.221 -2.8742 -0.1850 -1.5710
    4MOL   H518 4124   7.644   6.082   1.312  0.7151  0.6235 -0.6718
    4MOL   H519 4125   7.731   6.214   1.387 -1.0403  0.2779  0.8208
    4MOL   H520 4126   0.043   6.266   1.149  1.1041 -0.5876 -0.8750
    4MOL   H521 4127   7.734   6.115   1.106 -4.0409  1.8391  0.6367
    4MOL   H522 4128   0.198   6.156   1.321 -0.4647  1.7477 -0.9450
    4MOL   H523 4129   0.157   5.995   1.256  0.5440  0.2722 -2.0307
    4MOL   H524 4130   0.368   6.070   1.135 -0.6349 -1.7592 -2.7372
    4MOL   H525 4131   0.242   6.102   1.021 -0.0215  0.6894  0.2721
    4MOL   H526 4132   0.373   6.524   1.249 -0.4743 -0.3402  1.0206
    4MOL   H527 4133   0.435   6.498   1.086 -1.1793 -0.8932  0.1687
    4MOL   H528 4134   0.659   6.435   1.215  2.0209  2.8477 -1.5495
    4MOL   H529 4135   0.579   6.463   1.362 -0.5586 -0.7355 -0.9221
    4MOL   H530 4136   0.604   6.688   1.155  1.4112 -0.3238 -0.5924
    4MOL   H531 4137   0.724   6.652   1.270  0.2801  0.3936 -0.1999
    4MOL   H532 4138   0.549   6.673   1.460  1.1562  2.4266  0.4373
    4MOL   H533 4139   0.441   6.732   1.324  0.7625 -0.2382 -2.2426
    4MOL   H534 4140   0.540   6.915   1.441 -0.2109 -0.5470 -0.2420
    4MOL   H535 4141   0.695   6.859   1.440 -0.8016 -0.6148  0.4029
    4MOL   H536 4142   0.711   6.897   1.190 -0.9041 -1.1013 -0.2979
    4MOL   H537 4143   0.539   6.930   1.179 -0.1046  1.1799  0.3138
    4MOL   H538 4144   0.566   7.111   1.341  0.1536 -1.4955  0.7074
    4MOL   H539 4145   0.630   7.155   1.196  0.7582  1.8874  1.5078
    4MOL   H540 4146   0.879   7.081   1.321 -0.6687 -0.2604 -1.1950
    4MOL   H541 4147   0.788   7.231   1.346 -1.5030  0.3866 -0.2068
    4MOL   O542 4148   0.881   7.073   1.556 -0.0281 -0.2046  0.2839
    4MOL   C543 4149   0.883   7.049   1.694 -0.2459  0.0596  0.3114
    4MOL   C544 4150   1.018   6.988   1.741  0.3696 -0.8913 -0.2358
    4MOL   C545 4151   1.126   7.094   1.743 -0.3786 -0.8903  0.0875
    4MOL   C546 4152   1.264   7.037   1.774 -0.2648 -0.0602 -0.5000
    4MOL   C547 4153   1.282   7.000   1.917 -0.2530  0.2810 -0.3777
    4MOL   C548 4154   1.383   6.883   1.936 -0.0962 -0.0697 -0.3821
    4MOL   C549 4155   1.399   6.846   2.089  1.1362 -0.0528 -0.0685
    4MOL   C550 4156   1.533   6.801   2.128 -0.1815  0.2005  0.3497
    4MOL   C551 4157   1.537   6.740   2.274 -0.7829 -0.6244 -0.5137
    4MOL   C552 4158   1.681   6.723   2.328 -0.3163 -0.4548 -0.3751
    4MOL   O553 4159   1.730   6.846   2.369  0.2789  0.0965 -0.0769
    4MOL   C554 4160   1.852   6.889   2.328 -0.5736  0.6706 -0.0098
    4MOL   O555 4161   1.931   6.839   2.248 -0.4998  0.4192 -0.4038
    4MOL   C556 4162   1.883   7.028   2.379 -0.0512 -0.6301 -0.0238
    4MOL   C557 4163   1.786   7.145   2.354  0.8128 -0.8106  0.5181
    4MOL   C558 4164   1.782   7.166   2.206 -0.3221  0.2175  0.0453
    4MOL   C559 4165   1.719   7.298   2.169 -0.0388  0.0961  0.1974
    4MOL   C560 4166   1.676   7.320   2.021 -0.4653  0.6797  0.0503
    4MOL   C561 4167   1.585   7.432   1.998  0.2050 -0.0628  0.4970
    4MOL   C562 4168   1.508   7.417   1.871  0.1922  0.0672 -0.0045
    4MOL   C563 4169   1.383   7.508   1.838  0.1936  0.1331  0.3183
    4MOL   C564 4170   1.256   7.464   1.904  0.1563 -0.4352  0.3706
    4MOL   O565 4171   1.243   7.363   1.977  0.5948 -0.1195 -0.0178
    4MOL   H566 4172   0.865   7.140   1.751 -0.6924 -1.0334  1.9526
    4MOL   H567 4173   0.805   6.974   1.708  1.6863 -1.8428  1.3295
    4MOL   H568 4174   1.008   6.947   1.842 -0.6092  0.9452  0.4487
    4MOL   H569 4175   1.042   6.904   1.676  0.7942 -0.0808 -1.1269
    4MOL   H570 4176   1.133   7.147   1.648  2.1171 -0.3649  0.5181
    4MOL   H571 4177   1.103   7.166   1.822  0.3852 -0.0087 -0.4873
    4MOL   H572 4178   1.273   6.944   1.716  0.9133 -0.7555  0.7787
    4MOL   H573 4179   1.345   7.103   1.743 -2.2187  1.7406 -1.9495
    4MOL   H574 4180   1.190   6.965   1.965 -1.2681 -0.3257 -2.7394
    4MOL   H575 4181   1.307   7.095   1.966 -5.2251  2.4154 -1.6645
    4MOL   H576 4182   1.476   6.920   1.892 -0.7687  1.7096 -0.3477
    4MOL   H577 4183   1.355   6.794   1.879 -0.2127  0.0390 -0.4942
    4MOL   H578 4184   1.331   6.770   2.128  3.1706 -2.4634 -1.0556
    4MOL   H579 4185   1.369   6.934   2.147 -2.4457  0.2931 -2.2898
    4MOL   H580 4186   1.604   6.882   2.118 -1.7188  1.4367 -0.9909
    4MOL   H581 4187   1.572   6.726   2.059 -2.2602 -0.3285 -0.3138
    4MOL   H582 4188   1.486   6.811   2.339 -2.4930  0.1396 -2.6176
    4MOL   H583 4189   1.482   6.646   2.271  0.2023 -1.2649  1.2837
    4MOL   H584 4190   1.675   6.651   2.409  1.1144  0.2177  0.3561
    4MOL   H585 4191   1.742   6.689   2.244 -0.3977 -2.4196  0.3362
    4MOL   H586 4192   1.981   7.059   2.342  0.5464  1.1603  2.9094
    4MOL   H587 4193   1.900   7.021   2.486  0.2817 -1.1959 -0.1137
    4MOL   H588 4194   1.818   7.241   2.396  0.8462  0.0343 -1.3806
    4MOL   H589 4195   1.686   7.132   2.394  1.3779 -1.3133  1.7755
    4MOL   H590 4196   1.719   7.087   2.164  0.9837 -1.8104  1.7743
    4MOL   H591 4197   1.884   7.158   2.168 -1.4296 -3.3523 -2.4962
    4MOL   H592 4198   1.787   7.381   2.191  0.8708 -0.7007  0.4144
    4MOL   H593 4199   1.626   7.299   2.227  1.0727 -4.0377  2.2408
    4MOL   H594 4200   1.765   7.325   1.959 -1.6247 -0.4448 -1.7695
    4MOL   H595 4201   1.637   7.224   1.988 -0.4306  0.2086  1.3714
    4MOL   H596 4202   1.519   7.436   2.085  0.7747  1.8932  0.8634
    4MOL   H597 4203   1.642   7.525   1.999 -0.0669  0.1166 -0.2811
    4MOL   H598 4204   1.472   7.315   1.857  0.6602  0.0452 -1.1231
    4MOL   H599 4205   1.572   7.436   1.785 -1.3296 -0.0120 -1.1673
    4MOL   H600 4206   1.404   7.610   1.870 -0.7746  0.0655  1.2205
    4MOL   H601 4207   1.372   7.505   1.729  0.5280 -0.1636  0.2922
    4MOL   O602 4208   1.160   7.548   1.875 -0.0081  0.1806  0.7036
    4MOL   C603 4209   1.027   7.526   1.923  0.2894  0.1989 -0.7665
    4MOL   C604 4210   1.024   7.607   2.052 -0.6150  0.0289  0.6991
    4MOL   C605 4211   0.880   7.617   2.112  0.1777 -0.3483  0.0086
    4MOL   C606 4212   0.887   7.643   2.263 -0.5156  0.1142  0.6598
    4MOL   C607 4213   0.763   7.697   2.331  0.0144  0.5390  0.4532
    4MOL   C608 4214   0.781   7.714   2.486  0.1568 -0.3779 -0.1045
    4MOL   C609 4215   0.672   0.034   2.562 -0.6882 -0.5505  0.1392
    4MOL   C610 4216   0.653   0.182   2.522  0.6905  0.2923 -0.2554
    4MOL   C611 4217   0.522   0.244   2.583 -0.0704 -0.3602  0.7252
    4MOL   C612 4218   0.529   0.398   2.588  0.0103  0.4064 -0.5046
    4MOL   O613 4219   0.404   0.446   2.615  0.4972 -0.3082 -0.1925
    4MOL   C614 4220   0.389   0.549   2.704  0.1540  0.3622  0.2798
    4MOL   O615 4221   0.477   0.600   2.773 -0.3873  0.3705 -0.7044
    4MOL   C616 4222   0.243   0.597   2.702  0.2841 -0.0345  0.1184
    4MOL   C617 4223   0.182   0.664   2.829 -0.5954  0.0195  0.3168
    4MOL   C618 4224   0.174   0.581   2.964 -0.2036  0.7242  0.5989
    4MOL   C619 4225   0.043   0.494   2.977 -0.3059  0.0482  0.8328
    4MOL   C620 4226   0.026   0.429   3.112  0.0279 -0.0700  0.1688
    4MOL   C621 4227   7.706   0.293   3.112 -0.9128 -0.4377  0.4652
    4MOL   C622 4228   7.625   0.275   3.243  0.2861  0.3855  0.1240
    4MOL   C623 4229   7.704   0.285   3.378  0.2940  0.5360  0.3765
    4MOL   C624 4230   0.061   0.180   3.386  0.4350  0.1145 -0.0964
    4MOL   O625 4231   0.177   0.211   3.415  0.1401 -0.2568  0.5517
    4MOL   H626 4232   0.964   7.559   1.840  0.6271 -1.0427 -1.5330
    4MOL   H627 4233   1.003   7.421   1.939 -0.4021  0.2433 -1.5159
    4MOL   H628 4234   1.086   7.560   2.129 -0.4049 -0.3929  0.2729
    4MOL   H629 4235   1.053   7.710   2.031 -0.6674 -0.2211 -0.6163
    4MOL   H630 4236   0.826   7.694   2.057 -1.4294 -2.1167 -0.9654
    4MOL   H631 4237   0.817   7.530   2.093 -0.2929  0.0766 -0.3863
    4MOL   H632 4238   0.908   7.549   2.314 -3.1177  0.0276  1.6509
    4MOL   H633 4239   0.967   7.711   2.290  0.1632 -0.1940 -0.5655
    4MOL   H634 4240   0.685   7.624   2.313  0.3578  0.0278  1.0014
    4MOL   H635 4241   0.735   0.032   2.279 -1.4247 -0.6659 -0.9484
    4MOL   H636 4242   0.879   0.002   2.505 -1.0098  1.9844  0.4523
    4MOL   H637 4243   0.786   7.616   2.533  3.8087 -0.4430 -0.4670
    4MOL   H638 4244   0.707   0.033   2.665 -0.3692 -3.0194  0.0510
    4MOL   H639 4245   0.582   7.735   2.587 -1.2694  0.0962 -0.5013
    4MOL   H640 4246   0.637   0.175   2.414 -0.2822 -0.0597 -0.1001
    4MOL   H641 4247   0.736   0.239   2.564  0.8075  0.3700 -0.5890
    4MOL   H642 4248   0.433   0.211   2.530  1.5667 -1.1156 -1.6018
    4MOL   H643 4249   0.508   0.198   2.681 -3.5203 -0.8752  0.0518
    4MOL   H644 4250   0.608   0.424   2.657  0.4077 -1.1371 -0.3764
    4MOL   H645 4251   0.552   0.429   2.486  1.9250 -0.2002 -0.2746
    4MOL   H646 4252   0.171   0.519   2.678 -1.6235  1.2078  1.6637
    4MOL   H647 4253   0.224   0.668   2.621 -0.7196  0.9557  1.2102
    4MOL   H648 4254   0.078   0.693   2.814 -0.5969 -0.8204 -1.4870
    4MOL   H649 4255   0.245   0.752   2.840  1.6834 -1.6116  0.6778
    4MOL   H650 4256   0.161   0.643   3.053 -1.4614  3.8205 -1.6604
    4MOL   H651 4257   0.265   0.527   2.990  0.1492 -0.7194 -3.3288
    4MOL   H652 4258   0.036   0.422   2.894 -0.4236  1.0816 -0.0658
    4MOL   H653 4259   7.716   0.563   2.966 -0.7388  0.0058  3.5768
    4MOL   H654 4260   0.121   0.411   3.161  1.4743  1.9336 -1.8119
    4MOL   H655 4261   7.729   0.496   3.180  0.8349  1.5977 -0.8108
    4MOL   H656 4262   7.639   0.284   3.026 -0.8486  0.1152  0.3519
    4MOL   H657 4263   0.022   0.213   3.100 -0.4648 -0.0992  0.9115
    4MOL   H658 4264   7.586   0.173   3.245  1.6075 -0.1810 -1.0853
    4MOL   H659 4265   7.539   0.341   3.249  0.1196  0.1989 -0.1958
    4MOL   H660 4266   7.747   0.384   3.395 -0.0722  0.4284  1.9839
    4MOL   H661 4267   7.630   0.280   3.458  0.8989 -2.4275  0.7980
    4MOL   O662 4268   0.022   0.057   3.362  0.3442  0.4090  0.4824
    4MOL   C663 4269   0.118   7.714   3.364 -0.2301 -0.6176  0.1227
    4MOL   C664 4270   0.149   7.680   3.216  0.6054 -0.6218 -0.3129
    4MOL   C665 4271   0.255   7.571   3.202 -0.1789  0.1550 -0.3819
    4MOL   C666 4272   0.298   7.539   3.055 -0.3929  0.0740 -0.4184
    4MOL   C667 4273   0.430   7.457   3.053  0.2665  0.4987 -0.7118
    4MOL   C668 4274   0.491   7.446   2.913  0.2938 -0.2978  0.2030
    4MOL   C669 4275   0.641   7.429   2.904  0.6131 -0.2673  0.0282
    4MOL   C670 4276   0.705   7.570   2.925 -0.5854 -0.0375 -0.6722
    4MOL   C671 4277   0.855   7.566   2.905  0.4070  0.2697  0.3111
    4MOL   C672 4278   0.923   7.688   2.953  0.6351  0.8341 -0.0267
    4MOL   O673 4279   1.058   7.689   2.935 -0.1272  0.4314 -0.3993
    4MOL   C674 4280   1.116   0.012   2.849 -0.9024 -0.1681  0.6197
    4MOL   O675 4281   1.059   0.095   2.775 -0.1543  0.1558 -0.5557
    4MOL   C676 4282   1.269   0.007   2.856  0.0636  0.6436 -0.2358
    4MOL   C677 4283   1.341   0.129   2.792 -0.0689  0.3079  0.0650
    4MOL   C678 4284   1.488   0.116   2.811 -0.5920  0.0697 -0.3144
    4MOL   C679 4285   1.559   0.234   2.739 -0.9558 -0.5704  0.5008
    4MOL   C680 4286   1.705   0.230   2.791 -0.1639 -0.0503 -0.1636
    4MOL   C681 4287   1.791   0.359   2.758 -0.2965  0.5404  0.2766
    4MOL   C682 4288   1.939   0.339   2.799 -0.7627  0.4258  0.5901
    4MOL   C683 4289   2.017   0.454   2.752 -0.0881 -0.3076  0.0028
    4MOL   C684 4290   2.060   0.448   2.602  0.3625 -0.1938 -0.1392
    4MOL   O685 4291   2.024   0.529   2.523 -0.0290 -0.0471  0.2124
    4MOL   H686 4292   0.211   7.738   3.415  1.0720  0.0920 -2.4918
    4MOL   H687 4293   0.071   7.628   3.413  1.5658 -1.6778  0.0364
    4MOL   H688 4294   0.057   7.637   3.175 -0.5975 -0.7009  2.3930
    4MOL   H689 4295   0.180   0.010   3.158  1.8209 -1.1939 -0.5265
    4MOL   H690 4296   0.346   7.614   3.244  0.2871  1.8202 -3.0105
    4MOL   H691 4297   0.234   7.479   3.257 -0.5478  1.2064  1.2467
    4MOL   H692 4298   0.223   7.475   3.008  0.5423 -0.1205 -1.6589
    4MOL   H693 4299   0.293   7.636   3.006  0.9167  0.4476  0.1545
    4MOL   H694 4300   0.402   7.356   3.083  0.5046  0.6007 -0.1344
    4MOL   H695 4301   0.500   7.490   3.130 -1.5662  0.8608  0.8405
    4MOL   H696 4302   0.467   7.530   2.846 -0.1651 -0.2723  0.3981
    4MOL   H697 4303   0.448   7.365   2.855  1.4720  0.5093 -1.8631
    4MOL   H698 4304   0.672   7.390   2.807 -0.4757 -2.7374  0.6442
    4MOL   H699 4305   0.680   7.361   2.979 -0.0607  1.7727  2.2816
    4MOL   H700 4306   0.676   7.611   3.022  0.3935 -1.5858  0.3018
    4MOL   H701 4307   0.662   7.644   2.858 -1.6830  2.1142  2.2847
    4MOL   H702 4308   0.894   7.473   2.945  1.4312 -0.1465 -1.5939
    4MOL   H703 4309   0.889   7.557   2.802  0.4722  0.8014  0.2839
    4MOL   H704 4310   0.879   0.020   2.908 -1.5464  0.0872  0.5761
    4MOL   H705 4311   0.892   7.692   3.058 -0.4695 -0.4320 -0.2863
    4MOL   H706 4312   1.310   7.678   2.802 -2.2132  0.5933 -1.9779
    4MOL   H707 4313   1.285   0.003   2.963 -0.9220 -0.0368 -0.1120
    4MOL   H708 4314   1.307   0.221   2.840  1.4067 -0.0403  1.7853
    4MOL   H709 4315   1.314   0.148   2.688  1.6347 -0.1651 -0.4729
    4MOL   H710 4316   1.523   0.021   2.770  4.4822  1.9205 -0.5917
    4MOL   H711 4317   1.513   0.124   2.917  0.0791 -0.0677 -0.4612
    4MOL   H712 4318   1.510   0.329   2.757 -0.4168 -0.1158 -0.3770
    4MOL   H713 4319   1.562   0.213   2.632  1.5152 -1.2986  0.6660
    4MOL   H714 4320   1.714   0.208   2.897 -0.5548  0.0253 -0.1153
    4MOL   H715 4321   1.753   0.141   2.749 -0.9367  0.1492 -1.4907
    4MOL   H716 4322   1.784   0.388   2.653 -0.7195  1.7561  0.6295
    4MOL   H717 4323   1.754   0.441   2.820 -0.0439 -0.3665  1.6350
    4MOL   H718 4324   1.977   0.243   2.765 -0.7999  0.5591  0.1679
    4MOL   H719 4325   1.948   0.334   2.907 -1.8053  0.3309  0.6753
    4MOL   H720 4326   1.965   0.547   2.774 -0.5597 -0.4071 -0.6626
    4MOL   H721 4327   2.112   0.465   2.804 -0.4843  1.6185  0.3669
    4MOL   O722 4328   2.150   0.356   2.573 -0.1155  0.3228  0.1589
    4MOL   C723 4329   2.214   0.343   2.450 -0.0171 -0.4290  0.4512
    4MOL   C724 4330   2.343   0.429   2.440  0.1493  0.8303 -0.0517
    4MOL   C725 4331   2.414   0.414   2.300  0.7317 -0.1434  0.5513
    4MOL   C726 4332   2.501   0.531   2.257 -0.9845  0.0605 -0.0891
    4MOL   C727 4333   2.584   0.502   2.135  0.7081 -0.0649 -0.5681
    4MOL   C728 4334   2.687   0.610   2.092 -0.1693 -0.3132 -0.1955
    4MOL   C729 4335   2.802   0.552   2.009  0.4973  0.3040 -0.2718
    4MOL   C730 4336   2.893   0.644   1.936  0.0199  0.1013  0.7705
    4MOL   C731 4337   2.987   0.572   1.838  0.2509 -0.5750  0.9840
    4MOL   C732 4338   3.132   0.629   1.827 -0.1387 -0.1200  0.2241
    4MOL   O733 4339   3.194   0.623   1.954 -0.7197 -0.4120 -0.3230
    4MOL   C734 4340   3.330   0.644   1.969 -0.4576  0.6923 -0.1371
    4MOL   O735 4341   3.411   0.676   1.883  0.2687 -0.2094  0.4612
    4MOL   C736 4342   3.377   0.641   2.111  0.6679 -0.7944  0.2112
    4MOL   C737 4343   3.436   0.779   2.165  0.5510  0.0455  0.1249
    4MOL   C738 4344   3.351   0.910   2.142 -0.1478 -0.2147  0.2692
    4MOL   C739 4345   3.238   0.922   2.242 -0.1920  0.4207 -0.1292
    4MOL   C740 4346   3.108   0.978   2.180 -0.4714 -0.2636  0.0474
    4MOL   C741 4347   2.992   0.954   2.269  0.1678  0.4799 -0.8234
    4MOL   C742 4348   2.857   0.974   2.196  0.5061  0.0489 -0.1157
    4MOL   C743 4349   2.737   0.980   2.294 -0.5423 -0.0248 -0.3379
    4MOL   C744 4350   2.738   1.098   2.395  0.6963  0.3810  0.5335
    4MOL   O745 4351   2.802   1.201   2.372 -0.1329  0.3566 -0.4064
    4MOL   H746 4352   2.240   0.239   2.434  1.7774 -0.2491  1.9961
    4MOL   H747 4353   2.151   0.368   2.364 -0.2463 -0.3416  0.6443
    4MOL   H748 4354   2.321   0.534   2.457  0.5622  1.2772 -2.1060
    4MOL   H749 4355   2.418   0.397   2.513 -2.0196  0.9275  2.2747
    4MOL   H750 4356   2.473   0.324   2.285 -0.1408 -0.5449 -0.5079
    4MOL   H751 4357   2.341   0.394   2.222  2.2204 -1.7900 -0.4496
    4MOL   H752 4358   2.437   0.620   2.260  0.2595  0.9720 -0.1265
    4MOL   H753 4359   2.575   0.557   2.333 -0.5924  0.1085 -0.4908
    4MOL   H754 4360   2.518   0.475   2.052  0.2750  2.0615 -0.9590
    4MOL   H755 4361   2.635   0.411   2.166  1.3289  0.8546  1.1991
    4MOL   H756 4362   2.736   0.645   2.184  2.0981  0.9807 -1.8470
    4MOL   H757 4363   2.643   0.690   2.034 -1.4418 -2.9963 -3.0539
    4MOL   H758 4364   2.760   0.482   1.936  0.5507 -0.4547  0.4231
    4MOL   H759 4365   2.861   0.492   2.078  0.5914  0.7569  0.0378
    4MOL   H760 4366   2.952   0.705   2.005 -0.5386  0.9804  0.4706
    4MOL   H761 4367   2.832   0.710   1.875 -1.9067 -1.5207  0.8732
    4MOL   H762 4368   3.001   0.470   1.876  0.4149 -0.3520  1.5348
    4MOL   H763 4369   2.933   0.563   1.744 -0.0040 -0.0349  1.0778
    4MOL   H764 4370   3.196   0.589   1.748 -0.0881 -0.3529  0.3820
    4MOL   H765 4371   3.121   0.733   1.799 -0.7000  0.2952  1.9291
    4MOL   H766 4372   3.440   0.554   2.132  0.3039 -1.0250  0.3570
    4MOL   H767 4373   3.278   0.623   2.153 -2.1974  3.8770 -3.9428
    4MOL   H768 4374   3.535   0.790   2.121  0.2486  1.7061 -0.1548
    4MOL   H769 4375   3.453   0.772   2.272  1.9058 -2.7067 -0.2193
    4MOL   H770 4376   3.314   0.918   2.040 -0.6184  1.6234  0.5648
    4MOL   H771 4377   3.422   0.993   2.153 -0.3263 -0.0004 -0.1684
    4MOL   H772 4378   3.270   0.971   2.334 -0.5818 -0.2280  0.3555
    4MOL   H773 4379   3.217   0.818   2.269 -0.5490  0.1473 -1.3856
    4MOL   H774 4380   3.108   1.085   2.158 -1.4341 -0.8145 -2.8513
    4MOL   H775 4381   3.092   0.933   2.082  0.9862 -1.7908  0.4772
    4MOL   H776 4382   2.992   0.849   2.298  2.8761  0.2749 -1.4104
    4MOL   H777 4383   3.010   1.002   2.365 -1.0104 -0.0003 -0.3614
    4MOL   H778 4384   2.838   0.906   2.113 -0.7897 -2.9547  2.5209
    4MOL   H779 4385   2.861   1.062   2.132  2.7475  0.6024  0.7595
    4MOL   H780 4386   2.637   0.981   2.250 -1.1061  3.4171  0.9152
    4MOL   H781 4387   2.738   0.883   2.344  0.2391  1.3033  2.2513
    4MOL   O782 4388   2.674   1.073   2.509  0.3282  0.4440  0.2442
    4MOL   C783 4389   2.668   1.172   2.601  0.3673  0.4750 -0.4743
    4MOL   C784 4390   2.578   1.123   2.710  0.2445  0.4009 -0.0235
    4MOL   C785 4391   2.568   1.215   2.836 -0.6378 -0.4058 -0.5598
    4MOL   C786 4392   2.465   1.164   2.939  0.6979  0.0651  0.3649
    4MOL   C787 4393   2.433   1.263   3.047 -0.4354 -0.5168 -0.8904
    4MOL   C788 4394   2.354   1.196   3.159  0.4027  0.0677  0.1642
    4MOL   C789 4395   2.211   1.152   3.130  0.3586  0.3100 -0.0710
    4MOL   C790 4396   2.124   1.266   3.093  0.4420 -0.2543 -0.1765
    4MOL   C791 4397   1.982   1.225   3.116 -0.3497  0.3183  0.0396
    4MOL   C792 4398   1.889   1.350   3.117  0.7332  0.1566  0.4845
    4MOL   O793 4399   1.919   1.459   3.199 -0.5140 -0.2990  0.6177
    4MOL   C794 4400   1.853   1.577   3.196  0.1415 -0.1701  0.5888
    4MOL   O795 4401   1.759   1.604   3.126 -0.9313 -1.2579  0.6864
    4MOL   C796 4402   1.897   1.669   3.306  0.5619  0.1404 -0.9523
    4MOL   C797 4403   1.820   1.661   3.446  0.2526  0.2508 -0.0672
    4MOL   C798 4404   1.917   1.713   3.551  0.4851  0.1723  0.1032
    4MOL   C799 4405   1.884   1.682   3.696 -0.1536  0.3493  0.2380
    4MOL   C800 4406   1.964   1.748   3.803 -0.2525 -1.3133 -0.0713
    4MOL   C801 4407   1.935   1.697   3.939 -0.5771  0.5491  0.3549
    4MOL   C802 4408   2.037   1.751   4.044  0.3109 -0.5734 -0.5921
    4MOL   C803 4409   2.168   1.679   4.053  0.3159  0.1709 -0.1085
    4MOL   C804 4410   2.176   1.537   4.109  0.5963 -0.1876  0.5728
    4MOL   O805 4411   2.231   1.509   4.216  0.1361  0.6398  0.3208
    4MOL   H806 4412   2.773   1.176   2.630  0.2782  0.0174 -0.0944
    4MOL   H807 4413   2.624   1.261   2.555  2.2411  1.7383  0.1130
    4MOL   H808 4414   2.482   1.107   2.660  0.0820  1.8989 -0.2288
    4MOL   H809 4415   2.585   1.017   2.731  0.3664  0.5563  0.7368
    4MOL   H810 4416   2.671   1.215   2.872 -0.9061  0.3040  0.2198
    4MOL   H811 4417   2.542   1.315   2.802 -0.7439 -0.7429 -1.4754
    4MOL   H812 4418   2.371   1.134   2.893 -0.1126  1.0505  1.3360
    4MOL   H813 4419   2.514   1.078   2.985  2.3942  0.0656 -1.3822
    4MOL   H814 4420   2.374   1.348   3.013 -1.3655 -0.3558  1.0939
    4MOL   H815 4421   2.527   1.312   3.076 -1.3317  0.1762  0.9156
    4MOL   H816 4422   2.365   1.262   3.245  0.6705 -0.0864  0.2506
    4MOL   H817 4423   2.413   1.109   3.187  0.1028  0.1218  0.9722
    4MOL   H818 4424   2.174   1.095   3.214 -1.8297 -0.0148 -1.2333
    4MOL   H819 4425   2.215   1.081   3.047  2.0226  1.6304 -1.1514
    4MOL   H820 4426   2.151   1.318   3.001  3.7334  0.6996  1.2592
    4MOL   H821 4427   2.151   1.338   3.171 -3.2231  1.5572 -0.4334
    4MOL   H822 4428   1.946   1.153   3.043 -1.5449  1.5535 -0.6344
    4MOL   H823 4429   1.974   1.186   3.217 -3.6890  1.1253  0.1566
    4MOL   H824 4430   1.889   1.386   3.014  0.8097 -0.4686  0.2595
    4MOL   H825 4431   1.786   1.319   3.134  0.7806  0.2886  1.0160
    4MOL   H826 4432   1.881   1.771   3.270 -1.3568 -0.1199 -0.9043
    4MOL   H827 4433   2.004   1.664   3.323  0.6843  0.4895 -1.5878
    4MOL   H828 4434   1.794   1.562   3.484 -0.4617  0.8669  1.0631
    4MOL   H829 4435   1.730   1.722   3.442 -0.6136 -1.0427 -0.6117
    4MOL   H830 4436   1.933   1.818   3.527 -0.9214  0.6022  1.0197
    4MOL   H831 4437   2.008   1.659   3.528 -1.8588 -2.6141 -3.2003
    4MOL   H832 4438   1.902   1.575   3.712  2.0034  0.8251  1.1096
    4MOL   H833 4439   1.778   1.707   3.701  0.3404  2.7187 -0.6372
    4MOL   H834 4440   2.068   1.720   3.786 -0.1727 -0.3674 -1.1791
    4MOL   H835 4441   1.948   1.856   3.803 -1.1150 -1.4247 -1.4275
    4MOL   H836 4442   1.831   1.720   3.962  0.0639  2.1547  1.7285
    4MOL   H837 4443   1.940   1.590   3.957  0.4314  0.4774 -0.3171
    4MOL   H838 4444   1.997   1.753   4.146  2.2278  0.8121  0.1733
    4MOL   H839 4445   2.052   1.856   4.018 -0.2328 -0.7888 -1.7969
    4MOL   H840 4446   2.211   1.668   3.954 -0.3369 -0.5179 -0.3230
    4MOL   H841 4447   2.231   1.751   4.105 -0.1603 -0.0664  0.8126
    4MOL   O842 4448   2.114   1.447   4.041 -0.2056  0.3397 -0.0777
    4MOL   C843 4449   2.090   1.321   4.086 -0.4145 -0.6107  1.3197
    4MOL   C844 4450   2.159   1.222   3.988  0.6527 -0.5384 -0.3994
    4MOL   C845 4451   2.129   1.078   4.023 -0.0891 -0.1200  0.2390
    4MOL   C846 4452   2.157   0.979   3.917  0.0006  0.4775 -0.4133
    4MOL   C847 4453   2.125   0.832   3.938  0.5239 -0.5380  0.3979
    4MOL   C848 4454   2.142   0.748   3.808  0.5759 -0.0766 -0.1798
    4MOL   C849 4455   2.065   0.613   3.819 -0.2211 -0.0243 -0.0677
    4MOL   C850 4456   2.061   0.529   3.690 -0.5597 -0.2572  0.8363
    4MOL   C851 4457   1.992   0.395   3.706  0.5702 -0.7160 -1.1107
    4MOL   C852 4458   2.001   0.317   3.572 -0.6135 -0.4687 -0.2564
    4MOL   O853 4459   1.918   0.197   3.586  0.0275  0.2205 -0.1371
    4MOL   C854 4460   1.961   0.082   3.548 -0.8314  0.6637  0.0579
    4MOL   O855 4461   2.079   0.049   3.518 -0.3022  0.5754 -0.4925
    4MOL   C856 4462   1.853   7.734   3.532 -0.3740  0.8705  0.1621
    4MOL   C857 4463   1.785   7.680   3.663  0.2468 -0.0125  0.1715
    4MOL   C858 4464   1.673   0.008   3.719  0.4691 -0.2482 -0.3102
    4MOL   C859 4465   1.646   7.754   3.862 -0.0971 -0.2356 -0.3304
    4MOL   C860 4466   1.536   0.083   3.924 -0.3975 -0.4277  0.2933
    4MOL   C861 4467   1.552   0.239   3.908 -0.2179 -0.1628  0.0041
    4MOL   C862 4468   1.515   0.316   4.037  0.4749  0.6734  0.4898
    4MOL   C863 4469   1.543   0.471   4.021 -0.5307  0.3360  0.1759
    4MOL   C864 4470   1.514   0.540   4.156 -0.5819  1.0096  0.2499
    4MOL   O865 4471   1.430   0.626   4.167  0.0285 -0.2236 -0.5576
    4MOL   H866 4472   2.111   1.300   4.191 -0.6779  0.2995  1.5556
    4MOL   H867 4473   1.984   1.310   4.065 -0.0501 -0.3311 -0.8036
    4MOL   H868 4474   2.112   1.254   3.895  1.1555 -0.4801 -0.6387
    4MOL   H869 4475   2.267   1.239   3.985  0.7269 -0.6713  1.1328
    4MOL   H870 4476   2.188   1.065   4.114 -1.0388  1.6214  1.1360
    4MOL   H871 4477   2.022   1.069   4.041  0.0307  0.0865  1.0827
    4MOL   H872 4478   2.118   1.021   3.824 -2.3026  0.6486  0.5872
    4MOL   H873 4479   2.262   0.974   3.889 -0.1811  2.0999 -1.4713
    4MOL   H874 4480   2.024   0.830   3.978  0.5316 -0.0678  0.4380
    4MOL   H875 4481   2.178   0.786   4.021  0.0035  0.2658  1.1822
    4MOL   H876 4482   2.247   0.730   3.787  0.9655  0.5806  1.1808
    4MOL   H877 4483   2.098   0.805   3.726 -0.6025  1.9982  1.8436
    4MOL   H878 4484   1.969   0.626   3.870  0.0475  0.7523  0.2509
    4MOL   H879 4485   2.111   0.552   3.896  0.7454  1.6137  0.6883
    4MOL   H880 4486   2.155   0.515   3.636 -1.4245 -1.3924 -0.4346
    4MOL   H881 4487   2.007   0.587   3.615  0.7153 -1.1622 -0.8382
    4MOL   H882 4488   2.027   0.340   3.793  2.7112  1.1069 -0.7776
    4MOL   H883 4489   1.885   0.404   3.722  0.6879 -2.0422  0.5361
    4MOL   H884 4490   1.948   0.360   3.487  2.4829 -0.7332 -2.4272
    4MOL   H885 4491   2.106   0.300   3.548 -0.2335  1.7500 -0.2526
    4MOL   H886 4492   1.918   7.656   3.492 -0.8601  0.0895  0.8968
    4MOL   H887 4493   1.767   0.014   3.476 -0.1067  0.2938 -0.6349
    4MOL   H888 4494   1.868   7.670   3.734  2.5012  1.0533 -2.2399
    4MOL   H889 4495   1.743   7.583   3.638 -0.6021  1.1405 -3.0271
    4MOL   H890 4496   1.587   7.744   3.656 -0.1955 -3.4014  1.5377
    4MOL   H891 4497   1.692   0.115   3.713  2.9071 -0.4722  2.3010
    4MOL   H892 4498   1.741   0.022   3.910  0.1329 -0.6416 -0.5771
    4MOL   H893 4499   1.621   7.655   3.901  1.0843 -0.8250 -1.0413
    4MOL   H894 4500   1.447   0.058   3.865  0.4530  0.5965 -1.4558
    4MOL   H895 4501   1.527   0.058   4.030  0.8484  1.1271  0.7807
    4MOL   H896 4502   1.658   0.252   3.885 -0.4276  0.1296 -0.7819
    4MOL   H897 4503   1.490   0.272   3.825 -0.2696  1.0828  0.5257
    4MOL   H898 4504   1.566   0.270   4.122  0.4241 -0.1131  0.0961
    4MOL   H899 4505   1.409   0.292   4.030  0.4590  0.7841  0.3478
    4MOL   H900 4506   1.650   0.488   4.006 -0.3681 -0.6361  0.1869
    4MOL   H901 4507   1.475   0.503   3.942  1.3727  0.9744 -1.2491
    4MOL   O902 4508   1.593   0.493   4.259  0.2998  0.3048  0.3805
    4MOL   C903 4509   1.570   0.548   4.387 -0.6422 -0.4423  0.0954
    4MOL   C904 4510   1.628   0.463   4.510 -0.4295 -0.1345  0.2338
    4MOL   C905 4511   1.586   0.315   4.520  0.1646 -0.5531  0.5039
    4MOL   C906 4512   1.429   0.293   4.512  0.1538  0.2498 -0.6257
    4MOL   C907 4513   1.371   0.170   4.583 -0.2814 -0.7384  0.8015
    4MOL   C908 4514   1.217   0.171   4.607  0.0472  0.1053 -0.5187
    4MOL   C909 4515   1.161   0.031   4.639  0.7911 -0.2104 -0.4656
    4MOL   C910 4516   1.245   7.716   4.740 -0.4029 -0.2935  0.3761
    4MOL   C911 4517   1.165   7.594   4.793 -0.6157  0.0953 -0.3016
    4MOL   C912 4518   1.265   7.501   4.862  0.3527 -0.1795 -0.1406
    4MOL   O913 4519   1.196   7.384   4.903  0.7403  0.1673 -0.2663
    4MOL   C914 4520   1.255   7.301   4.996 -0.8931  0.9425 -0.7774
    4MOL   O915 4521   1.371   7.311   5.048  0.0197  0.0443  0.5898
    4MOL   C916 4522   1.160   7.186   5.046 -0.1969 -1.1204 -0.1525
    4MOL   C917 4523   1.053   7.251   5.145 -0.0556  0.2734  0.3284
    4MOL   C918 4524   0.941   7.330   5.078 -0.1522  0.0945 -0.0647
    4MOL   C919 4525   0.851   7.405   5.173  0.1152 -0.2741 -0.3196
    4MOL   C920 4526   0.761   7.495   5.084  0.7409 -0.0357  0.3251
    4MOL   C921 4527   0.699   7.619   5.152  0.2593  0.4533 -0.0699
    4MOL   C922 4528   0.593   7.697   5.068  1.0837  0.1990 -0.2703
    4MOL   C923 4529   0.634   7.752   4.929  0.2086 -0.5868  0.1220
    4MOL   C924 4530   0.724   0.116   4.937  0.2827  0.6959  0.1941
    4MOL   O925 4531   0.758   0.159   5.039 -0.0182 -0.0682  0.0131
    4MOL   H926 4532   1.589   0.656   4.387  2.4928 -0.9249 -1.2720
    4MOL   H927 4533   1.462   0.553   4.396 -0.5834  1.2193  0.0209
    4MOL   H928 4534   1.737   0.469   4.518 -0.4047 -0.0135 -0.2258
    4MOL   H929 4535   1.595   0.505   4.605 -2.5112  2.1207 -1.4488
    4MOL   H930 4536   1.631   0.263   4.435 -0.2550  2.1443 -1.4605
    4MOL   H931 4537   1.612   0.261   4.610 -0.4792 -1.0500  0.3949
    4MOL   H932 4538   1.384   0.383   4.553 -1.1723 -1.4667  1.9044
    4MOL   H933 4539   1.400   0.287   4.407  3.0905  0.9433 -1.5038
    4MOL   H934 4540   1.418   0.164   4.681  2.6606  0.1075 -0.4979
    4MOL   H935 4541   1.396   0.082   4.524 -0.0714 -1.0551  1.3632
    4MOL   H936 4542   1.176   0.212   4.514  0.3374  1.1312 -0.2094
    4MOL   H937 4543   1.198   0.243   4.686  0.8417  1.0318 -1.1451
    4MOL   H938 4544   1.151   7.726   4.549  0.9250 -2.6963  1.1660
    4MOL   H939 4545   1.060   0.041   4.679  1.0712  1.0696 -0.0550
    4MOL   H940 4546   1.273   0.039   4.809 -0.8987  0.7840 -0.6455
    4MOL   H941 4547   1.338   7.678   4.697  0.9817  2.3994  0.8814
    4MOL   H942 4548   1.072   7.618   4.845  0.6789 -1.8341  3.0117
    4MOL   H943 4549   1.127   7.537   4.708 -2.4251 -0.5136  0.8878
    4MOL   H944 4550   1.342   7.464   4.795 -1.6566 -1.7151 -1.6961
    4MOL   H945 4551   1.301   7.553   4.950 -0.1505 -1.2271  0.6962
    4MOL   H946 4552   1.215   7.109   5.100  2.2908  1.7005  1.4730
    4MOL   H947 4553   1.107   7.146   4.960 -1.7488  0.0784  0.2137
    4MOL   H948 4554   1.112   7.303   5.220 -1.1900 -1.2709  2.3607
    4MOL   H949 4555   0.992   7.182   5.203 -3.6677  0.9072 -2.5555
    4MOL   H950 4556   0.882   7.262   5.016 -0.8426  0.1770  0.5011
    4MOL   H951 4557   0.985   7.401   5.007  0.6457  0.0561  0.3800
    4MOL   H952 4558   0.907   7.469   5.240  0.7261 -0.8031 -0.3278
    4MOL   H953 4559   0.796   7.331   5.231 -0.1791  0.2127  0.0246
    4MOL   H954 4560   0.808   7.530   4.992  0.2506  0.5147  0.2794
    4MOL   H955 4561   0.677   7.435   5.049  1.6478 -0.2975 -1.4332
    4MOL   H956 4562   0.642   7.579   5.236  0.8350 -1.6056 -0.6574
    4MOL   H957 4563   0.774   7.685   5.196  1.9180 -3.0764  2.5932
    4MOL   H958 4564   0.548   0.009   5.140 -0.1155 -0.4301 -0.4040
    4MOL   H959 4565   0.506   7.639   5.038  0.9296 -1.0448  2.4787
    4MOL   H960 4566   0.689   7.683   4.864  0.7781 -0.0488  0.0266
    4MOL   H961 4567   0.542   0.013   4.873 -0.1589 -0.7490  0.6743
    4MOL   O962 4568   0.756   0.154   4.810  0.2917  0.1057  0.1032
    4MOL   C963 4569   0.830   0.274   4.778  0.6144 -0.0784 -0.6380
    4MOL   C964 4570   0.739   0.397   4.757 -0.2252 -0.9415  0.7166
    4MOL   C965 4571   0.816   0.524   4.722  0.2508  0.5743 -0.7114
    4MOL   C966 4572   0.888   0.584   4.837  0.3541 -0.6871  0.3321
    4MOL   C967 4573   0.969   0.717   4.823 -0.0071  0.4706 -0.1638
    4MOL   C968 4574   1.022   0.764   4.963  0.5312 -0.3359 -0.2270
    4MOL   C969 4575   1.084   0.909   4.969  0.1415  0.4681  0.1261
    4MOL   C970 4576   1.113   0.941   5.112  0.1057 -0.5062  0.8886
    4MOL   C971 4577   1.193   1.075   5.124 -0.1519  0.0799  0.1544
    4MOL   C972 4578   1.208   1.103   5.277  0.5793  0.1149  0.0435
    4MOL   O973 4579   1.282   1.222   5.294  0.2836  0.6253  0.1919
    4MOL   C974 4580   1.345   1.229   5.415 -0.7380 -0.0590  0.4492
    4MOL   O975 4581   1.358   1.140   5.499  0.1203 -0.1485 -0.6337
    4MOL   C976 4582   1.392   1.368   5.442  0.0892  0.3658 -0.0916
    4MOL   C977 4583   1.491   1.417   5.327 -0.3751 -0.5252 -0.1731
    4MOL   C978 4584   1.581   1.538   5.364 -0.1307 -0.0392  0.6813
    4MOL   C979 4585   1.626   1.633   5.255 -0.0102 -0.5820  0.0367
    4MOL   C980 4586   1.698   1.761   5.306 -0.0429 -0.1869 -0.3320
    4MOL   C981 4587   1.606   1.858   5.374 -0.0862  0.2937  0.5541
    4MOL   C982 4588   1.679   1.974   5.448  0.9629  0.5964 -0.0270
    4MOL   C983 4589   1.580   2.070   5.517  0.0905 -0.2360  0.2132
    4MOL   C984 4590   1.638   2.146   5.629 -0.2577 -0.4151 -0.3419
    4MOL   O985 4591   1.666   2.263   5.619  0.1672  0.1831  0.5808
    4MOL   H986 4592   0.899   0.298   4.859  0.6990  1.5938 -1.1865
    4MOL   H987 4593   0.886   0.243   4.691  2.0334 -1.3857  0.7288
    4MOL   H988 4594   0.681   0.381   4.666  2.4971  0.2174 -1.3040
    4MOL   H989 4595   0.675   0.420   4.842 -0.3943  0.3559  0.2569
    4MOL   H990 4596   0.879   0.488   4.640  2.7523 -1.8518  2.1520
    4MOL   H991 4597   0.750   0.599   4.677  0.9457  1.7085  0.1411
    4MOL   H992 4598   0.827   0.607   4.924  0.4696 -1.0784  0.5183
    4MOL   H993 4599   0.963   0.513   4.873  0.6818  0.0918  1.2143
    4MOL   H994 4600   0.908   0.795   4.778 -0.1720 -0.5600 -1.7802
    4MOL   H995 4601   1.057   0.710   4.759 -0.1882  0.4883 -0.4169
    4MOL   H996 4602   1.100   0.695   4.993 -0.2839 -1.2561 -0.1935
    4MOL   H997 4603   0.939   0.750   5.032  1.1049 -3.6494 -0.1565
    4MOL   H998 4604   1.005   0.977   4.937  0.9101  1.3250  0.0235
    4MOL   H999 4605   1.169   0.920   4.902  0.6109  0.6585  0.7489
    4MOL     H1 4606   1.176   0.861   5.150  3.1238 -0.0855 -2.8593
    4MOL     H2 4607   1.016   0.952   5.159  0.1044 -0.7123  0.9352
    4MOL     H3 4608   1.286   1.089   5.069 -0.4183  2.0594  0.1919
    4MOL     H4 4609   1.126   1.148   5.079  0.1297 -0.2583 -0.8162
    4MOL     H5 4610   1.115   1.107   5.335  1.5076  0.0237  1.5696
    4MOL     H6 4611   1.259   1.016   5.318  2.0486  1.0228  0.1444
    4MOL     H7 4612   1.448   1.349   5.534  1.8145  1.1372 -0.9536
    4MOL     H8 4613   1.303   1.429   5.455 -0.4729 -0.8804  2.1742
    4MOL     H9 4614   1.428   1.455   5.246  0.0791  0.6657  0.0250
    4MOL    H10 4615   1.545   1.333   5.285  0.2636 -0.1874 -0.0335
    4MOL    H11 4616   1.668   1.487   5.407 -0.3944 -1.0142  0.0737
    4MOL    H12 4617   1.527   1.596   5.439 -2.8086  0.5564 -1.6380
    4MOL    H13 4618   1.539   1.657   5.194  0.9508 -1.4285 -1.6627
    4MOL    H14 4619   1.693   1.582   5.186  1.3813  0.4319  0.6159
    4MOL    H15 4620   1.783   1.734   5.368 -0.0936 -0.6367 -0.4500
    4MOL    H16 4621   1.752   1.817   5.231 -1.4790  1.7286  0.0236
    4MOL    H17 4622   1.547   1.899   5.292  0.4241  1.9071  0.9729
    4MOL    H18 4623   1.538   1.814   5.446  1.1506 -1.3579  0.7421
    4MOL    H19 4624   1.743   2.028   5.377  0.1627  0.9688 -0.4737
    4MOL    H20 4625   1.747   1.932   5.521  1.8647  1.2575 -0.4660
    4MOL    H21 4626   1.532   2.141   5.450  0.3415  1.0362  1.3736
    4MOL    H22 4627   1.495   2.018   5.561 -0.6372 -0.5138 -1.4773
    4MOL    O23 4628   1.635   2.069   5.741  0.3533 -0.1998 -0.2454
    4MOL    C24 4629   1.664   2.128   5.865 -0.2992  0.3910 -0.5629
    4MOL    C25 4630   1.693   2.016   5.964  0.2507  0.2078 -0.5889
    4MOL    C26 4631   1.816   1.926   5.951  0.0848 -0.2714 -0.3261
    4MOL    C27 4632   1.807   1.805   6.046 -0.1571  0.4702  0.2411
    4MOL    C28 4633   1.946   1.739   6.069 -0.1312  0.2196  0.0011
    4MOL    C29 4634   1.947   1.635   6.184 -0.4056  0.4449 -1.4057
    4MOL    C30 4635   1.870   1.509   6.155  0.3255  0.2266  0.7631
    4MOL    C31 4636   1.840   1.430   6.286 -0.1352  0.2859 -0.3363
    4MOL    C32 4637   1.795   1.284   6.258 -0.1308 -0.2556 -0.1746
    4MOL    C33 4638   1.797   1.205   6.391 -0.2224  0.8376 -0.0347
    4MOL    O34 4639   1.684   1.243   6.458  0.0958 -0.2064 -0.5934
    4MOL    C35 4640   1.653   1.175   6.568  0.1441  0.0361  0.4294
    4MOL    O36 4641   1.727   1.090   6.619 -0.0618 -0.3010  0.2906
    4MOL    C37 4642   1.520   1.209   6.631  0.4739  0.1926  0.0658
    4MOL    C38 4643   1.466   1.350   6.622  0.0196 -0.4119  0.0642
    4MOL    C39 4644   1.456   1.415   6.486  0.4443 -0.2193 -0.1800
    4MOL    C40 4645   1.373   1.543   6.477 -0.7172  0.8456 -0.4037
    4MOL    C41 4646   1.219   1.516   6.452  0.2658  0.5019  0.0388
    4MOL    C42 4647   1.131   1.638   6.485 -0.4082  0.1769  0.6317
    4MOL    C43 4648   0.981   1.619   6.503 -0.4856  0.5101  0.1842
    4MOL    C44 4649   0.900   1.600   6.372 -0.2455  0.0857  0.1506
    4MOL    C45 4650   0.867   1.730   6.302 -0.8002  0.9641  0.5618
    4MOL    O46 4651   0.760   1.783   6.304  0.8509  0.1089  0.0296
    4MOL    H47 4652   1.758   2.183   5.860  0.3278 -0.4236  1.5016
    4MOL    H48 4653   1.575   2.179   5.902  1.0776  3.2771 -1.0777
    4MOL    H49 4654   1.696   2.063   6.062 -0.5198  0.8255 -0.8536
    4MOL    H50 4655   1.606   1.952   5.982  0.6803 -0.1862  0.1383
    4MOL    H51 4656   1.837   1.897   5.847 -0.3183 -1.5498 -0.0596
    4MOL    H52 4657   1.896   1.992   5.983  1.5539 -2.6191  0.9713
    4MOL    H53 4658   1.769   1.828   6.146  1.2669 -2.8352  1.5981
    4MOL    H54 4659   1.737   1.732   6.005 -1.2298 -0.1498  3.0218
    4MOL    H55 4660   2.020   1.818   6.084  0.2006  0.2841 -1.8643
    4MOL    H56 4661   1.964   1.690   5.973 -0.3777  0.0699  0.0321
    4MOL    H57 4662   1.900   1.680   6.271 -0.4745  0.8739 -1.6651
    4MOL    H58 4663   2.048   1.606   6.213 -0.0311  2.3331 -0.7606
    4MOL    H59 4664   1.930   1.457   6.080 -0.3408  0.0027  0.3856
    4MOL    H60 4665   1.778   1.527   6.100  0.7781 -0.7477 -0.3420
    4MOL    H61 4666   1.767   1.480   6.350 -1.0046 -1.4521  0.0683
    4MOL    H62 4667   1.937   1.434   6.337  0.0696  3.6929 -0.8972
    4MOL    H63 4668   1.694   1.294   6.218 -0.6315  0.1036  1.1492
    4MOL    H64 4669   1.853   1.235   6.180  1.3787 -1.5582  1.7201
    4MOL    H65 4670   1.786   1.099   6.367 -2.5668  1.1152 -0.3373
    4MOL    H66 4671   1.886   1.219   6.452  0.3578 -0.0741 -0.6439
    4MOL    H67 4672   1.518   1.192   6.739  1.5507 -0.9076 -0.0691
    4MOL    H68 4673   1.446   1.144   6.585  0.8632 -1.5849  1.8925
    4MOL    H69 4674   1.536   1.410   6.681  0.6415  0.8799 -1.9241
    4MOL    H70 4675   1.371   1.356   6.675 -0.8020  1.1256 -1.5089
    4MOL    H71 4676   1.416   1.332   6.428  2.0434 -1.2552  0.1603
    4MOL    H72 4677   1.554   1.439   6.444  1.2701  0.7482  2.2030
    4MOL    H73 4678   1.408   1.625   6.414 -1.6821  1.3172 -0.3288
    4MOL    H74 4679   1.378   1.585   6.577 -0.4028 -0.3949  0.1131
    4MOL    H75 4680   1.201   1.498   6.346  0.0732  1.1387 -0.0412
    4MOL    H76 4681   1.181   1.428   6.504 -2.6027  1.9116  0.4553
    4MOL    H77 4682   1.182   1.671   6.575 -1.5164  2.3749  0.4971
    4MOL    H78 4683   1.155   1.711   6.408 -0.4779 -0.9326 -0.4643
    4MOL    H79 4684   0.951   1.712   6.552  2.9267  1.7550  0.0070
    4MOL    H80 4685   0.952   1.535   6.567 -0.2622  2.1879  2.5663
    4MOL    H81 4686   0.945   1.525   6.306  0.8789  1.3535 -0.5454
    4MOL    H82 4687   0.801   1.564   6.399 -1.0006  1.6919 -0.4753
    4MOL    O83 4688   0.976   1.770   6.242  0.4822  0.3176  0.3975
    4MOL    C84 4689   0.985   1.897   6.181  0.9413 -0.4631  0.4663
    4MOL    C85 4690   1.137   1.935   6.173 -0.3755  0.4499 -0.2440
    4MOL    C86 4691   1.161   2.085   6.140 -0.8741  0.1959 -0.1587
    4MOL    C87 4692   1.308   2.118   6.106  0.0452  0.0907 -1.0417
    4MOL    C88 4693   1.326   2.238   6.024 -0.4451 -0.3099  0.4866
    4MOL    C89 4694   1.307   2.213   5.875 -0.5481 -0.3432 -0.3413
    4MOL    C90 4695   1.323   2.335   5.784 -0.0616 -0.2708  0.0936
    4MOL    C91 4696   1.286   2.296   5.640  0.3123 -0.6977  0.5181
    4MOL    C92 4697   1.339   2.396   5.533 -0.1317  0.1093 -0.6479
    4MOL    C93 4698   1.268   2.391   5.398 -0.4568 -0.6895 -0.0903
    4MOL    O94 4699   1.268   2.261   5.343  0.0118  0.3563  0.1840
    4MOL    C95 4700   1.180   2.229   5.252  0.1096 -0.5136 -0.0513
    4MOL    O96 4701   1.089   2.294   5.209 -0.4918  0.2400  0.2096
    4MOL    C97 4702   1.195   2.086   5.212  0.2080  0.7745  0.1548
    4MOL    C98 4703   1.162   1.992   5.333  0.3429 -0.3575  0.4081
    4MOL    C99 4704   1.176   1.848   5.300 -0.1538  0.5700  0.4494
    4MOL   C100 4705   1.084   1.801   5.189  0.8012 -0.4183 -0.6412
    4MOL   C101 4706   1.085   1.648   5.156  0.1251  0.0432 -0.2815
    4MOL   C102 4707   0.963   1.609   5.062 -0.0793 -0.5384  0.1985
    4MOL   C103 4708   0.970   1.474   5.005  0.3214  0.6346 -0.3354
    4MOL   C104 4709   0.843   1.440   4.924  0.3340  1.1199 -0.9653
    4MOL   C105 4710   0.733   1.349   4.993  0.6854  0.3294 -0.1207
    4MOL   O106 4711   0.612   1.361   4.974  0.0528  0.0561 -0.6116
    4MOL   H107 4712   0.929   1.883   6.089 -0.7420 -0.5729  1.4936
    4MOL   H108 4713   0.926   1.977   6.225 -1.0900 -0.4685 -2.1476
    4MOL   H109 4714   1.203   1.918   6.259  0.0909 -1.0455 -0.8836
    4MOL   H110 4715   1.179   1.875   6.093  0.0532 -0.2510  0.4954
    4MOL   H111 4716   1.099   2.109   6.054 -0.7499  0.5506 -0.1482
    4MOL   H112 4717   1.132   2.150   6.223  1.0740  0.5587  0.2613
    4MOL   H113 4718   1.359   2.133   6.201 -1.3023  1.7647 -0.5465
    4MOL   H114 4719   1.355   2.035   6.053  2.4765  1.0656 -0.4897
    4MOL   H115 4720   1.430   2.269   6.035  0.3922 -1.7269 -3.0597
    4MOL   H116 4721   1.269   2.325   6.056 -0.1053  0.1728 -0.2182
    4MOL   H117 4722   1.205   2.176   5.860  0.2176 -1.1223 -4.1710
    4MOL   H118 4723   1.367   2.126   5.848  0.1940 -1.2486  3.8164
    4MOL   H119 4724   1.430   2.355   5.787  0.1670 -1.6373  1.2971
    4MOL   H120 4725   1.259   2.415   5.822 -2.0394 -1.1714 -1.1820
    4MOL   H121 4726   1.177   2.298   5.634  0.1890 -0.6570  2.3781
    4MOL   H122 4727   1.327   2.198   5.616 -1.0729 -1.2771  0.4197
    4MOL   H123 4728   1.328   2.500   5.563 -0.9575 -0.9111  2.8591
    4MOL   H124 4729   1.448   2.390   5.528 -0.1635 -0.1816 -1.0434
    4MOL   H125 4730   1.165   2.425   5.412 -0.8028 -2.0119  0.6792
    4MOL   H126 4731   1.329   2.456   5.335  0.0131 -1.1720 -0.1377
    4MOL   H127 4732   1.296   2.070   5.174 -0.7653  1.7423 -3.0622
    4MOL   H128 4733   1.132   2.082   5.123  3.6131 -2.8661 -2.2748
    4MOL   H129 4734   1.063   1.998   5.379 -0.5617  1.6660 -1.7050
    4MOL   H130 4735   1.235   2.019   5.409  2.2004  1.3772 -1.9195
    4MOL   H131 4736   1.161   1.790   5.391  0.0959 -0.5537 -0.2229
    4MOL   H132 4737   1.278   1.830   5.265  0.5002  2.2325  1.3889
    4MOL   H133 4738   1.094   1.853   5.094 -2.2438 -0.8611 -1.2444
    4MOL   H134 4739   0.984   1.830   5.220  1.1795  0.9917 -0.6906
    4MOL   H135 4740   1.179   1.625   5.106  0.4081  0.1627  0.1917
    4MOL   H136 4741   1.076   1.587   5.246  1.3307 -0.8766 -0.7659
    4MOL   H137 4742   0.868   1.624   5.114  0.2260 -0.8013  0.8450
    4MOL   H138 4743   0.964   1.683   4.982  3.8647  1.0904  1.6466
    4MOL   H139 4744   0.990   1.404   5.087  1.9234  0.6858 -0.6711
    4MOL   H140 4745   1.063   1.466   4.949  0.3442 -1.1430 -0.0933
    4MOL   H141 4746   0.791   1.534   4.903  1.4340  1.3977 -2.4971
    4MOL   H142 4747   0.859   1.401   4.824  0.8220  0.3820 -0.6014
    4MOL   O143 4748   0.787   1.273   5.090  0.0185 -0.3409  0.4017
    4MOL   C144 4749   0.711   1.171   5.149  0.1540  0.2014 -0.1522
    4MOL   C145 4750   0.689   1.204   5.293 -0.1541  0.6471  0.2298
    4MOL   C146 4751   0.576   1.296   5.317 -0.3163 -0.0055  0.4441
    4MOL   C147 4752   0.529   1.307   5.460  0.6395  0.6565 -0.0877
    4MOL   C148 4753   0.416   1.413   5.480 -0.3895 -0.2529  0.0285
    4MOL   C149 4754   0.398   1.422   5.634 -0.5843  0.2937 -0.0991
    4MOL   C150 4755   0.280   1.505   5.683 -0.3626  0.3990  0.5248
    4MOL   C151 4756   0.285   1.654   5.635 -0.4023  0.3499 -0.4402
    4MOL   C152 4757   0.174   1.746   5.696  1.4455  0.3127 -0.3104
    4MOL   C153 4758   0.191   1.812   5.838 -0.1613  0.0326  0.3608
    4MOL   O154 4759   0.061   1.825   5.897 -0.2919  0.2122  0.1511
    4MOL   C155 4760   0.005   1.946   5.874 -0.0912 -0.2527 -1.8000
    4MOL   O156 4761   0.045   2.028   5.788  0.3277  0.2321 -0.3126
    4MOL   C157 4762   7.640   1.993   5.965 -0.6363  1.2959 -0.4627
    4MOL   C158 4763   7.676   2.083   6.082 -0.3222 -0.4736 -0.9329
    4MOL   C159 4764   0.013   2.031   6.190 -0.1163  0.2362 -0.5862
    4MOL   C160 4765   0.039   2.127   6.306 -0.7436  0.0728  0.0634
    4MOL   C161 4766   0.196   2.138   6.322  0.7588 -0.9218  0.1198
    4MOL   C162 4767   0.244   2.243   6.424  0.2349  0.3195  0.3365
    4MOL   C163 4768   0.398   2.257   6.423 -0.4734  1.0324 -0.3815
    4MOL   C164 4769   0.453   2.300   6.560 -0.0089  0.1697  0.0424
    4MOL   C165 4770   0.572   2.392   6.551  0.2040 -0.6221  0.1512
    4MOL   O166 4771   0.577   2.492   6.473 -0.2409  0.3152  0.1769
    4MOL   H167 4772   0.620   1.159   5.091 -0.1354  1.9460 -0.0854
    4MOL   H168 4773   0.779   1.085   5.146  1.4445  1.1774  0.4260
    4MOL   H169 4774   0.679   1.113   5.353 -0.0525 -0.3100 -1.1706
    4MOL   H170 4775   0.778   1.256   5.329  0.0123 -0.0518  0.8396
    4MOL   H171 4776   0.602   1.397   5.287  0.8548 -0.8189 -1.3328
    4MOL   H172 4777   0.488   1.283   5.254  0.6562 -2.4097 -0.4960
    4MOL   H173 4778   0.492   1.210   5.494 -2.2168  1.2933 -1.1773
    4MOL   H174 4779   0.604   1.348   5.528  2.0668 -0.3278 -1.0498
    4MOL   H175 4780   0.321   1.390   5.431 -0.4022 -1.0432  0.4231
    4MOL   H176 4781   0.446   1.504   5.428 -1.7330 -0.7569 -1.6954
    4MOL   H177 4782   0.487   1.474   5.669  1.1512 -1.0563 -2.3524
    4MOL   H178 4783   0.407   1.329   5.690 -1.3327  0.4364  0.2631
    4MOL   H179 4784   0.277   1.515   5.792  1.8223  0.8866  0.5468
    4MOL   H180 4785   0.184   1.464   5.649  0.7011 -0.6526 -1.2627
    4MOL   H181 4786   0.280   1.649   5.526 -0.4048  2.3092 -0.5351
    4MOL   H182 4787   0.383   1.694   5.659 -1.0764  1.4425  0.5335
    4MOL   H183 4788   0.156   1.826   5.624 -0.3650 -0.0159 -0.2552
    4MOL   H184 4789   0.085   1.683   5.695  1.1692  0.6989 -0.1013
    4MOL   H185 4790   0.245   1.740   5.900 -0.4852 -1.7623 -1.3926
    4MOL   H186 4791   0.252   1.902   5.825 -0.1795 -0.0102 -0.0127
    4MOL   H187 4792   7.580   1.908   6.000 -0.0235  1.9622  2.3165
    4MOL   H188 4793   7.586   2.057   5.896 -1.0141  1.8707  0.3572
    4MOL   H189 4794   7.596   2.132   6.138  1.8027 -2.0691  3.7681
    4MOL   H190 4795   7.727   2.169   6.040 -0.3099 -0.3455 -0.6587
    4MOL   H191 4796   0.100   1.995   6.135 -1.4042 -2.7411 -0.7582
    4MOL   H192 4797   7.726   1.938   6.226 -0.7757  0.5161 -0.6506
    4MOL   H193 4798   7.733   2.094   6.388 -0.9955 -1.1181 -0.6020
    4MOL   H194 4799   0.007   2.228   6.280 -0.1545  0.4707  0.8717
    4MOL   H195 4800   0.240   2.040   6.341  0.8867 -1.1079 -1.0890
    4MOL   H196 4801   0.247   2.161   6.229 -0.3382 -0.4813 -0.3821
    4MOL   H197 4802   0.188   2.335   6.408 -1.6987 -1.5175 -4.7046
    4MOL   H198 4803   0.214   2.206   6.522  0.0489  0.4809  0.3400
    4MOL   H199 4804   0.423   2.324   6.340  0.8984  1.8490  0.6782
    4MOL   H200 4805   0.434   2.158   6.393 -4.5341 -0.6768  0.0812
    4MOL   H201 4806   0.375   2.353   6.614  1.9989  1.3385  1.8864
    4MOL   H202 4807   0.480   2.211   6.616 -0.1414  0.6695  0.9071
    4MOL   H203 4808   0.645   2.364   6.627  0.3682  1.9464  0.9807
    5MOL     O1 4809   3.434   0.550   4.847  0.1704 -0.7299 -0.0097
    5MOL     C2 4810   3.456   0.485   4.976 -0.1861  0.1728 -0.4203
    5MOL     C3 4811   3.429   0.585   5.095 -0.0749 -0.4009  0.0048
    5MOL     C4 4812   3.394   0.536   5.234  0.3767  0.9591 -0.2729
    5MOL     C5 4813   3.438   0.633   5.347  0.4546  0.0570  0.4281
    5MOL     C6 4814   3.429   0.592   5.500 -0.7010  0.0471 -0.1044
    5MOL     C7 4815   3.286   0.553   5.545  0.6648 -0.3004  1.1620
    5MOL     C8 4816   3.267   0.503   5.697 -0.0911  0.3156  0.3930
    5MOL     C9 4817   3.310   0.357   5.727  0.1773  0.3967 -0.6339
    5MOL    C10 4818   3.261   0.316   5.867 -0.1755 -0.0468 -0.3488
    5MOL    C11 4819   3.333   0.196   5.932 -0.1474 -0.3887 -0.3071
    5MOL    O12 4820   3.470   0.221   5.964 -0.2506 -0.1722  0.3794
    5MOL    C13 4821   3.499   0.295   6.072 -0.0509 -0.4645 -0.3300
    5MOL    O14 4822   3.414   0.334   6.153 -0.2166  0.1350  0.4309
    5MOL    C15 4823   3.648   0.313   6.090 -0.1790  0.0996 -0.3546
    5MOL    C16 4824   3.703   0.424   5.996  0.0267 -1.2184 -0.0844
    5MOL    C17 4825   3.660   0.570   6.028  0.0011 -0.0212  0.7073
    5MOL    C18 4826   3.724   0.678   5.940 -0.1692 -0.4108 -0.7518
    5MOL    C19 4827   3.666   0.815   5.965  0.1318  0.2422  0.0810
    5MOL    C20 4828   3.735   0.930   5.889 -0.1132  0.5749  0.2835
    5MOL    C21 4829   3.868   0.978   5.948  0.3991 -0.2476  0.3413
    5MOL    C22 4830   3.940   1.076   5.861  0.4770 -0.7170 -0.5621
    5MOL    C23 4831   3.921   1.221   5.901  0.2954 -0.5139  0.0962
    5MOL    O24 4832   4.014   1.294   5.936  0.9778  0.1713 -0.6255
    5MOL    H25 4833   3.385   0.403   4.986 -1.1763  0.8516 -1.8212
    5MOL    H26 4834   3.555   0.441   4.989 -1.3831 -2.4366  0.2370
    5MOL    H27 4835   3.505   0.663   5.087 -1.0312  0.3622 -1.9414
    5MOL    H28 4836   3.340   0.644   5.071  0.6437  0.6617 -0.0875
    5MOL    H29 4837   3.287   0.514   5.238  1.1681 -3.2377 -0.5189
    5MOL    H30 4838   3.447   0.443   5.253 -1.0052  0.1421 -0.3316
    5MOL    H31 4839   3.546   0.638   5.329  0.3994 -2.7241 -0.8228
    5MOL    H32 4840   3.405   0.736   5.333 -0.9533 -0.4314  0.1385
    5MOL    H33 4841   3.482   0.667   5.560  3.0040 -2.1657 -0.4608
    5MOL    H34 4842   3.490   0.505   5.523  2.9123  2.4643 -0.0058
    5MOL    H35 4843   3.256   0.469   5.482 -0.9825  1.9355 -1.1470
    5MOL    H36 4844   3.219   0.636   5.521 -0.6496 -2.2514 -2.2603
    5MOL    H37 4845   3.160   0.510   5.718 -0.2118  1.9184 -0.7368
    5MOL    H38 4846   3.324   0.577   5.753  1.5079 -0.6882  0.1472
    5MOL    H39 4847   3.419   0.359   5.717  0.5097  1.1663  2.5156
    5MOL    H40 4848   3.273   0.290   5.650  1.8691 -0.8914 -0.3474
    5MOL    H41 4849   3.278   0.408   5.923  3.0214 -1.1121  0.5849
    5MOL    H42 4850   3.154   0.301   5.855 -0.2892  0.7900 -0.3825
    5MOL    H43 4851   3.270   0.165   6.015  0.5676  3.6876  1.8719
    5MOL    H44 4852   3.340   0.118   5.855 -0.1069  0.7044 -1.4217
    5MOL    H45 4853   3.700   0.218   6.078  0.3605  0.4001 -0.3913
    5MOL    H46 4854   3.651   0.342   6.195 -0.3215 -0.1928 -0.2690
    5MOL    H47 4855   3.698   0.384   5.894  2.4902 -1.5454 -0.1119
    5MOL    H48 4856   3.808   0.417   6.022  0.1054  1.0655  0.3256
    5MOL    H49 4857   3.687   0.588   6.131  1.0464  0.3891  0.3669
    5MOL    H50 4858   3.551   0.569   6.019  0.1489 -0.1132 -1.5550
    5MOL    H51 4859   3.718   0.661   5.833  0.6137 -0.2962 -0.8168
    5MOL    H52 4860   3.831   0.690   5.957 -0.0733 -1.5227 -0.5775
    5MOL    H53 4861   3.559   0.810   5.944 -0.1222 -0.7818  1.5609
    5MOL    H54 4862   3.675   0.837   6.071 -0.7298  0.2542  0.1532
    5MOL    H55 4863   3.742   0.900   5.785 -2.0116  3.2652 -0.6716
    5MOL    H56 4864   3.663   1.011   5.876  0.4798  0.6821 -2.5548
    5MOL    H57 4865   3.940   0.897   5.957 -1.1268 -1.8499 -1.4263
    5MOL    H58 4866   3.849   1.004   6.052  0.1293  3.2227 -0.5241
    5MOL    H59 4867   4.047   1.058   5.875  1.0816  1.5497 -1.9265
    5MOL    H60 4868   3.929   1.056   5.754 -0.9570 -0.4074 -0.4777
    5MOL    H61 4869   3.343   0.572   4.834  0.1000 -0.1467  1.3991
    5MOL    O62 4870   3.785   1.257   5.881 -0.2453  0.1536 -0.2957
    5MOL    C63 4871   3.741   1.385   5.919  0.2159 -0.1237 -0.2541
    5MOL    C64 4872   3.587   1.413   5.920  1.1488  0.9286 -0.1468
    5MOL    C65 4873   3.511   1.308   6.004 -0.4144  0.4577  0.3146
    5MOL    C66 4874   3.362   1.331   6.005 -0.7024 -0.2501 -0.0317
    5MOL    C67 4875   3.287   1.235   6.093 -0.0773  0.5087  0.4420
    5MOL    C68 4876   3.141   1.238   6.062 -0.1309 -0.8464 -0.1045
    5MOL    C69 4877   3.063   1.361   6.108 -1.0368 -0.8969 -0.7494
    5MOL    C70 4878   2.930   1.382   6.029 -0.9732 -0.4213  0.1017
    5MOL    C71 4879   2.854   1.510   6.082 -0.3023  0.1786  0.8054
    5MOL    C72 4880   2.737   1.530   5.992  0.5591  0.3394  0.0118
    5MOL    O73 4881   2.655   1.629   6.046 -0.0359 -0.3996 -0.1206
    5MOL    C74 4882   2.590   1.717   5.958 -0.5100  0.4053  1.0575
    5MOL    O75 4883   2.614   1.720   5.837 -0.1747 -0.4657 -0.2710
    5MOL    C76 4884   2.503   1.814   6.022  0.1839 -0.0999 -0.0051
    5MOL    C77 4885   2.402   1.898   5.923 -0.3335  0.0408  0.2686
    5MOL    C78 4886   2.277   1.809   5.874  0.0659  0.3359  0.1118
    5MOL    C79 4887   2.189   1.876   5.767 -0.4743  0.3128  0.3660
    5MOL    C80 4888   2.228   1.849   5.625  0.1246 -0.8110  0.8846
    5MOL    C81 4889   2.117   1.901   5.524  0.6816  0.1455 -0.8691
    5MOL    C82 4890   2.145   1.884   5.376  0.0876 -0.1158 -0.2808
    5MOL    C83 4891   2.050   1.947   5.275  0.1933  0.0151  0.0916
    5MOL    C84 4892   2.098   1.927   5.130  0.4282 -0.3556  0.1130
    5MOL    O85 4893   2.214   1.943   5.089 -0.7541 -0.0645 -0.3196
    5MOL    H86 4894   3.782   1.402   6.018 -0.0398  1.0695 -0.3501
    5MOL    H87 4895   3.792   1.452   5.849  0.8468 -1.2106 -0.8625
    5MOL    H88 4896   3.569   1.512   5.961  1.0342  0.7185  0.3282
    5MOL    H89 4897   3.549   1.405   5.819  0.0729 -0.2159  0.3305
    5MOL    H90 4898   3.539   1.216   5.953 -1.6556  0.7590 -0.9494
    5MOL    H91 4899   3.563   1.290   6.098  0.2453 -1.4726 -0.4030
    5MOL    H92 4900   3.350   1.433   6.040  1.5308  0.5450 -1.5023
    5MOL    H93 4901   3.322   1.328   5.904 -1.0050  0.8315  0.0520
    5MOL    H94 4902   3.310   1.252   6.198 -0.6165  0.8529  0.5050
    5MOL    H95 4903   3.331   1.138   6.071  1.2293  0.8966  1.2719
    5MOL    H96 4904   3.096   1.144   6.095 -0.5605 -1.5890 -2.6128
    5MOL    H97 4905   3.126   1.242   5.954  1.0647  2.2105 -0.1906
    5MOL    H98 4906   3.119   1.454   6.109  0.3643 -1.7334 -0.8108
    5MOL    H99 4907   3.031   1.346   6.211  0.9363 -2.4725 -0.3451
    5MOL   H100 4908   2.877   1.289   6.050  0.0044 -0.7969  0.9348
    5MOL   H101 4909   2.958   1.384   5.924  1.5473  2.3152  0.7686
    5MOL   H102 4910   2.834   1.492   6.188  1.0729  0.3577  1.1056
    5MOL   H103 4911   2.916   1.598   6.068 -2.9515  2.0117  0.2595
    5MOL   H104 4912   2.767   1.544   5.889  0.6469 -2.7769 -0.4612
    5MOL   H105 4913   2.688   1.432   6.000 -4.3223  2.5234 -1.5926
    5MOL   H106 4914   2.566   1.887   6.073 -1.8764  1.0016  1.0588
    5MOL   H107 4915   2.449   1.746   6.088 -1.5581  0.8695 -0.4002
    5MOL   H108 4916   2.456   1.922   5.831  0.4129  2.4941  1.2906
    5MOL   H109 4917   2.369   1.991   5.969 -1.5867 -0.5192  0.5161
    5MOL   H110 4918   2.223   1.780   5.963 -0.7886 -2.0898 -1.1351
    5MOL   H111 4919   2.315   1.720   5.824  1.2373  1.2057 -0.5871
    5MOL   H112 4920   2.182   1.982   5.793 -2.1107  0.5766 -1.1486
    5MOL   H113 4921   2.092   1.829   5.778  0.5648 -2.3737 -1.6120
    5MOL   H114 4922   2.327   1.892   5.613 -1.4365  3.0523  0.9126
    5MOL   H115 4923   2.245   1.743   5.606 -0.2129 -0.6827 -0.2185
    5MOL   H116 4924   2.018   1.858   5.536  0.9143 -0.3667 -0.8084
    5MOL   H117 4925   2.104   2.005   5.554  2.1299  0.1276 -0.1289
    5MOL   H118 4926   2.148   1.779   5.348 -1.3059 -0.2549  0.0749
    5MOL   H119 4927   2.247   1.920   5.360 -0.7685  2.5527  0.0085
    5MOL   H120 4928   1.948   1.913   5.288 -0.0386  0.2931 -1.0067
    5MOL   H121 4929   2.046   2.054   5.290  0.9361  0.0139  0.3621
    5MOL   O122 4930   1.995   1.892   5.062 -0.7846 -0.5874  0.3561
    5MOL   C123 4931   2.007   1.864   4.924 -0.3090  0.0191 -0.1068
    5MOL   C124 4932   1.872   1.797   4.886  0.0524  0.4368  0.1630
    5MOL   C125 4933   1.744   1.886   4.909 -0.0946  0.4115 -0.6997
    5MOL   C126 4934   1.620   1.825   4.841  1.0419  0.3583  0.5073
    5MOL   C127 4935   1.497   1.907   4.880  0.0185  0.2116  0.6224
    5MOL   C128 4936   1.360   1.855   4.827  0.0515 -0.3944  0.1717
    5MOL   C129 4937   1.241   1.958   4.852  0.4158 -0.1612 -0.1912
    5MOL   C130 4938   1.105   1.898   4.797 -0.7873  0.3688  0.1616
    5MOL   C131 4939   0.992   1.998   4.835  0.2846  0.2723 -0.2740
    5MOL   C132 4940   0.856   1.947   4.788  0.0399 -0.1048 -0.7650
    5MOL   O133 4941   0.760   2.047   4.800  0.3372 -0.7531  0.0510
    5MOL   C134 4942   0.688   2.071   4.913  0.2592 -0.7035  0.1113
    5MOL   O135 4943   0.687   2.002   5.018 -0.0025 -0.6593  0.0350
    5MOL   C136 4944   0.598   2.195   4.898  0.7710 -0.3695  0.2859
    5MOL   C137 4945   0.530   2.222   4.766 -0.4932 -1.0934  0.3394
    5MOL   C138 4946   0.412   2.131   4.715  0.1005  0.8039 -0.7626
    5MOL   C139 4947   0.338   2.176   4.591  0.0820  0.0334  0.0341
    5MOL   C140 4948   0.409   2.160   4.463 -0.1237  0.4906  0.5012
    5MOL   C141 4949   0.311   2.189   4.353 -0.1045  0.6206 -0.5937
    5MOL   C142 4950   0.378   2.221   4.215  0.3210 -0.1406 -0.1421
    5MOL   C143 4951   0.284   2.284   4.109  0.2141 -0.2518  0.0073
    5MOL   C144 4952   0.159   2.212   4.070  1.1017 -0.3434  0.5593
    5MOL   O145 4953   0.079   2.272   3.999  0.8701  0.2162 -0.2256
    5MOL   H146 4954   2.025   1.954   4.865 -1.3872 -0.6647 -1.4919
    5MOL   H147 4955   2.094   1.798   4.916  0.0073  0.5062 -0.7064
    5MOL   H148 4956   1.886   1.774   4.780 -0.4463 -1.3160  0.4689
    5MOL   H149 4957   1.860   1.706   4.944 -3.6428 -0.9508 -2.6043
    5MOL   H150 4958   1.720   1.864   5.013  1.4047  2.0536  0.0224
    5MOL   H151 4959   1.757   1.992   4.890  2.7674  0.8414  3.0552
    5MOL   H152 4960   1.629   1.817   4.733  0.3608  0.0016  0.4725
    5MOL   H153 4961   1.608   1.727   4.888  2.7362 -1.0734 -1.9399
    5MOL   H154 4962   1.500   2.009   4.842 -2.3730 -0.2890 -1.0205
    5MOL   H155 4963   1.495   1.926   4.987 -1.0870 -2.6993  1.1578
    5MOL   H156 4964   1.319   1.770   4.883 -0.8298  1.0163  1.6976
    5MOL   H157 4965   1.380   1.800   4.735 -0.3577  0.3077 -0.3366
    5MOL   H158 4966   1.264   2.054   4.806  1.1035  0.2273  0.9313
    5MOL   H159 4967   1.234   1.984   4.958  0.7161  2.2921 -0.7609
    5MOL   H160 4968   1.075   1.796   4.820 -0.1172  0.1810  0.2220
    5MOL   H161 4969   1.118   1.878   4.690  1.1760 -1.5336  0.7186
    5MOL   H162 4970   1.003   2.013   4.942 -0.9542 -2.9092  0.3377
    5MOL   H163 4971   0.996   2.099   4.794  0.2243  0.4031  0.0367
    5MOL   H164 4972   0.872   1.923   4.683 -1.1180  0.5009 -1.0821
    5MOL   H165 4973   0.817   1.860   4.842  1.0548  1.8362  3.3504
    5MOL   H166 4974   0.668   2.273   4.928  0.0933  0.6533 -0.7328
    5MOL   H167 4975   0.517   2.205   4.970  1.5321  2.1460  0.8384
    5MOL   H168 4976   0.602   2.214   4.684 -0.5853 -0.2740  0.1779
    5MOL   H169 4977   0.504   2.327   4.758 -1.2065 -1.2925  0.0093
    5MOL   H170 4978   0.351   2.133   4.805 -2.8917 -2.6468 -2.6269
    5MOL   H171 4979   0.445   2.029   4.694 -1.7457 -0.2535  1.2974
    5MOL   H172 4980   0.313   2.281   4.602 -2.9908 -0.4395 -1.8720
    5MOL   H173 4981   0.240   2.128   4.584 -0.1792  0.6713 -0.8234
    5MOL   H174 4982   0.474   2.246   4.452 -0.8320  1.4790  3.4713
    5MOL   H175 4983   0.465   2.066   4.457  0.1857  0.7704 -1.1255
    5MOL   H176 4984   0.235   2.111   4.350  0.3679  0.1047  0.5627
    5MOL   H177 4985   0.245   2.272   4.379  0.8554  1.5440 -1.0497
    5MOL   H178 4986   0.408   2.124   4.174  2.3014  1.3263 -2.2663
    5MOL   H179 4987   0.467   2.280   4.235  1.0454 -1.4629  0.6425
    5MOL   H180 4988   0.258   2.385   4.141  1.7073  0.4034 -0.7710
    5MOL   H181 4989   0.342   2.300   4.018 -1.4049  1.4699 -0.7499
    5MOL   O182 4990   0.145   2.094   4.111 -0.3179 -0.7730 -0.0859
    5MOL   C183 4991   0.034   2.012   4.063 -0.0210 -0.1571  0.2332
    5MOL   C184 4992   0.072   1.881   4.000  0.2581  0.6535  0.0589
    5MOL   C185 4993   0.129   1.775   4.092 -0.1801 -0.1554  0.6417
    5MOL   C186 4994   0.172   1.647   4.017  0.1151 -0.3750 -0.8422
    5MOL   C187 4995   0.299   1.658   3.931  0.3305 -0.7496 -0.4117
    5MOL   C188 4996   0.339   1.534   3.854  0.4391 -0.5204 -0.3844
    5MOL   C189 4997   0.465   1.552   3.771 -0.2607  0.3768  0.5996
    5MOL   C190 4998   0.520   1.424   3.712  0.7713  0.9282  0.6064
    5MOL   C191 4999   0.662   1.432   3.647  0.6527  0.0041 -0.4425
    5MOL   C192 5000   0.688   1.300   3.565 -0.0663  0.4734 -0.7459
    5MOL   O193 5001   0.803   1.307   3.485  0.5290  0.2246 -0.3459
    5MOL   C194 5002   0.926   1.282   3.539 -1.3374 -0.1658  0.1551
    5MOL   O195 5003   0.949   1.248   3.653 -0.2637  0.0857 -0.7019
    5MOL   C196 5004   1.044   1.310   3.441  0.0302  0.7466  0.4540
    5MOL   C197 5005   1.056   1.455   3.396 -0.2134  0.1171 -0.2686
    5MOL   C198 5006   0.952   1.492   3.287  0.0775  0.3708  0.3151
    5MOL   C199 5007   0.984   1.634   3.225 -0.3740  0.2722  0.1558
    5MOL   C200 5008   0.876   1.703   3.148 -0.0167 -0.3669  0.8285
    5MOL   C201 5009   0.769   1.744   3.254 -0.0046  0.1625 -0.1477
    5MOL   C202 5010   0.668   1.839   3.182 -0.2965  0.4386  0.2069
    5MOL   C203 5011   0.604   1.932   3.283  0.8784  0.4324 -0.1549
    5MOL   C204 5012   0.534   1.867   3.405  0.2716 -0.7679 -0.2923
    5MOL   O205 5013   0.589   1.877   3.516  0.2050  0.3286 -0.4482
    5MOL   H206 5014   7.709   2.005   4.135 -1.3780  0.7061 -1.1894
    5MOL   H207 5015   7.741   2.059   3.978 -1.8622 -1.8102  0.3701
    5MOL   H208 5016   7.737   1.838   3.959 -1.4922  2.4132  2.0219
    5MOL   H209 5017   0.147   1.890   3.921  0.5304 -1.9949 -0.0309
    5MOL   H210 5018   0.218   1.825   4.131 -0.3682  1.9053 -1.4496
    5MOL   H211 5019   0.064   1.751   4.176 -1.7175  1.1254 -0.1532
    5MOL   H212 5020   0.176   1.567   4.092  1.5431 -0.7457 -1.2964
    5MOL   H213 5021   0.095   1.614   3.947  0.5035  0.9422 -1.9075
    5MOL   H214 5022   0.373   1.705   3.996 -1.5948 -0.1061  1.3671
    5MOL   H215 5023   0.286   1.733   3.853  0.0793 -0.6089 -0.2366
    5MOL   H216 5024   0.251   1.497   3.800  0.6577  0.3965 -1.3810
    5MOL   H217 5025   0.349   1.455   3.929  3.0690  2.3403  2.3938
    5MOL   H218 5026   0.540   1.577   3.847 -0.8862  0.8074  1.0820
    5MOL   H219 5027   0.460   1.640   3.708 -1.6436  0.0238  0.1992
    5MOL   H220 5028   0.447   1.401   3.635  0.9508  1.8802  0.1422
    5MOL   H221 5029   0.512   1.344   3.786  0.0970  2.9796  2.7943
    5MOL   H222 5030   0.679   1.517   3.581  0.8369  0.5780  0.3381
    5MOL   H223 5031   0.738   1.440   3.724 -0.7210  3.0891  0.6607
    5MOL   H224 5032   0.674   1.208   3.623  0.7871  0.8714  0.1117
    5MOL   H225 5033   0.610   1.282   3.492 -0.6521  1.1408 -0.2882
    5MOL   H226 5034   1.028   1.244   3.355  2.0966  1.1415 -0.2598
    5MOL   H227 5035   1.139   1.265   3.472 -1.7668 -2.6285  1.3232
    5MOL   H228 5036   1.152   1.467   3.348 -1.4788  2.3488 -2.3381
    5MOL   H229 5037   1.058   1.532   3.473 -0.1931  0.1157 -0.2680
    5MOL   H230 5038   0.856   1.491   3.338  0.8038  0.5366  1.6982
    5MOL   H231 5039   0.951   1.415   3.209  1.8685 -0.4544  1.0713
    5MOL   H232 5040   1.065   1.623   3.152 -0.0725 -0.1772  0.5530
    5MOL   H233 5041   1.027   1.699   3.301 -0.3414 -3.9669  3.9397
    5MOL   H234 5042   0.928   1.788   3.102  0.4133 -1.3617 -0.5564
    5MOL   H235 5043   0.835   1.646   3.065 -0.6050  1.3997 -0.1170
    5MOL   H236 5044   0.713   1.653   3.278 -0.7768  0.9845  1.1801
    5MOL   H237 5045   0.811   1.787   3.344 -0.7948  0.2061  0.2005
    5MOL   H238 5046   0.611   1.773   3.116  1.8745 -1.4199  0.1042
    5MOL   H239 5047   0.724   1.905   3.115  0.2896 -1.3132 -1.0786
    5MOL   H240 5048   0.688   1.982   3.330  0.5529 -0.1286  1.0538
    5MOL   H241 5049   0.533   2.003   3.241  2.2103  0.8927 -1.6410
    5MOL   O242 5050   0.411   1.808   3.373  0.1766 -0.3451  0.8050
    5MOL   C243 5051   0.334   1.758   3.478  0.2628 -0.1051 -0.8877
    5MOL   C244 5052   0.191   1.742   3.423 -0.0361  0.6230  0.0740
    5MOL   C245 5053   0.133   1.881   3.385 -0.0983 -0.3277 -0.5377
    5MOL   C246 5054   7.743   1.860   3.337 -0.3222 -1.0921  0.2345
    5MOL   C247 5055   7.672   1.985   3.288  0.3297 -0.0702  0.5564
    5MOL   C248 5056   7.517   1.965   3.289  0.6536 -0.6048  0.3125
    5MOL   C249 5057   7.437   2.094   3.250 -0.3091 -0.4987  0.6446
    5MOL   C250 5058   7.488   2.167   3.130 -0.6092  0.2031  0.0722
    5MOL   C251 5059   7.407   2.286   3.100 -0.0931 -0.1552  0.0075
    5MOL   C252 5060   7.463   2.374   2.985 -0.3562  0.1620  0.1615
    5MOL   O253 5061   7.505   2.291   2.872  0.9914  0.0735  0.4981
    5MOL   C254 5062   7.419   2.224   2.790  0.3089  0.2463 -0.0780
    5MOL   O255 5063   7.298   2.208   2.798 -0.0781 -0.5412 -0.5342
    5MOL   C256 5064   7.491   2.178   2.664  0.6121 -0.3756  0.2939
    5MOL   C257 5065   7.624   2.099   2.678 -0.1171 -0.2981  0.1362
    5MOL   C258 5066   7.602   1.975   2.768 -1.0635 -0.0169 -0.3276
    5MOL   C259 5067   7.725   1.891   2.805  0.5577 -0.1631  0.0858
    5MOL   C260 5068   7.697   1.761   2.892  0.1220  0.1451  0.8146
    5MOL   C261 5069   0.070   1.675   2.920 -0.6803  0.3217 -0.6379
    5MOL   C262 5070   0.046   1.532   2.965  0.2915  0.9154  0.2903
    5MOL   C263 5071   0.179   1.469   3.023 -0.3870 -0.1777  0.2582
    5MOL   C264 5072   0.142   1.345   3.106 -0.3955  0.7156 -0.0561
    5MOL   O265 5073   0.039   1.279   3.095 -0.3266 -0.3283 -0.0190
    5MOL   H266 5074   0.382   1.664   3.506  0.0352  0.1322  0.3493
    5MOL   H267 5075   0.334   1.818   3.570 -1.5258 -0.3129 -0.7299
    5MOL   H268 5076   0.198   1.689   3.328 -0.8514 -0.2196  0.4772
    5MOL   H269 5077   0.133   1.677   3.488  1.7723 -0.7782  0.3437
    5MOL   H270 5078   0.149   1.954   3.464 -1.3317  0.5036 -1.0317
    5MOL   H271 5079   0.192   1.913   3.299 -0.1025 -0.6528 -0.6613
    5MOL   H272 5080   7.725   1.785   3.260  1.2079 -0.4756 -0.7428
    5MOL   H273 5081   7.689   1.817   3.421  1.4699 -0.3855  1.7845
    5MOL   H274 5082   7.714   2.009   3.190  0.4534  3.5075  1.4176
    5MOL   H275 5083   7.699   2.066   3.356 -2.6219  1.5835 -0.1752
    5MOL   H276 5084   7.492   1.923   3.386 -0.7234 -1.0134 -0.2161
    5MOL   H277 5085   7.496   1.883   3.221  0.3549 -1.0150  0.9014
    5MOL   H278 5086   7.445   2.155   3.340 -3.0435  0.8875  0.0361
    5MOL   H279 5087   7.332   2.074   3.226 -0.3383  0.1506  0.2364
    5MOL   H280 5088   7.496   2.094   3.049  0.0151  0.4231 -0.0661
    5MOL   H281 5089   7.594   2.187   3.143 -0.8101  2.5140 -1.4238
    5MOL   H282 5090   7.306   2.256   3.074 -0.4979  0.9979  0.2380
    5MOL   H283 5091   7.393   2.348   3.188  1.5377 -0.2350  0.3477
    5MOL   H284 5092   7.390   2.451   2.963  0.3617  0.3948 -1.4721
    5MOL   H285 5093   7.554   2.426   3.015  1.5476 -1.3011 -2.7522
    5MOL   H286 5094   7.514   2.271   2.613  0.5129  0.6426  2.0698
    5MOL   H287 5095   7.418   2.118   2.610  0.6909 -1.4912  1.4142
    5MOL   H288 5096   7.701   2.161   2.725  0.6244 -1.9027  1.1057
    5MOL   H289 5097   7.652   2.071   2.576 -1.0766 -0.7886  0.0011
    5MOL   H290 5098   7.529   1.909   2.721 -1.1880  1.6103 -2.4989
    5MOL   H291 5099   7.545   2.005   2.855  1.5262 -0.5883  1.6347
    5MOL   H292 5100   0.032   1.954   2.868  0.7480 -1.1364  0.8908
    5MOL   H293 5101   0.028   1.869   2.717  0.5857 -2.8841  0.7516
    5MOL   H294 5102   7.648   1.785   2.986 -0.7520 -0.5191  0.5329
    5MOL   H295 5103   7.619   1.703   2.842 -1.6744  2.5466  0.7677
    5MOL   H296 5104   0.129   1.667   2.828 -0.4403 -1.5316 -0.3351
    5MOL   H297 5105   0.128   1.734   2.991 -0.2800  2.1498 -2.4370
    5MOL   H298 5106   0.015   1.476   2.876 -1.5087  2.5772 -0.1511
    5MOL   H299 5107   7.731   1.523   3.047 -0.6634  0.6402 -0.5592
    5MOL   H300 5108   0.249   1.432   2.949  0.0014  2.8557 -0.9531
    5MOL   H301 5109   0.236   1.547   3.074 -0.2972 -0.8494  1.2057
    5MOL   O302 5110   0.237   1.324   3.195 -0.6751  0.0676  0.3641
    5MOL   C303 5111   0.221   1.206   3.281 -0.4422 -0.4881 -0.9215
    5MOL   C304 5112   0.339   1.219   3.384  0.5107 -0.0649 -0.5244
    5MOL   C305 5113   0.340   1.120   3.487 -0.0904  0.7971  0.3538
    5MOL   C306 5114   0.209   1.095   3.571 -0.4911  0.3949  0.0895
    5MOL   C307 5115   0.164   1.212   3.656  0.6815  0.3256 -0.8518
    5MOL   C308 5116   0.045   1.187   3.755 -0.8647 -0.3122  0.1039
    5MOL   C309 5117   0.017   1.306   3.845  0.6708  0.1295  0.0768
    5MOL   C310 5118   7.640   1.276   3.912 -1.2361 -0.2918 -0.6884
    5MOL   C311 5119   7.542   1.389   3.933  0.1956 -0.0154  0.3706
    5MOL   C312 5120   7.394   1.338   3.955 -0.4225 -0.2393 -0.4960
    5MOL   O313 5121   7.374   1.223   4.039 -0.6618 -0.1904 -0.6676
    5MOL   C314 5122   7.271   1.221   4.133 -0.2429  0.1702  0.0128
    5MOL   O315 5123   7.203   1.315   4.158 -0.0364  0.1882 -0.1022
    5MOL   C316 5124   7.258   1.090   4.205 -0.5634  0.3862  0.1863
    5MOL   C317 5125   7.150   1.000   4.138 -0.0598  0.9134  0.3301
    5MOL   C318 5126   7.114   0.882   4.221 -0.0243  0.2943 -0.3775
    5MOL   C319 5127   7.214   0.763   4.206 -0.2675 -0.3282 -0.5499
    5MOL   C320 5128   7.140   0.639   4.274  0.4399  0.0452  0.1500
    5MOL   C321 5129   7.115   0.657   4.433  0.7771 -0.2779  0.0777
    5MOL   C322 5130   7.241   0.706   4.514 -0.4791  0.9939 -0.5435
    5MOL   C323 5131   7.231   0.680   4.668 -0.3910 -0.8714 -0.1274
    5MOL   C324 5132   7.262   0.540   4.709  0.0528 -0.2405  0.0144
    5MOL   O325 5133   7.172   0.473   4.761  0.3918 -0.7723  0.6742
    5MOL   H326 5134   0.133   1.203   3.346 -0.2975 -0.8357 -0.7374
    5MOL   H327 5135   0.237   1.112   3.228  0.7732 -0.7387 -0.1253
    5MOL   H328 5136   0.431   1.229   3.326 -0.1298  1.7154 -1.2757
    5MOL   H329 5137   0.336   1.316   3.433 -0.1500 -0.9751  1.2995
    5MOL   H330 5138   0.367   1.028   3.436 -0.6929 -0.0532  1.5451
    5MOL   H331 5139   0.414   1.145   3.563  0.9712 -0.9778 -0.0789
    5MOL   H332 5140   0.130   1.058   3.506 -2.5443  1.0109  2.1688
    5MOL   H333 5141   0.213   1.013   3.642 -0.6703 -0.3318 -0.7269
    5MOL   H334 5142   0.139   1.292   3.585  0.3047  1.5539  0.6427
    5MOL   H335 5143   0.254   1.248   3.704  0.0267  2.0042 -0.8487
    5MOL   H336 5144   0.065   1.100   3.817 -0.0317 -0.3410 -0.2011
    5MOL   H337 5145   7.716   1.148   3.701 -0.5862  0.4893 -0.9448
    5MOL   H338 5146   0.001   1.388   3.774 -1.8123  0.6821  1.2184
    5MOL   H339 5147   0.107   1.344   3.893 -0.3341 -0.5936  2.5938
    5MOL   H340 5148   7.658   1.235   4.011 -2.7167  3.2245  1.1216
    5MOL   H341 5149   7.583   1.207   3.849 -0.6661 -1.4667  0.0774
    5MOL   H342 5150   7.570   1.430   4.030  0.5535 -1.8744  1.0825
    5MOL   H343 5151   7.559   1.461   3.853 -1.7846  0.6077  0.4810
    5MOL   H344 5152   7.334   1.427   3.974 -2.0228 -1.6691  1.2647
    5MOL   H345 5153   7.360   1.318   3.853 -0.6344 -0.3968 -0.3942
    5MOL   H346 5154   7.217   1.116   4.302  0.5059  0.8456  0.5262
    5MOL   H347 5155   7.355   1.049   4.233 -1.9358 -1.0051  3.0360
    5MOL   H348 5156   7.185   0.964   4.041  2.6794  0.1154  1.5607
    5MOL   H349 5157   7.063   1.058   4.110 -0.2610  0.2093 -0.5060
    5MOL   H350 5158   7.021   0.849   4.175  0.5518 -1.3426 -0.4136
    5MOL   H351 5159   7.090   0.910   4.324 -0.1437  2.1712 -0.9054
    5MOL   H352 5160   7.311   0.778   4.254 -0.2390 -0.7092 -0.4814
    5MOL   H353 5161   7.230   0.743   4.100 -2.2400  0.5470 -1.0428
    5MOL   H354 5162   7.046   0.611   4.226  1.1746 -1.8625 -0.1930
    5MOL   H355 5163   7.202   0.549   4.266  0.5851  0.2838 -1.5127
    5MOL   H356 5164   7.024   0.713   4.452  1.2788  0.3637  0.6179
    5MOL   H357 5165   7.088   0.563   4.481  0.4344 -0.3084 -0.1761
    5MOL   H358 5166   7.251   0.814   4.508 -0.3119  0.9270 -1.5429
    5MOL   H359 5167   7.336   0.675   4.469  0.0586  0.7589  0.7262
    5MOL   H360 5168   7.297   0.746   4.725 -0.5964 -1.0374  0.3004
    5MOL   H361 5169   7.132   0.706   4.703 -0.4086 -0.6389 -0.3488
    5MOL   O362 5170   7.381   0.499   4.679 -0.2824  0.1013  0.3922
    5MOL   C363 5171   7.412   0.364   4.674  0.8829 -0.4102 -0.4689
    5MOL   C364 5172   7.428   0.303   4.536 -0.3746  0.2457  0.4009
    5MOL   C365 5173   7.536   0.362   4.456 -0.7937 -0.8194  0.5864
    5MOL   C366 5174   7.517   0.343   4.305 -0.3513 -0.0405  0.3226
    5MOL   C367 5175   7.617   0.423   4.226  0.6469 -0.1035 -0.1601
    5MOL   C368 5176   0.013   0.376   4.226  0.0353 -0.2648 -0.2193
    5MOL   C369 5177   0.029   0.227   4.205 -0.1865  0.6220 -1.1376
    5MOL   C370 5178   0.174   0.189   4.223 -1.1258  0.1444  0.2443
    5MOL   C371 5179   0.188   0.039   4.235 -0.0684  0.9305 -0.7755
    5MOL   C372 5180   0.337   7.749   4.219 -0.4394  0.7430 -0.1764
    5MOL   O373 5181   0.422   0.019   4.335 -0.2351 -0.2021  0.1744
    5MOL   C374 5182   0.436   7.682   4.425  0.5699  0.1890 -0.3579
    5MOL   O375 5183   0.374   7.574   4.415  0.2039  0.0285 -0.7047
    5MOL   C376 5184   0.541   7.715   4.538 -0.4967 -0.3872 -0.0083
    5MOL   C377 5185   0.689   7.707   4.500 -1.0665  0.3162 -0.2394
    5MOL   C378 5186   0.746   7.565   4.519 -0.8728  0.5972 -0.1192
    5MOL   C379 5187   0.892   7.547   4.473  0.2077 -0.1200  0.3396
    5MOL   C380 5188   0.915   7.404   4.435 -0.1749  0.0224  0.5022
    5MOL   C381 5189   1.044   7.368   4.360 -0.4419 -0.6168 -0.0867
    5MOL   C382 5190   1.156   7.395   4.460 -0.2071  0.6178 -0.1051
    5MOL   C383 5191   1.292   7.329   4.421  0.2083  0.4675  0.8908
    5MOL   C384 5192   1.308   7.183   4.466  0.2230 -0.7698  0.7615
    5MOL   O385 5193   1.338   7.103   4.381 -0.6109 -0.0127  0.1274
    5MOL   H386 5194   7.503   0.348   4.732 -0.8472 -0.4220  2.3478
    5MOL   H387 5195   7.336   0.303   4.723  1.6045 -0.7302  0.2824
    5MOL   H388 5196   7.441   0.195   4.544 -0.5633  0.2771  1.1582
    5MOL   H389 5197   7.325   0.305   4.500 -2.1272  1.2393  5.0505
    5MOL   H390 5198   7.535   0.471   4.463 -0.1616 -0.8013  0.4277
    5MOL   H391 5199   7.631   0.319   4.488 -0.9394  0.0981  2.2998
    5MOL   H392 5200   7.534   0.238   4.283  0.8310  0.2094  0.0322
    5MOL   H393 5201   7.415   0.359   4.269 -0.0209 -2.1880 -1.6765
    5MOL   H394 5202   7.601   0.528   4.248 -0.5932 -0.5926  1.4371
    5MOL   H395 5203   7.591   0.407   4.122  0.4627 -3.7414  0.3748
    5MOL   H396 5204   0.063   0.401   4.319 -2.2695  0.0629  0.9629
    5MOL   H397 5205   0.063   0.428   4.144  0.3103 -0.5231 -0.2178
    5MOL   H398 5206   7.740   0.201   4.109  1.3990 -1.2986 -1.4060
    5MOL   H399 5207   7.723   0.164   4.267 -0.8852  2.7074  0.3170
    5MOL   H400 5208   0.218   0.227   4.315 -1.1194  2.3870 -0.6647
    5MOL   H401 5209   0.228   0.228   4.137  0.9515 -0.6783  1.1320
    5MOL   H402 5210   0.142   7.745   4.320  2.1270 -0.9328 -0.6723
    5MOL   H403 5211   0.137   0.003   4.145 -1.0421  1.3554 -0.4077
    5MOL   H404 5212   0.343   7.645   4.189 -1.0433  0.0238  2.0944
    5MOL   H405 5213   0.387   0.038   4.134 -0.2917 -1.7271 -1.4453
    5MOL   H406 5214   0.513   7.656   4.625 -0.5972  0.2747  0.4105
    5MOL   H407 5215   0.515   0.061   4.560 -0.0379 -0.6850  1.9376
    5MOL   H408 5216   0.747   0.021   4.558  0.8456 -1.0668 -0.4049
    5MOL   H409 5217   0.695   7.742   4.397  1.4293  0.3789 -0.0841
    5MOL   H410 5218   0.680   7.492   4.473 -1.5495  2.1913 -1.7458
    5MOL   H411 5219   0.761   7.535   4.623 -0.8807 -1.8856 -0.8006
    5MOL   H412 5220   0.961   7.604   4.535 -0.7455  0.4733  0.8620
    5MOL   H413 5221   0.903   7.605   4.381  0.9500  0.8098  1.0049
    5MOL   H414 5222   0.917   7.347   4.528 -2.6241  0.2436  0.7299
    5MOL   H415 5223   0.832   7.370   4.372 -0.8506  1.9465  0.3230
    5MOL   H416 5224   1.047   7.265   4.325 -1.1123 -0.0496 -1.8251
    5MOL   H417 5225   1.058   7.420   4.266 -0.3596 -2.8016 -1.3185
    5MOL   H418 5226   1.136   7.354   4.559  0.6937 -0.1446 -0.2351
    5MOL   H419 5227   1.177   7.501   4.470 -1.1832  0.7997  0.0673
    5MOL   H420 5228   1.308   7.346   4.314 -0.1862 -0.5004  0.6738
    5MOL   H421 5229   1.370   7.394   4.463 -0.2863  0.8613  1.2045
    5MOL   O422 5230   1.290   7.160   4.593 -0.2930 -0.1731  0.8324
    5MOL   C423 5231   1.323   7.030   4.645 -0.6709 -0.2183 -0.3621
    5MOL   C424 5232   1.475   7.027   4.676  0.0519  0.4191 -0.4599
    5MOL   C425 5233   1.518   6.937   4.794 -0.1113 -0.3479  0.6725
    5MOL   C426 5234   1.478   7.000   4.924 -0.2234  0.0530 -0.6158
    5MOL   C427 5235   1.530   6.918   5.043  0.2013 -0.7183  0.5757
    5MOL   C428 5236   1.502   6.991   5.173 -0.4131  0.1966  0.1286
    5MOL   C429 5237   1.400   6.922   5.262 -0.4032 -0.2590  0.0060
    5MOL   C430 5238   1.385   6.986   5.403  0.9619 -0.5493  0.4060
    5MOL   C431 5239   1.329   7.130   5.412  0.7302  0.4552  0.4623
    5MOL   C432 5240   1.349   7.190   5.554  0.5194 -0.8701  0.1335
    5MOL   O433 5241   1.322   7.333   5.546  0.3376 -0.1041 -0.2634
    5MOL   C434 5242   1.205   7.388   5.584 -0.2374 -0.0373  0.4298
    5MOL   O435 5243   1.109   7.326   5.623  0.4918 -0.3224 -0.1275
    5MOL   C436 5244   1.206   7.541   5.586 -0.1809  0.4037 -0.1282
    5MOL   C437 5245   1.137   7.602   5.462  0.3274 -0.4189 -0.2097
    5MOL   C438 5246   1.223   7.576   5.331  0.2345 -0.4974  0.1294
    5MOL   C439 5247   1.161   7.657   5.206  0.2252 -0.4737  0.4485
    5MOL   C440 5248   1.193   0.052   5.207  0.3222  0.4174  0.0501
    5MOL   C441 5249   1.114   0.132   5.100  0.4489 -0.1650  0.1565
    5MOL   C442 5250   1.149   0.282   5.119  0.1813  0.3835  0.2066
    5MOL   C443 5251   1.085   0.355   5.240 -0.1254  0.2815 -0.0058
    5MOL   C444 5252   1.122   0.503   5.240 -0.0029  0.4359 -0.0345
    5MOL   O445 5253   1.208   0.552   5.161  0.4190  0.4227 -0.1813
    5MOL   H446 5254   1.274   7.013   4.741  0.2161  2.0397  0.5123
    5MOL   H447 5255   1.299   6.953   4.571 -0.3088 -0.8478  0.1684
    5MOL   H448 5256   1.510   6.980   4.584  0.5003  0.4705 -0.3200
    5MOL   H449 5257   1.518   7.127   4.680 -0.6589  0.7264 -0.3936
    5MOL   H450 5258   1.467   6.841   4.792 -1.2239  0.2482  0.3881
    5MOL   H451 5259   1.626   6.918   4.790 -0.0863 -0.0287 -0.4116
    5MOL   H452 5260   1.527   7.096   4.932 -1.0526  0.3453  1.3623
    5MOL   H453 5261   1.374   7.023   4.947  0.3123  2.2343 -0.2781
    5MOL   H454 5262   1.637   6.898   5.039  0.1052 -0.9520 -1.5846
    5MOL   H455 5263   1.482   6.820   5.052 -0.9206 -0.1650  0.6159
    5MOL   H456 5264   1.468   7.092   5.151  0.1755  0.6327  1.1713
    5MOL   H457 5265   1.597   7.006   5.225  0.0209  0.1903 -0.6471
    5MOL   H458 5266   1.423   6.816   5.275 -0.7168 -0.2951  0.2895
    5MOL   H459 5267   1.303   6.930   5.212 -1.3626  0.5128  1.9273
    5MOL   H460 5268   1.483   6.987   5.452  0.7669 -1.6743  0.8264
    5MOL   H461 5269   1.320   6.933   5.472  0.3537 -1.2298 -0.6797
    5MOL   H462 5270   1.381   7.190   5.337  0.7167 -1.5572 -1.2203
    5MOL   H463 5271   1.223   7.128   5.387  0.2997  0.9630  2.1676
    5MOL   H464 5272   1.289   7.152   5.637 -1.3883 -1.2621 -1.3923
    5MOL   H465 5273   1.453   7.199   5.584  0.1751  2.7471  0.5020
    5MOL   H466 5274   1.304   7.580   5.614  0.1404 -0.2716 -0.2957
    5MOL   H467 5275   1.145   7.566   5.672 -0.2527  0.7772 -0.2898
    5MOL   H468 5276   1.142   7.710   5.476 -0.1909 -0.4033 -0.1459
    5MOL   H469 5277   1.034   7.569   5.447  0.5431 -0.8849 -0.6965
    5MOL   H470 5278   1.216   7.471   5.305 -0.5146 -0.0343 -1.6662
    5MOL   H471 5279   1.331   7.592   5.334  0.4551 -1.9979  0.3710
    5MOL   H472 5280   1.054   7.639   5.195  0.6167 -1.7405 -1.7749
    5MOL   H473 5281   1.191   7.615   5.109  0.2609 -0.1444  0.3169
    5MOL   H474 5282   1.172   0.094   5.306  0.6928  0.5592  0.0686
    5MOL   H475 5283   1.297   0.079   5.188  0.1782  3.2948  2.7696
    5MOL   H476 5284   1.138   0.093   5.001 -0.4299 -2.2767  0.7443
    5MOL   H477 5285   1.009   0.105   5.109  0.9621 -3.4553 -2.6197
    5MOL   H478 5286   1.107   0.331   5.031  1.7246  0.5703 -0.4404
    5MOL   H479 5287   1.254   0.307   5.123  0.5014 -0.6097 -1.4270
    5MOL   H480 5288   0.977   0.345   5.241 -0.1803  0.9928  2.0329
    5MOL   H481 5289   1.126   0.317   5.334  1.7128 -0.2523 -0.9860
    5MOL   O482 5290   1.054   0.568   5.338 -0.3961  0.2085 -0.0757
    5MOL   C483 5291   1.078   0.706   5.366  0.2853  0.1649 -0.3627
    5MOL   C484 5292   1.120   0.734   5.512  0.2768  0.3020 -0.7300
    5MOL   C485 5293   1.003   0.730   5.608  0.3814 -0.5467 -0.3755
    5MOL   C486 5294   1.042   0.760   5.747  0.2993 -0.2597 -0.4239
    5MOL   C487 5295   1.117   0.892   5.760  0.4404 -0.0907  0.1602
    5MOL   C488 5296   1.201   0.891   5.891 -0.1382  0.3269  0.4138
    5MOL   C489 5297   1.256   1.034   5.924  0.8274 -0.3144  0.2947
    5MOL   C490 5298   1.367   1.033   6.026  0.1762  0.0521  0.3340
    5MOL   C491 5299   1.320   1.025   6.176  0.5377  0.1946  0.2991
    5MOL   C492 5300   1.434   1.053   6.273  0.2351 -0.2758 -0.9380
    5MOL   O493 5301   1.528   0.942   6.274 -0.5235  0.3251  0.5970
    5MOL   C494 5302   1.644   0.939   6.206  0.5167  0.1691 -0.4917
    5MOL   O495 5303   1.678   1.018   6.117 -0.2360 -0.1973  0.0132
    5MOL   C496 5304   1.739   0.824   6.251  0.0594  1.1929 -0.0915
    5MOL   C497 5305   1.673   0.680   6.221 -0.3099 -0.5216 -0.2731
    5MOL   C498 5306   1.618   0.675   6.077 -0.1315  0.0386  0.0007
    5MOL   C499 5307   1.595   0.535   6.016  0.2446  0.7903  0.1937
    5MOL   C500 5308   1.472   0.531   5.933 -1.1414 -0.3823 -0.0501
    5MOL   C501 5309   1.431   0.395   5.881 -0.4740 -0.5867 -0.5012
    5MOL   C502 5310   1.291   0.380   5.822  0.4179  1.0741 -0.0801
    5MOL   C503 5311   1.242   0.236   5.781  0.2730  0.2358  0.1703
    5MOL   C504 5312   1.229   0.144   5.911  0.5474  0.6947  0.4961
    5MOL   O505 5313   1.322   0.064   5.947  0.1168 -0.1174  0.1894
    5MOL   H506 5314   1.158   0.741   5.300  1.4915 -1.6173  0.1109
    5MOL   H507 5315   0.999   0.777   5.340 -0.7031 -1.1508 -0.9786
    5MOL   H508 5316   1.202   0.680   5.559 -0.9015 -2.0294 -1.2278
    5MOL   H509 5317   1.143   0.840   5.502  0.4623  0.3310 -0.0447
    5MOL   H510 5318   0.920   0.795   5.582  1.7072  0.9901 -0.8421
    5MOL   H511 5319   0.960   0.631   5.592  0.8228 -0.9873  1.0745
    5MOL   H512 5320   0.954   0.785   5.807  2.2763  1.3679  1.9230
    5MOL   H513 5321   1.100   0.679   5.789 -1.9427 -2.4644 -1.4572
    5MOL   H514 5322   1.049   0.976   5.753 -0.7857 -1.0379  0.5667
    5MOL   H515 5323   1.196   0.908   5.687  0.6057 -2.3994 -0.2114
    5MOL   H516 5324   1.290   0.833   5.864 -0.9128 -0.1341 -1.1978
    5MOL   H517 5325   1.152   0.848   5.978  0.6236  2.8208  2.1374
    5MOL   H518 5326   1.175   1.100   5.958 -0.0406 -0.9157 -0.5955
    5MOL   H519 5327   1.293   1.083   5.834 -1.1820  0.7787  0.0398
    5MOL   H520 5328   1.415   1.130   6.026  2.5113 -0.9451  4.5508
    5MOL   H521 5329   1.446   0.960   6.007  1.8173  2.0959 -0.8781
    5MOL   H522 5330   1.238   1.096   6.193 -0.7227 -0.8278 -1.3308
    5MOL   H523 5331   1.276   0.929   6.203  1.9879  0.3104  3.3210
    5MOL   H524 5332   1.484   1.145   6.244 -0.3315  0.5051  0.5290
    5MOL   H525 5333   1.396   1.066   6.374 -0.5108  1.7313 -1.4462
    5MOL   H526 5334   1.755   0.834   6.359 -1.6835 -2.4949  0.6006
    5MOL   H527 5335   1.834   0.829   6.197  0.2462  0.5686  0.1723
    5MOL   H528 5336   1.593   0.656   6.291 -1.7475  2.8393 -0.6593
    5MOL   H529 5337   1.751   0.605   6.232  0.2825  0.0134 -0.7612
    5MOL   H530 5338   1.683   0.731   6.010  0.3248 -0.3401  0.1226
    5MOL   H531 5339   1.523   0.729   6.074 -0.3274 -0.2831  0.2562
    5MOL   H532 5340   1.569   0.467   6.096  1.2677  0.1158 -0.0272
    5MOL   H533 5341   1.677   0.498   5.955 -0.1428 -0.8621  0.6717
    5MOL   H534 5342   1.388   0.566   5.994  0.3104  0.7724  1.3375
    5MOL   H535 5343   1.485   0.606   5.855 -4.9327 -1.5585 -1.9512
    5MOL   H536 5344   1.502   0.356   5.808 -0.3248 -0.4790 -0.4122
    5MOL   H537 5345   1.436   0.320   5.959 -0.4055  0.0516  0.1117
    5MOL   H538 5346   1.266   0.444   5.737  0.1741 -0.2835 -1.0407
    5MOL   H539 5347   1.220   0.420   5.895  2.2748  0.8224  1.9271
    5MOL   H540 5348   1.146   0.244   5.730 -0.2839 -1.4149  0.9107
    5MOL   H541 5349   1.317   0.190   5.717  0.5005  0.7940  0.0315
    5MOL   O542 5350   1.119   0.159   5.973  0.5944 -0.4711 -0.1271
    5MOL   C543 5351   1.076   0.071   6.076  0.4495  0.7276 -0.7108
    5MOL   C544 5352   0.989   7.721   6.004 -0.7211  0.0310  0.2560
    5MOL   C545 5353   0.904   7.640   6.099  0.5191 -0.6107  0.4074
    5MOL   C546 5354   0.835   7.528   6.023  0.2654  0.3704  1.3938
    5MOL   C547 5355   0.766   7.448   6.136  0.1314 -0.6365  0.4468
    5MOL   C548 5356   0.629   7.506   6.160 -1.2261 -0.0729 -0.2548
    5MOL   C549 5357   0.516   7.426   6.088 -0.6067 -0.0250 -0.5548
    5MOL   C550 5358   0.371   7.475   6.115 -0.7926  0.4050  0.1807
    5MOL   C551 5359   0.266   7.378   6.054  0.6243  0.2996  0.7020
    5MOL   C552 5360   0.238   7.380   5.901 -0.4913  0.7092  0.2651
    5MOL   O553 5361   0.155   7.496   5.881 -0.1324 -0.2691 -0.0331
    5MOL   C554 5362   0.038   7.484   5.815 -0.0602  0.1837 -0.1177
    5MOL   O555 5363   7.754   7.372   5.772  0.5881 -0.7530 -0.2476
    5MOL   C556 5364   7.709   7.616   5.811 -0.1189 -0.1805  0.6353
    5MOL   C557 5365   7.555   7.571   5.794 -0.5293 -0.5557 -1.1417
    5MOL   C558 5366   7.452   7.680   5.828  0.1365  0.1173  0.3567
    5MOL   C559 5367   7.437   0.028   5.718  0.8464  0.2323  0.2009
    5MOL   C560 5368   7.312   0.122   5.721  0.0990 -0.6944 -0.1451
    5MOL   C561 5369   7.316   0.221   5.608 -0.1166  0.2921 -0.0219
    5MOL   C562 5370   7.395   0.353   5.644  0.7276  0.0632  0.5249
    5MOL   C563 5371   7.436   0.442   5.529 -0.3414 -0.3010 -1.1642
    5MOL   C564 5372   7.520   0.369   5.417  0.5849 -0.0949 -1.1280
    5MOL   O565 5373   7.471   0.345   5.305 -0.0500  0.3809 -0.2624
    5MOL   H566 5374   1.154   0.033   6.142 -1.3622 -1.6970  0.1145
    5MOL   H567 5375   1.002   0.121   6.138  1.1303  1.6345 -0.6211
    5MOL   H568 5376   0.923   0.011   5.931 -0.6007 -1.1166 -0.6050
    5MOL   H569 5377   1.050   7.661   5.936 -1.2319  2.2248 -2.2161
    5MOL   H570 5378   0.962   7.603   6.184  2.3691  0.6772 -0.2526
    5MOL   H571 5379   0.831   7.703   6.150  1.4267  2.9068 -2.4541
    5MOL   H572 5380   0.768   7.565   5.945  0.2174 -1.0743  0.7201
    5MOL   H573 5381   0.903   7.457   5.976 -0.1595  0.2112  1.0112
    5MOL   H574 5382   0.824   7.463   6.227 -0.5263  1.5646  0.5317
    5MOL   H575 5383   0.761   7.343   6.107  1.0515  0.0452 -2.2976
    5MOL   H576 5384   0.627   7.608   6.123 -2.7608 -0.6024 -1.7298
    5MOL   H577 5385   0.613   7.505   6.268  0.4417  2.3283  0.0335
    5MOL   H578 5386   0.533   7.325   6.125  0.9756  0.1902 -0.6628
    5MOL   H579 5387   0.540   7.421   5.982 -0.4248  0.5141 -0.5414
    5MOL   H580 5388   0.347   7.571   6.069  0.5681  0.5906 -0.1674
    5MOL   H581 5389   0.341   7.484   6.220 -2.3743 -0.3558 -0.1955
    5MOL   H582 5390   0.302   7.276   6.067  1.5373  0.3497 -1.2130
    5MOL   H583 5391   0.171   7.389   6.106 -0.6819  1.1287 -1.7492
    5MOL   H584 5392   0.333   7.397   5.850 -0.9193  0.1273 -0.7506
    5MOL   H585 5393   0.206   7.284   5.861  2.0715 -0.5281  1.0721
    5MOL   H586 5394   7.743   7.677   5.727  0.5128  0.2696  1.2131
    5MOL   H587 5395   7.717   7.674   5.903 -1.0442 -1.8083  1.7554
    5MOL   H588 5396   7.538   7.491   5.867  0.1821 -0.3893 -0.7837
    5MOL   H589 5397   7.540   7.522   5.699 -0.7129 -1.7397 -0.5065
    5MOL   H590 5398   7.482   7.717   5.926  1.9483 -1.7731  0.5316
    5MOL   H591 5399   7.355   7.632   5.844 -1.2792  3.0523  1.0908
    5MOL   H592 5400   7.429   7.740   5.619 -0.3507 -0.3124  0.5270
    5MOL   H593 5401   7.528   0.084   5.702  1.5500 -0.7282  0.7937
    5MOL   H594 5402   7.235   0.046   5.710  0.6725 -1.3209  0.1648
    5MOL   H595 5403   7.314   0.174   5.817 -0.1103 -1.5104  0.3090
    5MOL   H596 5404   7.363   0.170   5.523  1.1459  0.8629  0.3156
    5MOL   H597 5405   7.213   0.248   5.587  0.3086  0.6182 -1.8494
    5MOL   H598 5406   7.490   0.313   5.680 -0.3813 -2.0086  1.2390
    5MOL   H599 5407   7.356   0.411   5.727  1.3619 -0.5167  1.2400
    5MOL   H600 5408   7.345   0.476   5.479 -0.7841 -0.1276 -0.2402
    5MOL   H601 5409   7.499   0.526   5.557  3.5140 -3.2819 -0.4689
    5MOL   O602 5410   7.641   0.316   5.454  0.4425  0.2374  0.0077
    5MOL   C603 5411   7.693   0.214   5.376 -0.5907  0.1042  0.3455
    5MOL   C604 5412   7.626   0.079   5.418 -0.0245  0.2547 -0.1668
    5MOL   C605 5413   7.666   7.710   5.340  0.2168 -0.4834 -0.2837
    5MOL   C606 5414   0.058   7.679   5.335 -0.9645  0.1729 -0.1872
    5MOL   C607 5415   0.125   7.628   5.470 -0.0981 -0.0605 -0.4080
    5MOL   C608 5416   0.282   7.625   5.460 -0.2221 -0.2543  0.0854
    5MOL   C609 5417   0.362   7.589   5.587 -0.3360  0.0950  0.6904
    5MOL   C610 5418   0.514   7.612   5.554 -0.4076  0.6684 -0.0303
    5MOL   C611 5419   0.603   7.572   5.670  0.2099  0.8138 -0.7988
    5MOL   C612 5420   0.753   7.557   5.650 -0.0501 -0.7572 -0.4304
    5MOL   O613 5421   0.813   7.679   5.604 -0.0236  0.6768  0.4996
    5MOL   C614 5422   0.806   0.043   5.657  0.3197  0.0801 -0.3330
    5MOL   O615 5423   0.757   0.073   5.766 -0.3435  0.1263  0.2391
    5MOL   C616 5424   0.877   0.145   5.570 -0.3508 -0.1518 -0.8544
    5MOL   C617 5425   0.787   0.253   5.520 -0.3305  0.1248  0.3841
    5MOL   C618 5426   0.701   0.205   5.400  0.8423 -0.2426  0.1814
    5MOL   C619 5427   0.589   0.304   5.367  0.1301  0.2111 -0.4090
    5MOL   C620 5428   0.501   0.246   5.255 -0.3276  0.2490  0.2199
    5MOL   C621 5429   0.377   0.333   5.231  0.3072 -0.4931  0.4907
    5MOL   C622 5430   0.295   0.304   5.104 -0.0232  0.0516  0.1546
    5MOL   C623 5431   0.157   0.373   5.102 -0.0044  0.1516  0.5652
    5MOL   C624 5432   0.153   0.528   5.095 -0.6405  0.2171  0.1041
    5MOL   O625 5433   0.243   0.598   5.138  0.4558 -0.5999 -0.1384
    5MOL   H626 5434   7.684   0.225   5.268 -1.4114 -1.0129  0.2851
    5MOL   H627 5435   0.045   0.206   5.382 -0.4749  0.6157 -0.9349
    5MOL   H628 5436   7.643   0.054   5.523  0.4912 -0.7526 -0.4879
    5MOL   H629 5437   7.517   0.083   5.409 -0.0026 -0.5638 -0.9074
    5MOL   H630 5438   7.623   7.625   5.392 -0.2034  1.0614  1.9350
    5MOL   H631 5439   7.619   7.692   5.243  0.0501  0.4891 -0.3919
    5MOL   H632 5440   0.069   7.593   5.269 -0.5027 -0.3012  0.4942
    5MOL   H633 5441   0.102   0.014   5.295 -0.4561  1.4450  3.1162
    5MOL   H634 5442   0.082   7.531   5.496 -1.1373  0.6154  0.4597
    5MOL   H635 5443   0.092   7.691   5.552 -2.7409 -1.0189 -0.6925
    5MOL   H636 5444   0.311   7.725   5.428 -0.0290  1.1265  4.2199
    5MOL   H637 5445   0.311   7.561   5.378 -1.0200 -0.2363 -0.2221
    5MOL   H638 5446   0.351   7.483   5.609  1.1428 -0.0728  0.6991
    5MOL   H639 5447   0.320   7.643   5.672 -2.6152 -0.7132  0.0979
    5MOL   H640 5448   0.546   7.714   5.532 -0.0415  0.8323  1.1986
    5MOL   H641 5449   0.541   7.565   5.459 -1.7492  1.0160 -0.5924
    5MOL   H642 5450   0.569   7.637   5.751 -2.0384 -1.2788 -0.0088
    5MOL   H643 5451   0.575   7.477   5.717 -0.0926  0.2246 -2.1587
    5MOL   H644 5452   0.803   7.536   5.745 -1.3439 -0.1194  0.4077
    5MOL   H645 5453   0.769   7.481   5.574  0.9644 -0.9620 -0.0149
    5MOL   H646 5454   0.917   0.095   5.481 -0.0194 -0.0224 -0.7798
    5MOL   H647 5455   0.961   0.192   5.622  2.4000 -1.8925 -3.5323
    5MOL   H648 5456   0.835   0.346   5.488  0.9592 -0.5545  0.2991
    5MOL   H649 5457   0.729   0.282   5.608  0.4358  0.0898  0.9102
    5MOL   H650 5458   0.648   0.113   5.428 -0.0306  0.4306  0.7858
    5MOL   H651 5459   0.762   0.174   5.315  1.6980  0.6915  0.4464
    5MOL   H652 5460   0.621   0.400   5.328  0.7004  0.1363 -0.1378
    5MOL   H653 5461   0.529   0.330   5.454  0.2491  2.8877 -1.0851
    5MOL   H654 5462   0.556   0.254   5.161  0.0144  2.0438  0.5440
    5MOL   H655 5463   0.472   0.145   5.281  0.9201  0.2456  1.6785
    5MOL   H656 5464   0.329   0.318   5.328  2.0636 -0.1609  1.4255
    5MOL   H657 5465   0.409   0.437   5.224 -0.7655 -0.1760  0.1199
    5MOL   H658 5466   0.272   0.197   5.098 -2.3695  0.5553 -0.1366
    5MOL   H659 5467   0.350   0.317   5.011 -0.6069  0.5742 -0.1175
    5MOL   H660 5468   0.103   0.329   5.018  0.5364  0.0577  0.2688
    5MOL   H661 5469   0.097   0.349   5.190 -1.9289  1.5057 -0.3493
    5MOL   O662 5470   0.038   0.567   5.047 -0.2119 -0.0656 -0.5989
    5MOL   C663 5471   0.017   0.700   5.031  0.6080 -0.2566 -0.2741
    5MOL   C664 5472   7.625   0.733   5.017 -0.2896  0.0508 -0.1917
    5MOL   C665 5473   7.585   0.686   4.876 -1.2311  0.1031 -0.3130
    5MOL   C666 5474   7.624   0.793   4.767  0.1398 -0.2930 -0.2670
    5MOL   C667 5475   7.606   0.742   4.624  0.2240  0.3430  0.0025
    5MOL   C668 5476   7.658   0.840   4.518  0.0077 -0.1276 -1.0674
    5MOL   C669 5477   7.594   0.981   4.531  0.6421  0.4742 -0.7577
    5MOL   C670 5478   7.621   1.063   4.397  0.3870  0.2323 -0.1119
    5MOL   C671 5479   7.542   1.187   4.400 -0.3184 -0.8690  0.0733
    5MOL   C672 5480   7.587   1.281   4.282 -0.0388 -0.1847  0.3184
    5MOL   O673 5481   7.518   1.405   4.282  0.6931  0.0676 -0.1218
    5MOL   C674 5482   7.560   1.505   4.355  0.0054 -0.0419 -0.5029
    5MOL   O675 5483   7.675   1.513   4.398 -0.3371 -0.2036  0.0944
    5MOL   C676 5484   7.463   1.614   4.384  0.6777  0.1680  0.5425
    5MOL   C677 5485   7.353   1.639   4.284  0.3126 -0.2374  0.2119
    5MOL   C678 5486   7.398   1.701   4.154  0.1754 -0.2077  0.5175
    5MOL   C679 5487   7.282   1.771   4.081  0.2229  0.2075  0.2979
    5MOL   C680 5488   7.321   1.816   3.940  0.4686 -0.0018 -0.3582
    5MOL   C681 5489   7.412   1.939   3.940 -0.7798 -0.5792 -0.5958
    5MOL   C682 5490   7.461   1.975   3.804  0.4309  0.2498  0.0132
    5MOL   C683 5491   7.508   2.119   3.800 -0.7064  0.4457  0.1162
    5MOL   C684 5492   7.617   2.146   3.698 -0.1764 -0.6191 -1.0743
    5MOL   O685 5493   7.707   2.067   3.675 -0.0538 -0.4293  0.3415
    5MOL   H686 5494   0.045   0.750   5.123  1.5191 -1.1424 -0.0659
    5MOL   H687 5495   0.076   0.740   4.948  2.2293  0.6141  1.2662
    5MOL   H688 5496   7.569   0.683   5.096  0.9185  1.6706  1.7440
    5MOL   H689 5497   7.604   0.840   5.028 -0.8198  0.1662 -2.1287
    5MOL   H690 5498   7.614   0.583   4.859  1.1923  0.6478  0.4421
    5MOL   H691 5499   7.476   0.679   4.880 -1.1641 -0.5941  0.2584
    5MOL   H692 5500   7.560   0.881   4.778  0.4286  0.0482 -1.3080
    5MOL   H693 5501   7.728   0.823   4.774 -0.6159  1.7199  4.2701
    5MOL   H694 5502   7.506   0.710   4.593 -0.0215  0.1636  0.9659
    5MOL   H695 5503   7.665   0.652   4.609  2.0251  1.2819  1.3667
    5MOL   H696 5504   7.640   0.802   4.417 -1.0336 -3.9142  0.4630
    5MOL   H697 5505   0.009   0.850   4.529 -0.2948  2.4626 -0.2929
    5MOL   H698 5506   7.629   1.029   4.622 -2.2769  0.3878  0.4599
    5MOL   H699 5507   7.486   0.973   4.539  0.7695 -0.2486  0.3493
    5MOL   H700 5508   7.606   1.007   4.305  1.2411 -0.3323  0.0771
    5MOL   H701 5509   7.728   1.083   4.405  0.4585  0.3981 -1.3837
    5MOL   H702 5510   7.436   1.166   4.394 -0.5260  0.5170 -1.2356
    5MOL   H703 5511   7.566   1.234   4.496 -1.4207  1.3425 -0.6865
    5MOL   H704 5512   7.692   1.309   4.298  0.4218 -1.2133 -0.8214
    5MOL   H705 5513   7.586   1.224   4.189  1.9039  2.1986 -1.2283
    5MOL   H706 5514   7.522   1.706   4.389 -0.2453  0.7641  0.5047
    5MOL   H707 5515   7.426   1.576   4.479 -0.5035 -0.5296 -0.1943
    5MOL   H708 5516   7.286   1.707   4.336  0.9910 -0.8382  1.9138
    5MOL   H709 5517   7.293   1.549   4.275  0.1023 -0.0126 -0.5936
    5MOL   H710 5518   7.432   1.611   4.103 -1.1786 -0.3956 -0.0662
    5MOL   H711 5519   7.477   1.772   4.176 -0.9688  1.4035 -0.4672
    5MOL   H712 5520   7.245   1.857   4.137 -2.8911 -0.2679 -0.9387
    5MOL   H713 5521   7.200   1.700   4.075  0.4048 -0.0962  1.3357
    5MOL   H714 5522   7.365   1.742   3.872  3.0973 -0.9891  2.2715
    5MOL   H715 5523   7.231   1.846   3.887  1.9028 -0.5911 -3.1913
    5MOL   H716 5524   7.376   2.023   3.999 -1.9779 -1.9741  0.7010
    5MOL   H717 5525   7.504   1.916   3.993  0.8108  3.9351 -1.1981
    5MOL   H718 5526   7.389   1.965   3.723 -0.8717 -0.0486  1.1768
    5MOL   H719 5527   7.544   1.907   3.784  0.5180  1.1771 -2.9553
    5MOL   H720 5528   7.421   2.184   3.785  0.8285  2.5009 -0.0488
    5MOL   H721 5529   7.548   2.158   3.893 -3.3999  2.8587  0.3257
    5MOL   O722 5530   7.604   2.270   3.644 -0.1550  0.2150  0.0343
    5MOL   C723 5531   7.716   2.313   3.558 -0.3849  0.2428 -0.7187
    5MOL   C724 5532   7.700   2.463   3.545  0.1095  0.3137 -0.0650
    5MOL   C725 5533   7.593   2.503   3.450 -0.3189 -0.1077 -0.2203
    5MOL   C726 5534   7.604   2.654   3.404  0.1105  0.4052  0.6159
    5MOL   C727 5535   7.490   2.703   3.314 -0.1287 -0.5717 -0.1105
    5MOL   C728 5536   7.347   2.688   3.371 -0.1705  1.0743  0.1234
    5MOL   C729 5537   7.249   2.801   3.334 -0.2340 -0.2342  0.6902
    5MOL   C730 5538   7.111   2.766   3.388  0.5145  0.1375  0.1280
    5MOL   C731 5539   6.998   2.875   3.376 -0.8829 -0.0505  0.5078
    5MOL   C732 5540   6.870   2.835   3.448 -0.2305  0.3338  0.1103
    5MOL   O733 5541   6.760   2.911   3.392  0.7633  0.1251 -0.3260
    5MOL   C734 5542   6.727   3.029   3.445 -0.5847  0.3422  0.6971
    5MOL   O735 5543   6.774   3.079   3.545  0.0234 -0.1696 -0.0024
    5MOL   C736 5544   6.628   3.114   3.359  0.5641 -0.0214 -0.2912
    5MOL   C737 5545   6.657   3.262   3.357 -0.2019 -0.3181 -0.1811
    5MOL   C738 5546   6.783   3.308   3.286 -0.0725 -0.2349  0.0316
    5MOL   C739 5547   6.806   3.459   3.315 -0.0123  0.2444 -0.1978
    5MOL   C740 5548   6.943   3.520   3.261  0.6022 -0.0931 -0.7075
    5MOL   C741 5549   6.967   3.664   3.320 -0.0102  0.0575  0.0445
    5MOL   C742 5550   7.081   3.733   3.247  0.1769  0.1775  0.2776
    5MOL   C743 5551   7.211   3.655   3.282 -0.6038  0.0038 -0.4562
    5MOL   C744 5552   7.325   3.698   3.189  0.0326 -0.3043  0.6271
    5MOL   O745 5553   7.386   3.609   3.129 -0.2434  0.1001  0.2131
    5MOL   H746 5554   0.052   2.284   3.607  0.2229 -1.4935 -2.8728
    5MOL   H747 5555   7.709   2.270   3.459  0.6247  0.7567 -1.0190
    5MOL   H748 5556   7.685   2.514   3.641  2.3175  2.4802 -0.7871
    5MOL   H749 5557   0.039   2.500   3.507 -0.3809  3.1750  1.2953
    5MOL   H750 5558   7.581   2.434   3.365  0.0323 -0.7978  0.2881
    5MOL   H751 5559   7.496   2.495   3.498 -1.1073 -1.4137 -1.9331
    5MOL   H752 5560   7.613   2.717   3.493  1.2817 -0.6847  1.2818
    5MOL   H753 5561   7.693   2.678   3.347 -0.8929  1.1007 -0.7010
    5MOL   H754 5562   7.494   2.663   3.213  0.5759  0.6366 -0.5736
    5MOL   H755 5563   7.503   2.811   3.308 -0.2199 -0.4619  1.4199
    5MOL   H756 5564   7.346   2.686   3.480  1.0627 -2.3227  0.1612
    5MOL   H757 5565   7.309   2.588   3.347 -2.6554  1.6059  1.6597
    5MOL   H758 5566   7.252   2.823   3.227  1.7375 -2.3937  0.2642
    5MOL   H759 5567   7.286   2.897   3.369 -2.3198  0.9602 -0.2639
    5MOL   H760 5568   7.131   2.753   3.495 -1.1960 -0.8215  0.3496
    5MOL   H761 5569   7.079   2.667   3.355 -2.9200  0.2691  2.7492
    5MOL   H762 5570   7.040   2.968   3.415 -0.4184 -1.3006  3.1466
    5MOL   H763 5571   6.982   2.891   3.270  2.4527 -2.7683 -0.5062
    5MOL   H764 5572   6.859   2.728   3.429  0.1982  0.1594  0.7989
    5MOL   H765 5573   6.888   2.855   3.554 -0.3742  0.2112  0.1582
    5MOL   H766 5574   6.532   3.095   3.406  2.0614 -1.6771  2.2048
    5MOL   H767 5575   6.646   3.069   3.261  2.8301 -0.6952  0.4012
    5MOL   H768 5576   6.664   3.290   3.462 -0.7651  0.6743 -0.4093
    5MOL   H769 5577   6.566   3.303   3.315 -0.1903 -0.4925 -0.3761
    5MOL   H770 5578   6.781   3.284   3.179  0.7075  0.5946 -0.1756
    5MOL   H771 5579   6.868   3.253   3.324  1.4654  2.0163 -0.0363
    5MOL   H772 5580   6.813   3.477   3.422 -1.5051 -1.2159  0.1498
    5MOL   H773 5581   6.714   3.511   3.288 -0.9131 -0.2692  1.8187
    5MOL   H774 5582   7.018   3.453   3.301 -0.5628 -0.7710  0.3846
    5MOL   H775 5583   6.933   3.520   3.152 -0.9003 -0.9079 -0.5951
    5MOL   H776 5584   6.874   3.721   3.313 -0.1588 -0.1389  0.4203
    5MOL   H777 5585   6.992   3.661   3.426 -1.0437  1.1139  0.3261
    5MOL   H778 5586   7.084   3.830   3.296 -2.1250  0.5867 -0.3165
    5MOL   H779 5587   7.061   3.742   3.140 -1.4686  1.6317  0.6980
    5MOL   H780 5588   7.237   3.666   3.388 -0.1153  0.3369 -0.6103
    5MOL   H781 5589   7.188   3.549   3.268  1.0637 -0.6643  1.5500
    5MOL   O782 5590   7.344   3.834   3.177  0.1642  0.0170  0.4791
    5MOL   C783 5591   7.458   3.878   3.102  0.6162  0.0682  0.2562
    5MOL   C784 5592   7.592   3.895   3.179  0.5316 -0.0447  0.3885
    5MOL   C785 5593   7.574   4.008   3.286  0.4451  0.1380 -0.2505
    5MOL   C786 5594   7.695   4.030   3.376  0.1016  0.1080  0.1288
    5MOL   C787 5595   7.658   4.117   3.500 -0.2385 -0.2246  0.9740
    5MOL   C788 5596   0.017   4.134   3.603 -0.1863 -0.3648 -0.4077
    5MOL   C789 5597   7.750   4.268   3.685 -0.0874  0.2060 -0.0012
    5MOL   C790 5598   0.117   4.301   3.772 -0.2275 -0.3098  0.4721
    5MOL   C791 5599   0.116   4.428   3.844  0.2177  0.2696  0.1879
    5MOL   C792 5600   0.236   4.446   3.939 -0.4558 -0.5185 -0.1723
    5MOL   O793 5601   0.228   4.580   3.993  0.4107  1.0803  0.0878
    5MOL   C794 5602   0.191   4.589   4.118 -0.1818  1.3574  0.9689
    5MOL   O795 5603   0.170   4.495   4.196  0.1820 -0.1320  0.3442
    5MOL   C796 5604   0.182   4.729   4.155 -1.2322 -0.3002  0.3588
    5MOL   C797 5605   0.038   4.790   4.153 -0.0068  0.1533 -0.4526
    5MOL   C798 5606   7.734   4.834   4.009  0.0799 -0.1078  0.1311
    5MOL   C799 5607   7.596   4.901   4.010  0.3666  0.3008 -1.0147
    5MOL   C800 5608   7.548   4.945   3.872 -0.4795 -0.4258  0.6396
    5MOL   C801 5609   7.402   4.986   3.854 -0.2784 -0.4237 -0.4141
    5MOL   C802 5610   7.369   5.100   3.950 -0.4696 -0.6514 -0.8295
    5MOL   C803 5611   7.218   5.140   3.955  0.1269  0.7246 -0.1607
    5MOL   C804 5612   7.174   5.215   3.827 -0.0512 -0.4365  0.3011
    5MOL   O805 5613   7.079   5.177   3.755  0.3109  0.0563  0.3197
    5MOL   H806 5614   7.465   3.815   3.013  0.7030 -1.6967  1.4851
    5MOL   H807 5615   7.433   3.978   3.068 -2.0381  0.7165  3.8470
    5MOL   H808 5616   7.625   3.800   3.221  0.5787 -0.2838 -0.1787
    5MOL   H809 5617   7.664   3.923   3.102 -1.7041  1.0648 -1.3738
    5MOL   H810 5618   7.544   4.097   3.232  0.4069 -0.2236 -0.8312
    5MOL   H811 5619   7.489   3.986   3.351  0.1079  0.3287 -0.6271
    5MOL   H812 5620   7.733   3.932   3.406  0.6420  0.0652 -0.6903
    5MOL   H813 5621   0.010   4.081   3.312  0.9161 -1.5201 -0.2883
    5MOL   H814 5622   7.570   4.072   3.547 -2.2705  3.8275  1.3349
    5MOL   H815 5623   7.619   4.212   3.464 -0.3972  0.2002  2.2272
    5MOL   H816 5624   0.111   4.138   3.547  0.8400  2.0909  1.4224
    5MOL   H817 5625   0.031   4.046   3.665 -1.5795 -1.1715 -1.2116
    5MOL   H818 5626   7.656   4.260   3.739  0.4796  3.0909  1.4647
    5MOL   H819 5627   7.739   4.353   3.617  0.5572  1.4100  1.3871
    5MOL   H820 5628   0.203   4.303   3.705 -0.6151  0.7194 -0.0073
    5MOL   H821 5629   0.134   4.211   3.830  0.0340 -0.3438  0.3456
    5MOL   H822 5630   0.103   4.505   3.768  1.7744 -0.9020 -1.3117
    5MOL   H823 5631   0.024   4.431   3.902 -0.6454  3.3213 -1.2662
    5MOL   H824 5632   0.228   4.375   4.022  1.3286  0.5978  0.9931
    5MOL   H825 5633   0.332   4.426   3.891  0.9368  0.3831  2.1281
    5MOL   H826 5634   0.241   4.800   4.097 -1.9872 -0.1413 -0.2110
    5MOL   H827 5635   0.229   4.735   4.253 -1.5789 -1.1211  0.5794
    5MOL   H828 5636   0.039   4.880   4.215  0.2451 -0.3847  0.3272
    5MOL   H829 5637   7.721   4.723   4.196 -1.2898  0.2012 -2.5210
    5MOL   H830 5638   7.720   4.754   3.937  0.5382  0.7802 -0.9542
    5MOL   H831 5639   0.051   4.896   3.957 -1.2678  2.6756  1.4080
    5MOL   H832 5640   7.608   4.990   4.071 -2.0981 -0.5478  0.8066
    5MOL   H833 5641   7.520   4.834   4.051 -0.9713  2.1097 -0.5077
    5MOL   H834 5642   7.617   5.028   3.856 -1.7391  1.3821  4.1102
    5MOL   H835 5643   7.565   4.875   3.791  0.9910  2.3701 -1.5833
    5MOL   H836 5644   7.377   5.008   3.751 -2.8421  1.3685  0.5358
    5MOL   H837 5645   7.339   4.901   3.877 -1.5160  0.8228  0.8740
    5MOL   H838 5646   7.419   5.192   3.917  0.4521 -1.5899 -2.1281
    5MOL   H839 5647   7.401   5.071   4.050  0.0644  0.8587 -0.5474
    5MOL   H840 5648   7.146   5.059   3.967  0.2994  0.2799 -2.0298
    5MOL   H841 5649   7.217   5.206   4.042  1.2476  1.0783 -0.4184
    5MOL   O842 5650   7.252   5.324   3.801  0.0452 -0.0150 -0.4489
    5MOL   C843 5651   7.220   5.414   3.692 -0.5005 -0.3246  0.0431
    5MOL   C844 5652   7.352   5.444   3.630 -0.4065 -0.3939 -0.1314
    5MOL   C845 5653   7.345   5.546   3.512 -0.3502 -0.2723 -0.1674
    5MOL   C846 5654   7.475   5.572   3.445 -0.1463 -0.3022 -0.2184
    5MOL   C847 5655   7.458   5.660   3.322  0.7713 -0.6169  0.7644
    5MOL   C848 5656   7.594   5.707   3.261  0.7006 -1.1810  0.5007
    5MOL   C849 5657   7.580   5.808   3.141  0.1972  0.1559 -0.0441
    5MOL   C850 5658   7.512   5.938   3.175 -0.2163  0.6433  0.6574
    5MOL   C851 5659   7.522   6.032   3.052  0.2369 -0.0073  0.2858
    5MOL   C852 5660   7.462   6.169   3.072 -0.5296 -0.1541 -0.4959
    5MOL   O853 5661   7.319   6.162   3.080 -0.0311 -0.2436 -0.1467
    5MOL   C854 5662   7.255   6.273   3.125  0.5889  0.3138 -0.2253
    5MOL   O855 5663   7.318   6.375   3.167  1.2586 -0.4596  0.1156
    5MOL   C856 5664   7.108   6.253   3.131  0.4597  0.1353  0.1050
    5MOL   C857 5665   7.056   6.136   3.218 -0.8132  0.3072 -0.0047
    5MOL   C858 5666   7.065   5.999   3.152  0.0940 -0.2020 -0.1325
    5MOL   C859 5667   6.977   5.890   3.225  0.2380  0.4972  0.3442
    5MOL   C860 5668   7.061   5.810   3.335 -0.2229  0.0333 -0.1506
    5MOL   C861 5669   6.985   5.718   3.439 -0.0178 -0.0006 -0.0522
    5MOL   C862 5670   6.879   5.634   3.370  0.6453  0.2057 -0.3555
    5MOL   C863 5671   6.782   5.574   3.473  0.4814  0.2824 -0.2159
    5MOL   C864 5672   6.846   5.470   3.569 -0.3872 -0.1243 -0.7079
    5MOL   O865 5673   6.935   5.392   3.532 -0.4482  0.3683  0.5059
    5MOL   H866 5674   7.149   5.366   3.623 -2.8082 -0.5949  2.5209
    5MOL   H867 5675   7.174   5.505   3.732 -2.9916 -1.6067  0.2236
    5MOL   H868 5676   7.422   5.478   3.707  0.2284  1.6857 -1.5794
    5MOL   H869 5677   7.387   5.351   3.586  0.5292 -0.2604  0.3205
    5MOL   H870 5678   7.272   5.497   3.448  0.0924  1.0146 -1.7124
    5MOL   H871 5679   7.300   5.642   3.540  1.5580  0.4400  0.5509
    5MOL   H872 5680   7.547   5.611   3.517  1.4794  0.1959 -2.0644
    5MOL   H873 5681   7.522   5.482   3.406  0.2873  0.0638 -0.5513
    5MOL   H874 5682   7.394   5.745   3.347  1.2879  0.2185 -0.6262
    5MOL   H875 5683   7.411   5.601   3.243 -0.2311 -0.4097  1.1993
    5MOL   H876 5684   7.657   5.622   3.234  2.1599 -0.0769  0.3693
    5MOL   H877 5685   7.651   5.755   3.340  1.7465 -2.8179  0.7749
    5MOL   H878 5686   7.546   5.755   3.052  2.1578 -1.0522 -0.0968
    5MOL   H879 5687   7.680   5.831   3.105 -0.7518 -0.4272 -3.1889
    5MOL   H880 5688   7.571   5.980   3.256 -0.4126  0.6002  0.8224
    5MOL   H881 5689   7.407   5.920   3.198  0.0769 -2.0271  0.0533
    5MOL   H882 5690   7.625   6.053   3.023  0.9652 -1.3815  1.7762
    5MOL   H883 5691   7.466   5.988   2.970 -3.1221  2.2160  1.3082
    5MOL   H884 5692   7.507   6.208   3.163 -1.3434  0.8401 -0.5152
    5MOL   H885 5693   7.484   6.235   2.989 -1.3943 -0.5287 -1.0369
    5MOL   H886 5694   7.084   6.217   3.031  1.1244  1.8000 -0.6801
    5MOL   H887 5695   7.058   6.348   3.152 -0.8860 -0.2940 -1.0478
    5MOL   H888 5696   6.953   6.148   3.252 -1.8380 -0.8982 -2.5529
    5MOL   H889 5697   7.120   6.128   3.306  0.0718  0.8394 -0.5980
    5MOL   H890 5698   7.170   5.977   3.131  1.3338  3.2708  1.9404
    5MOL   H891 5699   7.025   6.002   3.050  1.4619 -1.5877 -0.7306
    5MOL   H892 5700   6.927   5.825   3.153  1.6435 -0.6193  0.3446
    5MOL   H893 5701   6.900   5.954   3.267 -0.6231  0.2858 -0.8920
    5MOL   H894 5702   7.136   5.748   3.287 -0.4082 -2.4875  2.6652
    5MOL   H895 5703   7.116   5.890   3.385  1.4116 -1.7378  0.9375
    5MOL   H896 5704   7.054   5.651   3.491  1.0456  1.4819  0.4670
    5MOL   H897 5705   6.941   5.790   3.507  1.5881  0.4840  0.5041
    5MOL   H898 5706   6.928   5.553   3.314 -1.9018 -1.9341  0.4046
    5MOL   H899 5707   6.816   5.681   3.295  1.3725 -0.6633 -1.5500
    5MOL   H900 5708   6.749   5.659   3.533  1.5228 -0.8665  2.0258
    5MOL   H901 5709   6.697   5.526   3.424 -0.0126  0.5164  0.3955
    5MOL   O902 5710   6.784   5.462   3.693  0.1268  0.6835 -0.5622
    5MOL   C903 5711   6.803   5.358   3.794  0.0837  0.8237 -0.2136
    5MOL   C904 5712   6.714   5.235   3.770 -0.1121 -0.9595 -0.3101
    5MOL   C905 5713   6.740   5.126   3.880 -0.2989  1.0143 -0.3025
    5MOL   C906 5714   6.653   4.996   3.874 -0.0218  0.9450  0.8199
    5MOL   C907 5715   6.682   4.898   3.994  0.4466 -0.7406 -0.1170
    5MOL   C908 5716   6.609   4.759   3.982 -0.0445  0.6553 -0.6674
    5MOL   C909 5717   6.644   4.675   4.105 -0.1851  0.3805 -0.1036
    5MOL   C910 5718   6.571   4.543   4.112 -0.7075  0.0107 -0.4669
    5MOL   C911 5719   6.613   4.453   4.229 -0.2196 -0.6290 -0.5244
    5MOL   C912 5720   6.547   4.484   4.369 -0.7663  0.4254  0.0671
    5MOL   O913 5721   6.635   4.578   4.430 -0.2162 -0.5598  0.5848
    5MOL   C914 5722   6.591   4.652   4.541 -0.1137 -0.2035 -0.8088
    5MOL   O915 5723   6.477   4.642   4.587 -0.4436  0.2097 -0.0567
    5MOL   C916 5724   6.708   4.728   4.611  0.6784  0.3800  0.3714
    5MOL   C917 5725   6.833   4.642   4.639  0.2781  0.4632  1.0055
    5MOL   C918 5726   6.813   4.542   4.743  0.3822  0.5217 -0.6221
    5MOL   C919 5727   6.766   4.605   4.878 -0.1323  0.3591  0.0842
    5MOL   C920 5728   6.801   4.525   5.007 -0.3187  0.4702  0.2980
    5MOL   C921 5729   6.769   4.598   5.135  0.0324 -0.3769  0.4027
    5MOL   C922 5730   6.848   4.543   5.260  0.4563  0.1232  0.5891
    5MOL   C923 5731   6.810   4.625   5.383  0.3875  0.3817  0.6528
    5MOL   C924 5732   6.880   4.569   5.502 -0.2602  0.5749  0.0180
    5MOL   O925 5733   6.818   4.550   5.607  0.0931  0.1939 -0.3142
    5MOL   H926 5734   6.907   5.329   3.809 -0.2152  0.3836  1.0263
    5MOL   H927 5735   6.784   5.419   3.882  1.1620  1.7187 -0.5804
    5MOL   H928 5736   6.608   5.261   3.759 -0.2050 -0.9539  0.5908
    5MOL   H929 5737   6.743   5.198   3.671  1.3624  0.5169 -0.4534
    5MOL   H930 5738   6.848   5.112   3.890 -0.0451  2.0951 -1.4067
    5MOL   H931 5739   6.717   5.164   3.979  0.0487  0.2733  0.0700
    5MOL   H932 5740   6.547   5.021   3.867 -0.5406 -1.3205  0.1938
    5MOL   H933 5741   6.661   4.939   3.781 -2.8198  0.3988  0.8673
    5MOL   H934 5742   6.639   4.942   4.085  1.6341 -0.0675  0.1278
    5MOL   H935 5743   6.790   4.895   4.009  0.3492  2.3486  1.5698
    5MOL   H936 5744   6.654   4.709   3.896  2.5071  0.6967  0.5756
    5MOL   H937 5745   6.503   4.771   3.963 -0.3351 -1.2378 -0.3470
    5MOL   H938 5746   6.630   4.729   4.199 -1.0808 -0.9549  0.5409
    5MOL   H939 5747   6.748   4.643   4.094 -0.1730  0.3058  0.2300
    5MOL   H940 5748   6.594   4.493   4.019  3.9602  2.2505 -0.6231
    5MOL   H941 5749   6.464   4.564   4.108 -0.5803  0.6551 -0.6735
    5MOL   H942 5750   6.581   4.352   4.202  0.6896 -0.6985 -1.3614
    5MOL   H943 5751   6.721   4.453   4.237 -0.2644  0.0492  0.1104
    5MOL   H944 5752   6.450   4.528   4.346 -0.2279  2.7280  2.0387
    5MOL   H945 5753   6.527   4.395   4.429 -2.0178 -1.0737 -2.4646
    5MOL   H946 5754   6.677   4.792   4.694  2.6634  0.6935  0.8883
    5MOL   H947 5755   6.749   4.789   4.530 -1.6844  0.8684 -0.5081
    5MOL   H948 5756   6.922   4.702   4.663  1.2933 -1.3013  1.7430
    5MOL   H949 5757   6.858   4.593   4.545 -0.4251  0.1483  0.9830
    5MOL   H950 5758   6.901   4.479   4.760 -0.7629 -1.5501 -2.2408
    5MOL   H951 5759   6.737   4.469   4.717 -0.6670  0.9802  1.0632
    5MOL   H952 5760   6.659   4.625   4.873 -0.0686  0.6495 -0.1245
    5MOL   H953 5761   6.811   4.703   4.891 -2.8490  2.0263 -2.2626
    5MOL   H954 5762   6.754   4.427   5.001  1.2514 -0.1128 -4.1862
    5MOL   H955 5763   6.908   4.507   5.011 -0.4812 -0.1686  2.5780
    5MOL   H956 5764   6.788   4.705   5.124 -0.2106 -0.2616  1.0786
    5MOL   H957 5765   6.661   4.593   5.150  0.0955 -2.2997  0.3135
    5MOL   H958 5766   6.956   4.555   5.247  0.7210 -2.3110  0.3189
    5MOL   H959 5767   6.822   4.438   5.273 -0.8459  0.2974 -0.5518
    5MOL   H960 5768   6.823   4.733   5.377 -0.7470  0.4450 -1.1293
    5MOL   H961 5769   6.702   4.616   5.398  0.1000  2.4665 -0.0695
    5MOL   O962 5770   7.014   4.572   5.487  0.1268 -0.3088 -0.7355
    5MOL   C963 5771   7.092   4.526   5.603 -0.0143  0.2569  0.3511
    5MOL   C964 5772   7.119   4.376   5.600  0.0156  1.3363  0.3682
    5MOL   C965 5773   7.240   4.315   5.666 -0.8407  0.3071  0.2799
    5MOL   C966 5774   7.231   4.167   5.647  0.7146  0.0683  0.4096
    5MOL   C967 5775   7.346   4.083   5.698 -0.5003 -0.4681 -0.1947
    5MOL   C968 5776   7.348   3.941   5.648  0.4912 -0.1266 -0.3926
    5MOL   C969 5777   7.231   3.852   5.706  0.3239  0.9053  0.0732
    5MOL   C970 5778   7.229   3.711   5.660  0.0969 -0.9551 -0.5250
    5MOL   C971 5779   7.138   3.609   5.733 -0.1418  0.0899  0.7465
    5MOL   C972 5780   7.161   3.596   5.885 -0.0735  0.4417 -0.3815
    5MOL   O973 5781   7.086   3.486   5.932  0.1170 -0.2130  0.4698
    5MOL   C974 5782   6.976   3.499   6.000 -0.5536 -0.8335 -0.3530
    5MOL   O975 5783   6.931   3.596   6.067  0.2389 -0.6819 -0.6032
    5MOL   C976 5784   6.918   3.356   6.004  0.3896  0.2090  0.4684
    5MOL   C977 5785   6.811   3.346   6.106  0.6715  0.4534 -0.1530
    5MOL   C978 5786   6.781   3.202   6.153  0.1878  0.5276 -0.2304
    5MOL   C979 5787   6.665   3.196   6.254 -0.3429  0.5167  0.2362
    5MOL   C980 5788   6.630   3.051   6.293  0.2874  0.5941 -0.0808
    5MOL   C981 5789   6.494   3.039   6.365  0.2881 -0.5255  0.3354
    5MOL   C982 5790   6.483   2.910   6.443 -0.9224 -0.1834  0.4107
    5MOL   C983 5791   6.437   2.796   6.355  0.0125  0.1885 -0.0842
    5MOL   C984 5792   6.401   2.667   6.438  0.4785  0.3531  0.7252
    5MOL   O985 5793   6.422   2.552   6.392  0.1829  0.2306  0.1132
    5MOL   H986 5794   7.189   4.575   5.603 -1.3698  3.0210  0.7110
    5MOL   H987 5795   7.053   4.547   5.703 -1.3608 -0.7589  0.0539
    5MOL   H988 5796   7.036   4.322   5.645  0.1417  2.2378  1.7160
    5MOL   H989 5797   7.118   4.350   5.495 -0.5659 -0.9007  0.8979
    5MOL   H990 5798   7.335   4.355   5.632  0.0940 -1.8413  0.2978
    5MOL   H991 5799   7.232   4.342   5.772 -0.1095 -1.6045  0.8499
    5MOL   H992 5800   7.148   4.133   5.709  0.4104  1.4102  0.7600
    5MOL   H993 5801   7.207   4.127   5.548  1.2009  0.9127 -0.0576
    5MOL   H994 5802   7.360   4.087   5.806  2.0436  0.2596 -0.5235
    5MOL   H995 5803   7.441   4.126   5.666  0.3119 -3.7051 -2.3675
    5MOL   H996 5804   7.447   3.898   5.664  0.6693 -0.0232 -1.1963
    5MOL   H997 5805   7.336   3.934   5.539 -0.7043 -2.3321 -0.1539
    5MOL   H998 5806   7.138   3.895   5.669  0.6560  0.6086 -1.1180
    5MOL   H999 5807   7.217   3.862   5.814  0.5387 -1.8399  0.3788
    5MOL     H1 5808   7.324   3.659   5.670 -0.2198 -1.0109  2.9373
    5MOL     H2 5809   7.200   3.709   5.555  0.0028 -0.3845 -0.5117
    5MOL     H3 5810   7.034   3.636   5.716 -0.0195 -0.7422 -1.4843
    5MOL     H4 5811   7.151   3.510   5.689  2.2978  0.1835  1.1857
    5MOL     H5 5812   7.261   3.559   5.908 -0.7112 -0.5714  0.8378
    5MOL     H6 5813   7.144   3.687   5.943 -1.3929  0.2774 -0.5137
    5MOL     H7 5814   6.996   3.286   6.036  2.3768  1.4371 -1.5453
    5MOL     H8 5815   6.880   3.335   5.905  3.7456  0.6024 -0.9820
    5MOL     H9 5816   6.721   3.391   6.063  1.4980  0.2391 -2.1317
    5MOL    H10 5817   6.846   3.399   6.195 -0.2359 -1.0176  1.1065
    5MOL    H11 5818   6.869   3.161   6.202 -0.2045  0.8612  0.7732
    5MOL    H12 5819   6.763   3.133   6.070 -1.7659  0.1739  0.4512
    5MOL    H13 5820   6.577   3.244   6.212 -1.6235  0.4150  2.6707
    5MOL    H14 5821   6.702   3.249   6.342  0.5698  1.2473 -0.5838
    5MOL    H15 5822   6.645   2.996   6.200 -0.0509  1.5426 -0.7071
    5MOL    H16 5823   6.715   3.012   6.349  1.0127 -0.7624 -2.1082
    5MOL    H17 5824   6.500   3.130   6.426  2.1127 -2.2948  2.8715
    5MOL    H18 5825   6.412   3.050   6.295 -0.4459  0.4856  1.3364
    5MOL    H19 5826   6.415   2.928   6.526 -1.4605  0.0670 -0.0857
    5MOL    H20 5827   6.579   2.877   6.485 -0.4854 -1.5885 -1.6226
    5MOL    H21 5828   6.353   2.837   6.300 -0.1293 -0.6215 -0.4600
    5MOL    H22 5829   6.515   2.779   6.281  0.0602  0.2273 -0.0447
    5MOL    O23 5830   6.331   2.701   6.544  0.1923  0.0461  0.1270
    5MOL    C24 5831   6.311   2.609   6.645  0.1325  0.0146 -0.7828
    5MOL    C25 5832   6.203   2.666   6.740  0.1775 -0.1955 -0.4447
    5MOL    C26 5833   6.247   2.809   6.793  0.8134 -0.0839  0.1742
    5MOL    C27 5834   6.150   2.862   6.898 -0.1661 -0.2024  0.5949
    5MOL    C28 5835   6.204   2.994   6.962  0.2860  0.0761 -0.4311
    5MOL    C29 5836   6.118   3.052   7.070 -0.3429 -0.4275  0.1919
    5MOL    C30 5837   6.178   3.177   7.145  0.1312 -0.3121  0.7416
    5MOL    C31 5838   6.100   3.217   7.265  0.3564  0.0658  0.3786
    5MOL    C32 5839   5.970   3.283   7.235  0.4214  0.0589  0.4875
    5MOL    C33 5840   5.870   3.315   7.357 -0.2139  0.4375  0.0505
    5MOL    O34 5841   5.793   3.201   7.400  0.0347  0.5746 -0.3563
    5MOL    C35 5842   5.850   3.119   7.493  0.4741 -0.5643 -0.5558
    5MOL    O36 5843   5.944   3.145   7.567 -0.5823  0.3303  0.2830
    5MOL    C37 5844   5.775   2.988   7.520 -0.2300  0.0522  0.9843
    5MOL    C38 5845   5.740   2.896   7.393  0.2873  0.0524  0.0820
    5MOL    C39 5846   5.866   2.880   7.305 -0.1618  0.0881  0.9727
    5MOL    C40 5847   5.851   2.787   7.193  0.3836 -0.3712  0.4593
    5MOL    C41 5848   5.796   2.859   7.068 -0.1517 -0.2029 -0.6063
    5MOL    C42 5849   5.694   2.779   6.986  0.5084 -0.2286 -0.8342
    5MOL    C43 5850   5.550   2.784   7.056 -0.3181  0.1438  0.4507
    5MOL    C44 5851   5.435   2.703   6.990 -0.3645  0.3464 -0.2896
    5MOL    C45 5852   5.473   2.555   6.950  0.1962 -0.2453  0.7890
    5MOL    O46 5853   5.439   2.459   7.017 -0.5550 -0.3205  0.4155
    5MOL    H47 5854   6.281   2.514   6.601 -2.4908  1.3884 -2.0278
    5MOL    H48 5855   6.402   2.584   6.700 -0.6829 -0.2773  0.4176
    5MOL    H49 5856   6.105   2.668   6.692  0.3917  0.5124 -0.8587
    5MOL    H50 5857   6.195   2.597   6.824 -0.4791 -0.9195 -1.1018
    5MOL    H51 5858   6.348   2.795   6.831  0.9819 -0.7171 -0.4833
    5MOL    H52 5859   6.257   2.872   6.704 -0.9991 -1.7036 -1.2067
    5MOL    H53 5860   6.050   2.872   6.857  0.4091  0.6068 -0.6523
    5MOL    H54 5861   6.138   2.786   6.975  0.0772 -0.6129  0.2310
    5MOL    H55 5862   6.214   3.071   6.885  0.5416 -0.1935 -0.6693
    5MOL    H56 5863   6.302   2.964   6.999 -0.2894 -0.1426  0.9266
    5MOL    H57 5864   6.090   2.971   7.137 -0.0313 -0.1811  0.6225
    5MOL    H58 5865   6.029   3.083   7.016 -0.4524  0.0246  0.6369
    5MOL    H59 5866   6.178   3.264   7.079  0.1363 -0.4283  0.5893
    5MOL    H60 5867   6.280   3.153   7.176 -0.5600 -2.2298  1.6069
    5MOL    H61 5868   6.160   3.293   7.315 -0.2569 -0.0350  1.2709
    5MOL    H62 5869   6.091   3.134   7.336 -0.9165  0.6192  0.8598
    5MOL    H63 5870   5.989   3.382   7.192  2.1680 -1.1953 -1.7426
    5MOL    H64 5871   5.905   3.227   7.168 -0.7959  1.0141  0.8418
    5MOL    H65 5872   5.921   3.363   7.440 -0.9646 -1.4767  1.6605
    5MOL    H66 5873   5.793   3.386   7.325 -1.0019 -1.2651 -1.9725
    5MOL    H67 5874   5.685   3.012   7.577 -0.4541  1.3069  0.1208
    5MOL    H68 5875   5.841   2.927   7.582  0.6439  0.1082  0.1263
    5MOL    H69 5876   5.663   2.950   7.338 -0.7390 -2.4769 -1.0164
    5MOL    H70 5877   5.711   2.793   7.416  2.9999 -0.8988 -0.5877
    5MOL    H71 5878   5.957   2.850   7.357  0.5727  0.7243  0.0686
    5MOL    H72 5879   5.890   2.981   7.272 -0.3866 -0.3602 -0.6182
    5MOL    H73 5880   5.797   2.695   7.217 -2.5107  1.2036  0.2531
    5MOL    H74 5881   5.947   2.745   7.165 -0.3094 -1.6067 -0.0841
    5MOL    H75 5882   5.761   2.960   7.087 -1.5021 -0.3890 -1.9668
    5MOL    H76 5883   5.873   2.866   6.991 -0.4455  0.6895 -0.8262
    5MOL    H77 5884   5.679   2.822   6.887 -0.2271  0.3664 -0.4683
    5MOL    H78 5885   5.730   2.677   6.975 -0.6381 -0.6149 -1.1014
    5MOL    H79 5886   5.518   2.888   7.066 -2.8256 -0.6466  0.8623
    5MOL    H80 5887   5.558   2.757   7.161  1.5806  0.6174  0.4595
    5MOL    H81 5888   5.347   2.697   7.054  0.0068 -0.6391  0.1576
    5MOL    H82 5889   5.397   2.731   6.892 -1.4270 -0.6186 -0.1620
    5MOL    O83 5890   5.551   2.553   6.845 -0.7165 -0.4460 -0.5854
    5MOL    C84 5891   5.614   2.437   6.790 -0.0677 -0.4704 -0.0016
    5MOL    C85 5892   5.729   2.468   6.694  0.5089 -0.0899  0.7696
    5MOL    C86 5893   5.806   2.339   6.656  0.2108  0.9477  0.1416
    5MOL    C87 5894   5.935   2.366   6.584 -0.4171  0.5773 -0.4143
    5MOL    C88 5895   5.917   2.446   6.457  0.4463  0.0725 -0.1305
    5MOL    C89 5896   6.040   2.458   6.367  0.0979  0.3295  0.3013
    5MOL    C90 5897   6.013   2.541   6.245  0.1387 -0.1615 -0.3560
    5MOL    C91 5898   6.145   2.594   6.190  0.1650 -0.1371 -0.0555
    5MOL    C92 5899   6.138   2.648   6.045 -0.5045  0.3255 -0.1188
    5MOL    C93 5900   6.276   2.688   5.992  0.4337 -0.4565  0.2582
    5MOL    O94 5901   6.269   2.751   5.858  0.1569 -0.3402  0.7235
    5MOL    C95 5902   6.267   2.888   5.852 -0.0966  0.6532 -0.5235
    5MOL    O96 5903   6.264   2.958   5.950 -0.6888 -0.0202 -0.2012
    5MOL    C97 5904   6.265   2.949   5.713  0.2259 -0.3468 -0.6206
    5MOL    C98 5905   6.169   2.868   5.616  0.5127 -0.1468 -0.0726
    5MOL    C99 5906   6.186   2.905   5.471 -0.0970 -0.0695 -1.2123
    5MOL   C100 5907   6.068   2.856   5.383 -0.2015 -0.4673 -0.9796
    5MOL   C101 5908   6.074   2.935   5.251  0.5014  0.3439  0.2962
    5MOL   C102 5909   5.953   2.907   5.162  0.1496 -0.8795  0.5609
    5MOL   C103 5910   5.992   2.936   5.014  0.1399 -0.3131 -0.9515
    5MOL   C104 5911   6.091   2.842   4.943  0.4219 -0.0209 -0.2563
    5MOL   C105 5912   6.037   2.706   4.895  0.2701 -0.5167  0.5284
    5MOL   O106 5913   5.922   2.669   4.919 -0.2314  0.1482 -0.0984
    5MOL   H107 5914   5.641   2.368   6.870 -2.0431 -3.2998 -1.6626
    5MOL   H108 5915   5.538   2.372   6.745 -0.8536 -1.1437  2.2506
    5MOL   H109 5916   5.674   2.509   6.609 -0.4829  0.6348  1.7479
    5MOL   H110 5917   5.791   2.545   6.741  2.5803 -0.5716 -1.0967
    5MOL   H111 5918   5.827   2.279   6.745  0.3353 -1.0249 -1.2061
    5MOL   H112 5919   5.735   2.275   6.604 -0.1152  0.8326  0.7218
    5MOL   H113 5920   6.004   2.411   6.654  0.7088 -1.6112 -0.0689
    5MOL   H114 5921   5.987   2.272   6.564  2.2160  1.3081  2.7208
    5MOL   H115 5922   5.885   2.545   6.488 -1.7153 -1.5719  3.1871
    5MOL   H116 5923   5.846   2.406   6.384  0.1451 -1.9675  1.2296
    5MOL   H117 5924   6.076   2.358   6.345 -0.9028 -0.6069  2.8018
    5MOL   H118 5925   6.122   2.502   6.424  1.7091 -0.8911 -1.0603
    5MOL   H119 5926   5.960   2.630   6.278 -1.0263 -0.2939 -1.8296
    5MOL   H120 5927   5.954   2.487   6.171 -0.6812 -0.1306  0.2759
    5MOL   H121 5928   6.216   2.512   6.198 -0.0441 -0.1827  1.4329
    5MOL   H122 5929   6.180   2.657   6.272  0.7165 -0.9713  0.3547
    5MOL   H123 5930   6.093   2.569   5.985  0.3612  1.2911 -2.0999
    5MOL   H124 5931   6.071   2.733   6.046 -4.5647 -2.7527  1.1295
    5MOL   H125 5932   6.307   2.767   6.059 -0.8719  0.3906 -0.1249
    5MOL   H126 5933   6.348   2.606   5.992  0.1898 -0.6719  0.3307
    5MOL   H127 5934   6.368   2.954   5.678  0.1271  1.0382 -0.7266
    5MOL   H128 5935   6.239   3.051   5.741  1.9422 -0.3959  1.3309
    5MOL   H129 5936   6.068   2.891   5.649  0.0290 -0.2780 -1.4449
    5MOL   H130 5937   6.169   2.759   5.625  4.7388 -0.3350 -1.2770
    5MOL   H131 5938   6.280   2.865   5.433  0.2911  0.6190 -0.9999
    5MOL   H132 5939   6.188   3.014   5.468 -1.6244  0.1026  1.8800
    5MOL   H133 5940   5.978   2.868   5.444 -0.9116 -1.4390 -1.8276
    5MOL   H134 5941   6.068   2.747   5.380  3.4472 -0.6076  0.8181
    5MOL   H135 5942   6.086   3.043   5.262 -0.0115  0.6104 -1.5057
    5MOL   H136 5943   6.159   2.900   5.192  0.2199 -0.3644  0.3094
    5MOL   H137 5944   5.916   2.805   5.170  0.4044 -0.8914  1.5875
    5MOL   H138 5945   5.871   2.972   5.192  0.5668 -1.2507  2.5099
    5MOL   H139 5946   6.041   3.034   5.008 -0.7398  0.0825 -1.8139
    5MOL   H140 5947   5.904   2.956   4.954 -0.9976  1.8928  1.3606
    5MOL   H141 5948   6.140   2.896   4.863  2.2328 -1.0727  0.0986
    5MOL   H142 5949   6.179   2.834   5.007 -0.3813  0.2027  0.8916
    5MOL   O143 5950   6.131   2.642   4.825  0.7230 -0.2946 -0.1525
    5MOL   C144 5951   6.093   2.515   4.772  0.1914 -0.2662 -0.2616
    5MOL   C145 5952   6.202   2.466   4.669 -0.2989 -0.5274  0.0516
    5MOL   C146 5953   6.206   2.543   4.533 -0.0041  0.4300  0.1920
    5MOL   C147 5954   6.303   2.474   4.433 -0.4196  0.0832 -0.1094
    5MOL   C148 5955   6.278   2.505   4.289 -0.2933 -0.0507 -0.2926
    5MOL   C149 5956   6.394   2.476   4.200  0.0236  0.3268 -0.4181
    5MOL   C150 5957   6.365   2.487   4.047 -0.9176 -0.1281  0.4978
    5MOL   C151 5958   6.496   2.471   3.968 -0.0192  0.1217  0.5926
    5MOL   C152 5959   6.575   2.598   3.963  0.4841  0.5323  0.2369
    5MOL   C153 5960   6.693   2.581   3.869  0.6118 -0.4428  0.6710
    5MOL   O154 5961   6.808   2.659   3.919 -0.0987 -0.4338  0.3958
    5MOL   C155 5962   6.902   2.691   3.830  0.4034 -0.0775  1.1051
    5MOL   O156 5963   6.902   2.651   3.709 -0.2664 -0.0688 -0.2691
    5MOL   C157 5964   7.008   2.784   3.890 -0.4517  0.4613  0.7764
    5MOL   C158 5965   7.094   2.845   3.769  0.0595 -0.4209 -0.5251
    5MOL   C159 5966   7.199   2.938   3.815 -0.4427  0.5043  0.7030
    5MOL   C160 5967   7.289   2.876   3.912 -0.4372 -1.1738  0.0810
    5MOL   C161 5968   7.367   2.751   3.854 -0.1085 -0.1233  0.5565
    5MOL   C162 5969   7.458   2.695   3.963 -0.4226 -0.3885  0.2378
    5MOL   C163 5970   7.558   2.605   3.896  0.4283  0.0726  0.1036
    5MOL   C164 5971   7.648   2.542   3.999  0.6177  0.1645 -0.5206
    5MOL   C165 5972   7.748   2.625   4.081 -0.6807  0.4501  0.2358
    5MOL   O166 5973   0.002   2.747   4.065 -0.2861 -0.6387  0.1889
    5MOL   H167 5974   6.087   2.451   4.860 -1.5789 -0.1045 -0.2495
    5MOL   H168 5975   5.997   2.524   4.721 -1.5763 -0.4714  2.9083
    5MOL   H169 5976   6.300   2.474   4.715  0.7147 -0.6141 -2.0184
    5MOL   H170 5977   6.168   2.365   4.643  0.1887 -0.7751  0.3807
    5MOL   H171 5978   6.105   2.544   4.494 -0.1468 -0.6172  0.5255
    5MOL   H172 5979   6.234   2.648   4.545  0.7862  0.2263  0.1884
    5MOL   H173 5980   6.404   2.497   4.468  0.0669  0.4365 -1.7152
    5MOL   H174 5981   6.301   2.366   4.445 -2.3301  0.3294  2.2507
    5MOL   H175 5982   6.267   2.613   4.299 -0.5501 -0.0578 -0.4828
    5MOL   H176 5983   6.181   2.472   4.250 -0.8353  0.3024  0.7417
    5MOL   H177 5984   6.443   2.380   4.214  0.7127  0.7790  0.2972
    5MOL   H178 5985   6.468   2.555   4.217  0.1028  0.3128 -0.6861
    5MOL   H179 5986   6.320   2.584   4.028 -1.0189  0.2167  2.3872
    5MOL   H180 5987   6.284   2.422   4.012 -1.8147  1.8915 -1.2495
    5MOL   H181 5988   6.470   2.440   3.867  0.7644 -0.6633  0.6341
    5MOL   H182 5989   6.551   2.390   4.014 -1.0603  0.5165  2.5999
    5MOL   H183 5990   6.518   2.688   3.943 -0.1218 -0.0003 -0.4691
    5MOL   H184 5991   6.609   2.622   4.064 -0.5477 -0.6351  0.8737
    5MOL   H185 5992   6.717   2.476   3.856  0.8097 -0.5234  1.6844
    5MOL   H186 5993   6.651   2.613   3.774 -2.9317 -2.7696  1.3476
    5MOL   H187 5994   7.066   2.713   3.948  0.7178  0.3440 -0.5214
    5MOL   H188 5995   6.964   2.863   3.952 -0.9643  0.6177  0.2225
    5MOL   H189 5996   7.029   2.904   3.704  0.1273 -0.7005 -0.8466
    5MOL   H190 5997   7.134   2.761   3.713 -0.5442 -1.3469  0.4175
    5MOL   H191 5998   7.152   3.029   3.854 -1.6021  1.6611 -3.1549
    5MOL   H192 5999   7.255   2.963   3.725 -0.5511 -0.3436  0.3985
    5MOL   H193 6000   7.244   2.845   4.006  1.2410  1.7664  1.9289
    5MOL   H194 6001   7.370   2.944   3.940  0.5377 -2.0574 -0.5523
    5MOL   H195 6002   7.297   2.679   3.810  2.4204 -1.1374 -1.9295
    5MOL   H196 6003   7.430   2.785   3.772  0.9463 -2.2829  0.4404
    5MOL   H197 6004   7.515   2.770   4.017  0.7732 -0.0956 -1.3980
    5MOL   H198 6005   7.401   2.644   4.040 -1.6692 -0.8977 -0.9939
    5MOL   H199 6006   7.617   2.649   3.815  2.4085 -0.8044  1.0500
    5MOL   H200 6007   7.505   2.520   3.852 -1.7194  0.5449  1.6598
    5MOL   H201 6008   7.594   2.474   4.064  3.1010 -0.3609  1.0542
    5MOL   H202 6009   7.715   2.474   3.947  0.7154 -0.0622 -0.1014
    5MOL   H203 6010   0.047   2.562   4.149  1.0799 -0.1809 -1.7297
    6MOL     O1 6011   3.215   4.224   7.615 -0.2929 -0.1080  0.1358
    6MOL     C2 6012   3.329   4.248   7.540 -0.6458 -0.3330 -0.5300
    6MOL     C3 6013   3.395   4.113   7.521  0.3494 -0.7116  0.3275
    6MOL     C4 6014   3.550   4.126   7.488  0.6320  0.3977 -0.0067
    6MOL     C5 6015   3.571   4.199   7.355  0.4008  0.0315 -0.3399
    6MOL     C6 6016   3.716   4.193   7.313 -1.0611  0.4811  0.1722
    6MOL     C7 6017   3.747   4.240   7.171 -0.0709 -0.1935  0.3143
    6MOL     C8 6018   3.902   4.232   7.136  0.2773  0.2084 -0.4944
    6MOL     C9 6019   3.938   4.290   6.994  0.4034 -0.3567 -1.1428
    6MOL    C10 6020   3.901   4.198   6.877  0.2679 -0.2910  0.0022
    6MOL    C11 6021   3.943   4.262   6.741  0.1949 -0.0919  0.0335
    6MOL    O12 6022   3.894   4.195   6.631 -0.4706  0.2066  0.2453
    6MOL    C13 6023   3.945   4.081   6.583  0.0108 -0.3479 -0.0926
    6MOL    O14 6024   4.039   4.024   6.641 -0.0802 -1.1118  0.5541
    6MOL    C15 6025   3.872   4.026   6.459 -0.2590 -0.1691 -0.1506
    6MOL    C16 6026   3.950   3.920   6.379  0.0942  0.0971 -0.2954
    6MOL    C17 6027   4.070   3.984   6.291  0.0433 -0.0963  0.0181
    6MOL    C18 6028   4.199   3.889   6.273  0.0098 -0.1987 -0.6350
    6MOL    C19 6029   4.262   3.858   6.411 -0.0634 -0.2450 -0.0841
    6MOL    C20 6030   4.417   3.836   6.415 -0.0278 -0.3208 -0.0573
    6MOL    C21 6031   4.467   3.800   6.555  0.5234  0.7159 -0.5042
    6MOL    C22 6032   4.609   3.747   6.550  0.4852 -0.0458  0.6643
    6MOL    C23 6033   4.661   3.725   6.688 -0.0378  0.1816  0.1961
    6MOL    O24 6034   4.655   3.814   6.776  0.4603  0.4122  0.0045
    6MOL    H25 6035   3.313   4.297   7.444  2.2348 -0.3116 -1.0703
    6MOL    H26 6036   3.402   4.311   7.591 -1.2453  0.2872 -0.4484
    6MOL    H27 6037   3.382   4.059   7.615 -1.4109  0.3699  0.7391
    6MOL    H28 6038   3.344   4.045   7.452  2.5333  0.1762 -2.2154
    6MOL    H29 6039   3.595   4.185   7.568 -2.3579  2.3477  0.3033
    6MOL    H30 6040   3.585   4.023   7.489 -0.5866 -0.0122 -0.0763
    6MOL    H31 6041   3.503   4.156   7.282  0.8184  0.2864 -0.8796
    6MOL    H32 6042   3.534   4.302   7.355  0.5257  0.0753 -0.4857
    6MOL    H33 6043   3.739   4.086   7.316 -1.6063  0.1862 -3.3357
    6MOL    H34 6044   3.786   4.237   7.384 -0.2803  3.0137 -2.0812
    6MOL    H35 6045   3.698   4.337   7.163  0.5122  0.3035  2.5455
    6MOL    H36 6046   3.703   4.176   7.094  2.2607 -2.1344  0.5424
    6MOL    H37 6047   3.941   4.135   7.164  0.4806  0.6161  0.6871
    6MOL    H38 6048   3.958   4.301   7.200 -0.2341 -2.3516  2.8012
    6MOL    H39 6049   4.047   4.301   7.000 -0.0564  3.4479  2.7357
    6MOL    H40 6050   3.899   4.392   6.989  0.7282 -0.0241  2.0730
    6MOL    H41 6051   3.930   4.094   6.891 -2.7192 -1.2690 -0.7371
    6MOL    H42 6052   3.792   4.198   6.874  0.2336  3.0474 -0.7705
    6MOL    H43 6053   3.911   4.363   6.716 -1.0172 -0.3872  0.3909
    6MOL    H44 6054   4.052   4.259   6.733  0.2573  0.2191  0.7206
    6MOL    H45 6055   3.843   4.103   6.387 -0.1320 -0.3180 -0.3625
    6MOL    H46 6056   3.777   3.989   6.497 -0.1086  1.9908  2.4493
    6MOL    H47 6057   3.884   3.856   6.320  0.4376 -1.2708  0.7702
    6MOL    H48 6058   3.992   3.846   6.448  0.1350  1.4078  1.1204
    6MOL    H49 6059   4.104   4.078   6.336  0.1771 -0.5761  0.9455
    6MOL    H50 6060   4.032   4.002   6.191 -2.2705 -0.3406  0.8244
    6MOL    H51 6061   4.271   3.933   6.204 -1.2142  0.9185 -1.2369
    6MOL    H52 6062   4.177   3.791   6.231  0.2107 -0.6613  0.3410
    6MOL    H53 6063   4.244   3.942   6.478  1.7625 -0.0865  0.2370
    6MOL    H54 6064   4.213   3.770   6.453 -1.0631  0.7169  0.7819
    6MOL    H55 6065   4.429   3.759   6.339 -1.8691  2.1846 -2.9969
    6MOL    H56 6066   4.472   3.924   6.384 -1.7578 -0.2087 -3.0176
    6MOL    H57 6067   4.402   3.741   6.619 -1.2861  2.4644 -0.7008
    6MOL    H58 6068   4.472   3.895   6.609  2.2705  0.3757 -0.0228
    6MOL    H59 6069   4.604   3.658   6.486  0.2695 -0.2999  1.0327
    6MOL    H60 6070   4.674   3.821   6.503  0.0184 -0.7641 -1.1633
    6MOL    H61 6071   3.156   4.165   7.571 -0.7100  0.0705  0.4527
    6MOL    O62 6072   4.711   3.602   6.699  0.0553 -0.6588 -0.3658
    6MOL    C63 6073   4.777   3.572   6.820 -0.1150  0.5931 -0.0309
    6MOL    C64 6074   4.926   3.603   6.812 -0.2779  0.0612 -0.1138
    6MOL    C65 6075   5.008   3.581   6.934  0.4224  0.2395 -0.3267
    6MOL    C66 6076   5.153   3.623   6.914 -0.5404 -0.2926 -0.6240
    6MOL    C67 6077   5.235   3.608   7.046  0.0243  0.3225 -0.1861
    6MOL    C68 6078   5.389   3.592   7.016  0.0632 -0.0297  0.1254
    6MOL    C69 6079   5.459   3.717   6.958  0.2846  0.2527 -0.5470
    6MOL    C70 6080   5.591   3.692   6.884  0.2240  0.5099 -0.0820
    6MOL    C71 6081   5.662   3.822   6.840 -0.3316 -0.5514  0.3420
    6MOL    C72 6082   5.809   3.811   6.790  0.1244 -0.2020 -0.2925
    6MOL    O73 6083   5.899   3.838   6.898 -0.4442  0.1023  0.0194
    6MOL    C74 6084   5.945   3.743   6.980  0.4679 -0.4319  0.8267
    6MOL    O75 6085   5.922   3.625   6.967  0.5574  0.5315 -0.2274
    6MOL    C76 6086   6.019   3.800   7.095 -0.6716  0.4468 -0.0761
    6MOL    C77 6087   6.046   3.702   7.210  0.5234 -0.1892 -0.9672
    6MOL    C78 6088   6.111   3.768   7.333 -0.0065 -0.5477  0.1544
    6MOL    C79 6089   6.148   3.667   7.446 -0.6767  0.0479 -0.2068
    6MOL    C80 6090   6.036   3.633   7.540  0.1221 -0.4085 -0.5858
    6MOL    C81 6091   6.067   3.528   7.652  0.5931 -0.0688 -0.5319
    6MOL    C82 6092   5.961   3.513   0.012  0.1608  0.4424  0.6716
    6MOL    C83 6093   5.989   3.393   0.100 -0.1168  0.1829 -0.4958
    6MOL    C84 6094   6.115   3.398   0.183 -0.5082 -0.1949 -0.1259
    6MOL    O85 6095   6.208   3.316   0.171 -0.1433 -0.7931 -0.0838
    6MOL    H86 6096   4.739   3.622   6.909 -0.9547 -1.5127  0.8305
    6MOL    H87 6097   4.769   3.465   6.842 -0.0233  0.6597  0.3345
    6MOL    H88 6098   4.970   3.551   6.726 -0.9764 -2.2523  0.8854
    6MOL    H89 6099   4.940   3.706   6.779 -1.0653  0.3126  0.3294
    6MOL    H90 6100   4.971   3.650   7.009  0.4065  0.2936 -0.3850
    6MOL    H91 6101   5.003   3.479   6.974 -0.1918  0.2000 -0.4887
    6MOL    H92 6102   5.199   3.581   6.825  1.8996 -1.9365  1.3512
    6MOL    H93 6103   5.157   3.729   6.893  2.1762 -0.3162 -0.3732
    6MOL    H94 6104   5.199   3.520   7.100  1.9230  0.1822  0.8941
    6MOL    H95 6105   5.240   3.695   7.112 -2.2894  0.3457  0.0006
    6MOL    H96 6106   5.417   3.512   6.947  0.6624  0.7160 -0.5172
    6MOL    H97 6107   5.450   3.572   7.104  1.4342  2.3619 -0.2257
    6MOL    H98 6108   5.482   3.789   7.036  1.2926  0.0060 -0.6137
    6MOL    H99 6109   5.384   3.762   6.892 -0.6990 -1.2996 -0.5301
    6MOL   H100 6110   5.577   3.642   6.788 -0.6982  2.5172 -1.0229
    6MOL   H101 6111   5.662   3.630   6.939  2.5584  1.4535 -1.9657
    6MOL   H102 6112   5.609   3.876   6.762  0.0011  0.4526  0.8069
    6MOL   H103 6113   5.668   3.894   6.922 -2.7117 -0.9971  0.9454
    6MOL   H104 6114   5.810   3.709   6.754  2.1963 -0.3199  0.0440
    6MOL   H105 6115   5.813   3.872   6.700  0.5144  2.1460  1.2472
    6MOL   H106 6116   5.940   3.869   7.126 -1.0130  0.3297 -0.6900
    6MOL   H107 6117   6.107   3.850   7.054  0.4967  0.4381  2.3389
    6MOL   H108 6118   6.108   3.620   7.172 -0.6435 -1.4945 -0.1194
    6MOL   H109 6119   5.958   3.644   7.238 -0.1443  1.7012  0.9332
    6MOL   H110 6120   6.043   3.847   7.368 -0.8330  0.2404 -3.1255
    6MOL   H111 6121   6.201   3.811   7.289 -0.5095 -1.2710 -1.5818
    6MOL   H112 6122   6.233   3.702   7.506 -2.3368 -0.3205  2.4766
    6MOL   H113 6123   6.186   3.573   7.406 -1.8659 -1.1101  1.3340
    6MOL   H114 6124   6.009   3.724   7.592 -1.1241 -1.2959  0.3527
    6MOL   H115 6125   5.946   3.606   7.485 -0.2035  1.7083 -1.1247
    6MOL   H116 6126   6.082   3.432   7.603  1.0637  0.0078 -0.5421
    6MOL   H117 6127   6.169   3.539   7.690  0.4371  2.4892 -0.7540
    6MOL   H118 6128   5.864   3.508   7.720 -0.0275  1.5519  0.9287
    6MOL   H119 6129   5.960   3.604   0.071  1.6082  1.3245 -0.6349
    6MOL   H120 6130   5.910   3.387   0.175 -0.2945  1.2331 -0.5905
    6MOL   H121 6131   5.977   3.307   0.034  0.7056  0.5120 -1.0861
    6MOL   O122 6132   6.109   3.503   0.276 -0.1693  0.0821  0.3564
    6MOL   C123 6133   6.211   3.511   0.379  0.5722 -0.3809  0.3886
    6MOL   C124 6134   6.221   3.658   0.418 -0.4024  0.7780  0.0999
    6MOL   C125 6135   6.326   3.686   0.526  0.8591 -0.8042  0.1851
    6MOL   C126 6136   6.300   3.827   0.585  0.6066 -0.5302 -0.5897
    6MOL   C127 6137   6.418   3.871   0.671 -0.1228  0.1379 -0.2624
    6MOL   C128 6138   6.413   3.819   0.814  0.3630 -0.0718  0.1589
    6MOL   C129 6139   6.538   3.873   0.891 -0.4905  0.7921  0.2069
    6MOL   C130 6140   6.547   3.839   1.034  0.2573  0.5906 -0.2290
    6MOL   C131 6141   6.652   3.915   1.109 -0.2214  0.2729  0.4914
    6MOL   C132 6142   6.702   3.847   1.237 -0.1573  0.4959  0.0505
    6MOL   O133 6143   6.787   3.936   1.306 -0.6082 -0.5290  0.5184
    6MOL   C134 6144   6.852   3.892   1.414 -0.8232 -0.5798  0.6454
    6MOL   O135 6145   6.842   3.781   1.457 -0.3883  0.7115 -0.3630
    6MOL   C136 6146   6.921   4.006   1.492  0.5319  0.6858  0.1177
    6MOL   C137 6147   6.995   3.958   1.620 -0.0614  0.6992 -0.0727
    6MOL   C138 6148   7.110   4.056   1.650 -0.7723 -0.6779  0.0458
    6MOL   C139 6149   7.165   4.005   1.786  0.4881  0.1904  0.0795
    6MOL   C140 6150   7.303   4.077   1.817  0.6961  0.4068 -0.3627
    6MOL   C141 6151   7.394   3.989   1.900 -0.9972 -0.7642  0.0110
    6MOL   C142 6152   7.531   4.046   1.934  0.3059 -0.1436 -0.0601
    6MOL   C143 6153   7.595   3.951   2.035  0.4030 -0.0435  0.0695
    6MOL   C144 6154   7.741   3.987   2.056 -0.5462 -0.1306 -0.1895
    6MOL   O145 6155   0.024   4.097   2.088 -0.1529  0.4845  0.2805
    6MOL   H146 6156   6.173   3.456   0.465  0.9763 -0.8166  0.2911
    6MOL   H147 6157   6.304   3.463   0.351 -0.0332 -1.2489 -0.1618
    6MOL   H148 6158   6.238   3.727   0.335 -1.6867  0.5026 -0.3952
    6MOL   H149 6159   6.128   3.696   0.458 -1.3734 -0.8937 -0.5364
    6MOL   H150 6160   6.324   3.609   0.603 -0.4884 -0.3356  0.6265
    6MOL   H151 6161   6.426   3.690   0.484  0.5124 -1.1792 -0.6765
    6MOL   H152 6162   6.282   3.902   0.508  2.0187  1.7889  1.2838
    6MOL   H153 6163   6.222   3.818   0.660  0.4132 -0.1368 -0.7418
    6MOL   H154 6164   6.425   3.979   0.685  0.4128 -0.1273  1.6791
    6MOL   H155 6165   6.513   3.840   0.628 -0.0173 -1.8254  1.3324
    6MOL   H156 6166   6.423   3.711   0.816  3.0695  0.1291 -0.5376
    6MOL   H157 6167   6.321   3.846   0.866  0.7893  0.4861  0.6378
    6MOL   H158 6168   6.547   3.981   0.883 -1.8036  0.8204 -1.0931
    6MOL   H159 6169   6.624   3.838   0.835  0.0397  0.7195  1.0563
    6MOL   H160 6170   6.564   3.731   1.036  0.1688  0.5611 -1.0040
    6MOL   H161 6171   6.453   3.866   1.083 -0.4463  0.4242 -1.4596
    6MOL   H162 6172   6.740   3.943   1.050 -0.2802 -2.5524 -0.9926
    6MOL   H163 6173   6.604   4.008   1.141 -2.4369 -0.6558 -0.0526
    6MOL   H164 6174   6.621   3.828   1.307 -0.7548 -0.0853 -0.7977
    6MOL   H165 6175   6.751   3.752   1.215  1.1326  0.5918  2.3322
    6MOL   H166 6176   6.856   4.092   1.507 -1.8114 -1.0178  0.0490
    6MOL   H167 6177   7.000   4.047   1.430  1.2718 -0.2931  0.4095
    6MOL   H168 6178   7.041   3.861   1.604  1.8417  1.5479  0.1248
    6MOL   H169 6179   6.916   3.945   1.694  1.6279  1.0989  1.8594
    6MOL   H170 6180   7.088   4.161   1.668  1.4588 -0.8715  4.6716
    6MOL   H171 6181   7.185   4.049   1.570 -2.0254  1.3599 -1.3521
    6MOL   H172 6182   7.186   3.898   1.789 -1.3531 -0.1385  1.9779
    6MOL   H173 6183   7.088   4.025   1.861  0.0004 -1.5715  0.0630
    6MOL   H174 6184   7.349   4.108   1.723  0.3283  0.0625 -0.6555
    6MOL   H175 6185   7.288   4.165   1.880  1.3118  0.7525 -0.6831
    6MOL   H176 6186   7.351   3.981   2.000 -0.2640 -0.2201  0.3810
    6MOL   H177 6187   7.414   3.889   1.861  0.3774 -1.3442  2.0977
    6MOL   H178 6188   7.516   4.140   1.988 -2.4105 -1.0049  0.7905
    6MOL   H179 6189   7.599   4.055   1.850  1.1156 -3.7024  0.1194
    6MOL   H180 6190   7.558   3.954   2.137  0.7013 -1.1745  0.2166
    6MOL   H181 6191   7.586   3.850   1.994  1.0041 -0.0604 -0.0401
    6MOL   O182 6192   0.069   3.882   2.047  0.4675 -0.2025 -0.7487
    6MOL   C183 6193   0.205   3.894   2.061  0.6009  0.1000 -0.8998
    6MOL   C184 6194   0.281   3.763   2.081  0.2713 -0.3537 -0.6391
    6MOL   C185 6195   0.430   3.769   2.053 -0.7539 -0.2824 -0.0267
    6MOL   C186 6196   0.488   3.629   2.089  0.3732  0.0269 -0.7697
    6MOL   C187 6197   0.639   3.620   2.087  0.0907  0.0667 -0.3190
    6MOL   C188 6198   0.710   3.483   2.113  0.1805  0.0414 -0.1667
    6MOL   C189 6199   0.862   3.490   2.083 -0.1977  0.2223  0.6133
    6MOL   C190 6200   0.894   3.501   1.936  0.6855 -0.2904  0.2737
    6MOL   C191 6201   1.040   3.499   1.905 -0.6815 -1.0035 -0.1101
    6MOL   C192 6202   1.073   3.496   1.758 -0.1212  0.1709 -0.1634
    6MOL   O193 6203   1.051   3.628   1.699  0.5789  0.3325 -0.0091
    6MOL   C194 6204   0.963   3.650   1.598 -0.0468  0.7648 -0.1040
    6MOL   O195 6205   0.900   3.565   1.542 -0.0062 -0.1984 -0.4859
    6MOL   C196 6206   0.949   3.799   1.564 -0.1606 -0.3510  0.5361
    6MOL   C197 6207   0.892   3.829   1.429  0.1885  0.2969 -0.3040
    6MOL   C198 6208   0.894   3.978   1.391  0.0377  0.2803  0.1178
    6MOL   C199 6209   0.817   4.067   1.485  0.2623  0.2504  0.2292
    6MOL   C200 6210   0.801   4.223   1.447 -0.5297 -0.0595  0.1075
    6MOL   C201 6211   0.708   4.289   1.553  0.2321 -0.2111  0.3277
    6MOL   C202 6212   0.686   4.440   1.528  0.0611 -0.4007 -0.3019
    6MOL   C203 6213   0.580   4.508   1.611 -0.7157  0.0003  0.0535
    6MOL   C204 6214   0.618   4.524   1.761  0.1706  0.5831 -0.3963
    6MOL   O205 6215   0.670   4.627   1.791  0.4350 -0.1711  0.1022
    6MOL   H206 6216   0.234   3.923   1.959  2.8009 -0.3152 -0.4170
    6MOL   H207 6217   0.241   3.967   2.133 -1.0878 -0.9249  1.0093
    6MOL   H208 6218   0.260   3.723   2.180  0.0616 -0.6769 -0.8167
    6MOL   H209 6219   0.243   3.690   2.010  1.2509 -2.4302  0.8979
    6MOL   H210 6220   0.455   3.799   1.951 -1.0586  1.0233  0.2784
    6MOL   H211 6221   0.463   3.851   2.116  2.1136  0.0088 -1.7909
    6MOL   H212 6222   0.461   3.585   2.186 -0.1866 -1.4688 -1.5882
    6MOL   H213 6223   0.461   3.548   2.021  0.2446 -0.3054 -0.3311
    6MOL   H214 6224   0.670   3.697   2.157 -2.0453  2.4971 -1.9600
    6MOL   H215 6225   0.667   3.646   1.985  0.1633  0.8910 -0.0904
    6MOL   H216 6226   0.656   3.405   2.060  0.5906 -1.7435  1.9497
    6MOL   H217 6227   0.694   3.452   2.217  2.9434  2.8271  1.1665
    6MOL   H218 6228   0.914   3.413   2.138  0.6166 -0.0364 -0.4917
    6MOL   H219 6229   0.903   3.581   2.126  0.2251  0.9837 -1.3222
    6MOL   H220 6230   0.846   3.592   1.899  0.3435 -0.6498 -0.1661
    6MOL   H221 6231   0.846   3.424   1.876  0.7595 -0.1375  0.0140
    6MOL   H222 6232   1.084   3.590   1.945  0.8025 -1.4343 -0.7409
    6MOL   H223 6233   1.089   3.414   1.952  3.6473  0.3589 -1.9216
    6MOL   H224 6234   1.174   3.462   1.738 -0.1649 -0.0949  0.0623
    6MOL   H225 6235   1.023   3.419   1.699 -0.1397  0.6657 -0.7955
    6MOL   H226 6236   1.040   3.852   1.589 -1.0043  1.6670 -0.5961
    6MOL   H227 6237   0.879   3.848   1.632 -1.0560 -1.6377  0.5638
    6MOL   H228 6238   0.788   3.795   1.425  0.5993 -0.9358 -0.7783
    6MOL   H229 6239   0.929   3.766   1.348 -1.3474 -1.7208  0.5212
    6MOL   H230 6240   0.865   3.970   1.286  0.8890 -2.7574  0.0770
    6MOL   H231 6241   0.999   4.008   1.388  0.1006  0.1225  0.7235
    6MOL   H232 6242   0.866   4.070   1.583  2.3570  0.5350 -0.8062
    6MOL   H233 6243   0.716   4.031   1.507  0.3431  0.6433  1.3001
    6MOL   H234 6244   0.898   4.274   1.453 -0.6854  0.0343  2.1087
    6MOL   H235 6245   0.771   4.234   1.343 -0.8182  2.4986  0.4204
    6MOL   H236 6246   0.608   4.245   1.555  0.3247 -0.4093  0.6369
    6MOL   H237 6247   0.759   4.269   1.647  0.9381 -1.3588 -0.2746
    6MOL   H238 6248   0.664   4.447   1.422  2.0465  0.2348 -0.6891
    6MOL   H239 6249   0.784   4.483   1.547 -0.1966 -0.1888  0.5929
    6MOL   H240 6250   0.559   4.605   1.567 -0.4055  0.1322  0.1929
    6MOL   H241 6251   0.494   4.444   1.590 -0.6235  0.2982 -1.2802
    6MOL   O242 6252   0.596   4.417   1.842  0.4436  0.2547  0.4478
    6MOL   C243 6253   0.657   4.411   1.971  0.5651  0.2163 -0.5056
    6MOL   C244 6254   0.675   4.272   2.029  0.4422 -0.3187  0.2251
    6MOL   C245 6255   0.753   4.177   1.938 -0.5395 -0.4369  0.0706
    6MOL   C246 6256   0.734   4.027   1.973 -0.6401  0.0362  0.2192
    6MOL   C247 6257   0.808   3.922   1.892 -0.6225  0.1040  0.2486
    6MOL   C248 6258   0.957   3.908   1.919  0.0221 -0.2662  0.0866
    6MOL   C249 6259   1.002   3.882   2.066  1.1250 -0.6815  0.1479
    6MOL   C250 6260   1.152   3.847   2.073 -0.1504  0.1831 -0.3769
    6MOL   C251 6261   1.207   3.823   2.216 -0.0331  0.5084 -0.2800
    6MOL   C252 6262   1.173   3.683   2.270  0.6194 -0.2347 -0.4751
    6MOL   O253 6263   1.036   3.682   2.310  0.0149  0.1355 -0.3568
    6MOL   C254 6264   0.997   3.689   2.436  0.1318  0.2274 -0.0954
    6MOL   O255 6265   1.070   3.680   2.533  0.1325 -0.3685 -0.5238
    6MOL   C256 6266   0.843   3.664   2.438 -0.0958  0.4988 -0.3548
    6MOL   C257 6267   0.753   3.791   2.443  0.0097 -0.1210  0.2401
    6MOL   C258 6268   0.773   3.893   2.554  0.4763  0.7296 -0.0011
    6MOL   C259 6269   0.857   4.012   2.521  0.2979 -0.7344 -0.3579
    6MOL   C260 6270   0.866   4.115   2.628 -0.2047 -0.3025 -0.3997
    6MOL   C261 6271   0.755   4.219   2.626  0.1042  0.2349  1.3101
    6MOL   C262 6272   0.773   4.329   2.731  0.5805  0.3479  0.3558
    6MOL   C263 6273   0.660   4.437   2.743 -0.3659  0.6937  0.4718
    6MOL   C264 6274   0.519   4.387   2.778 -0.7122  0.0760 -0.6105
    6MOL   O265 6275   0.416   4.421   2.718 -0.5100  0.3683  0.4892
    6MOL   H266 6276   0.748   4.469   1.988  1.3222 -1.2672  0.6145
    6MOL   H267 6277   0.587   4.467   2.032  1.4138  1.3511 -0.5579
    6MOL   H268 6278   0.726   4.266   2.126 -0.3019  0.2437  0.6573
    6MOL   H269 6279   0.578   4.225   2.043  0.8751 -2.1271 -2.5580
    6MOL   H270 6280   0.721   4.200   1.837 -1.8560 -0.9792  0.3471
    6MOL   H271 6281   0.859   4.199   1.952 -0.4444 -0.4192 -0.6607
    6MOL   H272 6282   0.758   4.012   2.078 -0.3853 -1.9190 -0.0841
    6MOL   H273 6283   0.627   4.007   1.973 -0.0553 -3.7008  2.1410
    6MOL   H274 6284   0.801   3.950   1.786  0.2863 -2.7312 -0.5961
    6MOL   H275 6285   0.759   3.825   1.899 -1.5739  0.5879  0.4671
    6MOL   H276 6286   1.010   3.998   1.888  1.2822 -1.8451 -2.5120
    6MOL   H277 6287   0.996   3.829   1.855  1.4353 -0.4367  1.1500
    6MOL   H278 6288   0.940   3.806   2.113  1.0589 -0.9011 -0.2888
    6MOL   H279 6289   0.993   3.976   2.120  0.6775  0.1895 -1.3949
    6MOL   H280 6290   1.205   3.929   2.025  2.4906 -0.2975  1.6014
    6MOL   H281 6291   1.177   3.758   2.016  0.5649 -0.8241  1.4743
    6MOL   H282 6292   1.314   3.836   2.203 -0.1544  1.0929 -0.6954
    6MOL   H283 6293   1.168   3.892   2.291  1.3043 -0.8666  1.7585
    6MOL   H284 6294   1.196   3.614   2.189  0.4505  0.5269 -1.1783
    6MOL   H285 6295   1.243   3.642   2.342  0.6071  0.2788 -0.1763
    6MOL   H286 6296   0.820   3.603   2.525  0.9317  0.5471 -0.0529
    6MOL   H287 6297   0.810   3.599   2.356  0.5556  1.8233 -1.6916
    6MOL   H288 6298   0.647   3.767   2.434  0.2965 -1.5116  0.4083
    6MOL   H289 6299   0.760   3.849   2.351  0.7825 -1.0597 -0.2962
    6MOL   H290 6300   0.809   3.848   2.646  0.2525  0.6207  0.0343
    6MOL   H291 6301   0.673   3.933   2.572  1.1266  1.3582  2.4213
    6MOL   H292 6302   0.827   4.057   2.426  0.1301  1.8800  0.8822
    6MOL   H293 6303   0.961   3.982   2.514  0.4603 -0.8026  2.1445
    6MOL   H294 6304   0.875   4.071   2.727 -0.5020  0.9873  0.2158
    6MOL   H295 6305   0.952   4.182   2.615 -1.8734  1.8587 -0.5492
    6MOL   H296 6306   0.764   4.259   2.525 -2.8303 -0.6083  0.6732
    6MOL   H297 6307   0.657   4.174   2.640 -0.1206 -0.2443 -1.5279
    6MOL   H298 6308   0.874   4.370   2.721 -0.8723  3.5876 -2.2336
    6MOL   H299 6309   0.783   4.285   2.830  0.3436 -0.1038  0.1790
    6MOL   H300 6310   0.677   4.504   2.827  1.7178  0.6918  0.0819
    6MOL   H301 6311   0.645   4.504   2.658 -0.6684 -0.0393 -0.0635
    6MOL   O302 6312   0.524   4.300   2.869  0.0744  0.1817  0.2591
    6MOL   C303 6313   0.400   4.239   2.905  0.5570 -0.3873 -0.4894
    6MOL   C304 6314   0.428   4.137   3.020  0.1334  0.4723  0.9010
    6MOL   C305 6315   0.521   4.017   2.986 -0.0249  0.0432 -0.0300
    6MOL   C306 6316   0.466   3.908   2.885  0.3108 -0.6716 -0.7317
    6MOL   C307 6317   0.552   3.781   2.873  0.0050  0.6914  0.4232
    6MOL   C308 6318   0.492   3.679   2.774 -0.8640  0.3808  0.3024
    6MOL   C309 6319   0.556   3.538   2.795 -0.0744 -0.6413  0.5292
    6MOL   C310 6320   0.483   3.422   2.725 -0.5545 -0.3881  0.1565
    6MOL   C311 6321   0.465   3.441   2.572 -0.0226  0.0854  0.9163
    6MOL   C312 6322   0.397   3.318   2.511  0.0162 -0.1890  0.5930
    6MOL   O313 6323   0.391   3.327   2.369  0.0593 -0.0749 -0.0878
    6MOL   C314 6324   0.271   3.351   2.311  0.0268  0.3178 -0.4323
    6MOL   O315 6325   0.160   3.350   2.374  0.1525 -0.4722  0.0047
    6MOL   C316 6326   0.288   3.380   2.161  0.5067  0.5920 -0.7454
    6MOL   C317 6327   0.210   3.285   2.075  0.0808  0.1422  0.0459
    6MOL   C318 6328   0.239   3.294   1.923  0.1811 -0.3294 -0.5543
    6MOL   C319 6329   0.155   3.199   1.834  0.0122  0.2457 -0.0144
    6MOL   C320 6330   0.212   3.159   1.692  0.0302  0.2494  0.3318
    6MOL   C321 6331   0.107   3.107   1.590 -0.1599  0.0850 -0.4906
    6MOL   C322 6332   0.168   3.082   1.447  0.2390  0.4844 -0.0566
    6MOL   C323 6333   0.068   3.013   1.355  0.3367 -0.4481 -0.3509
    6MOL   C324 6334   0.133   2.957   1.223  0.4023  0.2959  0.4701
    6MOL   O325 6335   0.194   2.850   1.220 -0.4553 -0.3614  0.2881
    6MOL   H326 6336   0.325   4.313   2.932  0.3180 -0.5178 -0.7963
    6MOL   H327 6337   0.365   4.184   2.818  0.1860  2.1941 -2.0238
    6MOL   H328 6338   0.470   4.185   3.108  0.4939  0.0777  0.9430
    6MOL   H329 6339   0.331   4.100   3.054 -0.5462 -0.4884 -1.8613
    6MOL   H330 6340   0.619   4.045   2.948  1.5193 -1.9789  2.2112
    6MOL   H331 6341   0.539   3.954   3.074  1.3267  0.6525  0.1543
    6MOL   H332 6342   0.366   3.887   2.924  0.5584 -0.0694  0.2437
    6MOL   H333 6343   0.466   3.961   2.790  2.1042 -0.0464 -0.4030
    6MOL   H334 6344   0.561   3.724   2.965 -1.3877  1.7470  1.2304
    6MOL   H335 6345   0.653   3.806   2.843 -0.5015  2.1048 -0.1466
    6MOL   H336 6346   0.513   3.711   2.672 -2.0878 -1.6359 -0.6171
    6MOL   H337 6347   0.383   3.680   2.782 -0.9388  0.1648 -0.6616
    6MOL   H338 6348   0.562   3.508   2.899  3.4871 -1.5812  0.1342
    6MOL   H339 6349   0.659   3.538   2.758 -0.8209 -1.4440 -1.6150
    6MOL   H340 6350   0.384   3.415   2.770  0.5792 -0.1365  2.7568
    6MOL   H341 6351   0.529   3.325   2.740  3.7753  1.4446 -0.4028
    6MOL   H342 6352   0.412   3.534   2.550  1.2396  0.0988 -2.4774
    6MOL   H343 6353   0.561   3.450   2.521 -1.8999 -2.0782 -3.3093
    6MOL   H344 6354   0.443   3.222   2.532 -1.0325 -0.9243 -0.4251
    6MOL   H345 6355   0.297   3.315   2.555 -0.0567 -2.2818  0.3235
    6MOL   H346 6356   0.396   3.385   2.148  0.7864  2.0897  1.8785
    6MOL   H347 6357   0.252   3.482   2.147 -0.5073  0.4601  0.7417
    6MOL   H348 6358   0.105   3.310   2.088  0.0970 -0.7425  2.0444
    6MOL   H349 6359   0.223   3.183   2.111  0.3728  1.2294  3.1738
    6MOL   H350 6360   0.344   3.278   1.900  0.3305 -1.1922  0.6732
    6MOL   H351 6361   0.219   3.391   1.877 -0.2838 -0.3360 -0.3662
    6MOL   H352 6362   0.056   3.240   1.814  0.9749  2.1006 -1.1235
    6MOL   H353 6363   0.142   3.105   1.887 -0.0049 -0.3412 -1.0631
    6MOL   H354 6364   0.246   3.257   1.660 -1.6447  0.9563  0.6603
    6MOL   H355 6365   0.293   3.087   1.708 -0.4340 -0.3235  0.1214
    6MOL   H356 6366   0.059   3.014   1.621  2.3697 -1.0155  0.1944
    6MOL   H357 6367   0.028   3.182   1.580  0.5376  0.9252  0.1910
    6MOL   H358 6368   0.254   3.019   1.470  0.1038  1.1322  2.3533
    6MOL   H359 6369   0.201   3.177   1.406 -1.0492  0.6767 -0.6704
    6MOL   H360 6370   0.014   2.933   1.406  0.4844 -0.0902  0.3762
    6MOL   H361 6371   7.746   3.087   1.340 -0.0725 -0.7498  0.2721
    6MOL   O362 6372   0.112   3.024   1.112 -0.3417 -0.0056  0.2916
    6MOL   C363 6373   0.152   2.969   0.985 -0.0787 -0.3460 -0.1828
    6MOL   C364 6374   0.281   3.040   0.936 -0.7641  0.7109  0.2892
    6MOL   C365 6375   0.390   3.003   1.027 -0.0475  0.3720 -0.1020
    6MOL   C366 6376   0.534   3.034   0.975 -0.0430 -0.4340 -0.3476
    6MOL   C367 6377   0.641   2.992   1.073  0.1647 -0.0911  0.2489
    6MOL   C368 6378   0.665   2.844   1.092  0.3761 -0.2888  0.1803
    6MOL   C369 6379   0.799   2.808   1.167  0.2432 -0.6387  0.7291
    6MOL   C370 6380   0.784   2.778   1.317 -0.1043  0.0828 -0.5008
    6MOL   C371 6381   0.923   2.739   1.367  0.1887 -0.1235 -0.0999
    6MOL   C372 6382   0.933   2.757   1.525  0.1233 -0.5577  0.4807
    6MOL   O373 6383   0.848   2.673   1.601 -0.1986  0.1317 -0.2816
    6MOL   C374 6384   0.877   2.637   1.726  0.2138  0.1882  0.4356
    6MOL   O375 6385   0.954   2.700   1.798  0.3822 -0.2915  0.2694
    6MOL   C376 6386   0.782   2.525   1.779 -1.1708  0.3888  0.1279
    6MOL   C377 6387   0.837   2.446   1.898  0.1311  0.0407  0.0395
    6MOL   C378 6388   0.966   2.367   1.864 -0.0435 -0.6474 -0.1954
    6MOL   C379 6389   1.025   2.286   1.984  0.5326  0.0652 -0.0689
    6MOL   C380 6390   0.922   2.176   2.027 -0.5132  0.4652 -0.6202
    6MOL   C381 6391   0.882   2.073   1.919 -0.3184 -0.2565 -1.0090
    6MOL   C382 6392   1.009   1.999   1.864  0.0253 -0.2112  0.5010
    6MOL   C383 6393   0.972   1.896   1.748  0.1983  0.5098 -0.0224
    6MOL   C384 6394   0.975   1.751   1.787 -0.2271 -0.5715 -0.6006
    6MOL   O385 6395   1.025   1.665   1.714 -0.0756 -0.5991 -0.4577
    6MOL   H386 6396   0.146   2.860   0.979  0.3054 -0.4434  1.0649
    6MOL   H387 6397   0.085   3.001   0.906  1.3709 -2.0650 -2.1600
    6MOL   H388 6398   0.299   2.997   0.838  2.7047  1.2544  0.6272
    6MOL   H389 6399   0.268   3.147   0.924 -0.8052  0.5416 -1.2239
    6MOL   H390 6400   0.377   3.044   1.127  0.1147  0.6002 -0.1759
    6MOL   H391 6401   0.382   2.895   1.043 -3.5397  0.4607 -0.8119
    6MOL   H392 6402   0.553   3.013   0.870 -0.9441  1.9204 -1.0167
    6MOL   H393 6403   0.549   3.141   0.983 -0.9874 -0.4456  2.3082
    6MOL   H394 6404   0.608   3.030   1.170  1.3020  0.4028  0.4594
    6MOL   H395 6405   0.735   3.038   1.042  0.5577  0.8607  2.7080
    6MOL   H396 6406   0.668   2.795   0.995  0.2349  1.6652 -0.8280
    6MOL   H397 6407   0.581   2.799   1.147 -0.2529  0.0272 -0.5112
    6MOL   H398 6408   0.873   2.886   1.158 -0.0557 -0.5146 -0.6930
    6MOL   H399 6409   0.844   2.721   1.120 -0.5430 -0.7456  0.1690
    6MOL   H400 6410   0.720   2.690   1.317 -1.1415  0.8253  1.3954
    6MOL   H401 6411   0.719   2.852   1.362 -0.2489 -0.4008  0.0857
    6MOL   H402 6412   0.946   2.639   1.330 -0.4498 -0.1521 -0.4232
    6MOL   H403 6413   0.989   2.816   1.328 -0.7668  0.4716 -0.5513
    6MOL   H404 6414   1.039   2.747   1.548  0.2038 -0.4664  0.1559
    6MOL   H405 6415   0.905   2.858   1.557  1.9382 -0.0794  0.6381
    6MOL   H406 6416   0.793   2.456   1.695  0.4827  2.4789 -1.4230
    6MOL   H407 6417   0.682   2.567   1.788 -1.0072  0.9880 -0.7243
    6MOL   H408 6418   0.764   2.379   1.945  1.0216  1.1387  3.1377
    6MOL   H409 6419   0.861   2.517   1.977  1.3958 -0.7878  0.4228
    6MOL   H410 6420   1.047   2.435   1.836 -0.3731  0.0629  0.5688
    6MOL   H411 6421   0.959   2.306   1.774  0.4975  0.0211 -0.7058
    6MOL   H412 6422   1.034   2.339   2.079 -3.0608  2.4745 -0.9354
    6MOL   H413 6423   1.126   2.251   1.963  0.7585  0.9203 -0.4684
    6MOL   H414 6424   0.970   2.128   2.113 -1.0995  0.7566 -0.1327
    6MOL   H415 6425   0.837   2.225   2.073 -0.2428  2.5039 -2.2083
    6MOL   H416 6426   0.811   2.004   1.963  1.7598 -1.6403  0.2896
    6MOL   H417 6427   0.841   2.131   1.837 -2.2319  0.6164  0.5208
    6MOL   H418 6428   1.079   1.960   1.939 -1.5085 -0.6439  1.7430
    6MOL   H419 6429   1.077   2.064   1.810 -1.0773 -1.4398 -2.4639
    6MOL   H420 6430   0.871   1.914   1.714  0.4054 -0.8334 -1.3849
    6MOL   H421 6431   1.041   1.910   1.664 -0.2208 -1.4274 -0.7118
    6MOL   O422 6432   0.920   1.735   1.910 -0.8594 -0.7623 -0.4264
    6MOL   C423 6433   0.907   1.610   1.979  0.3652 -0.1782 -0.4909
    6MOL   C424 6434   1.010   1.580   2.083  0.2760 -0.6940  0.1979
    6MOL   C425 6435   0.973   1.448   2.159  0.1041 -0.3035  0.0971
    6MOL   C426 6436   1.088   1.412   2.248  0.4746  0.1373  0.2585
    6MOL   C427 6437   1.059   1.260   2.302  0.4305 -0.3018 -0.2588
    6MOL   C428 6438   1.169   1.214   2.400 -0.7202 -0.6009  0.5069
    6MOL   C429 6439   1.155   1.069   2.439 -0.3994 -0.4468  0.0718
    6MOL   C430 6440   1.258   1.015   2.539 -0.0820 -0.3478  0.2252
    6MOL   C431 6441   1.230   0.868   2.570 -0.2700  0.1145 -0.2030
    6MOL   C432 6442   1.322   0.801   2.666 -0.3288  0.6266 -0.5399
    6MOL   O433 6443   1.447   0.782   2.597  0.5568  0.0778 -0.0158
    6MOL   C434 6444   1.564   0.761   2.675 -0.0437 -0.3922 -0.4203
    6MOL   O435 6445   1.571   0.764   2.796 -0.2508  0.2028  0.0124
    6MOL   C436 6446   1.684   0.707   2.598  0.4517 -0.5164 -0.5610
    6MOL   C437 6447   1.769   0.812   2.524  0.9247  0.1560 -0.3864
    6MOL   C438 6448   1.684   0.900   2.431 -0.3268  0.2452 -0.2107
    6MOL   C439 6449   1.778   0.995   2.352  0.9560 -0.3660  0.4169
    6MOL   C440 6450   1.698   1.093   2.264  1.0082  0.3276  0.2114
    6MOL   C441 6451   1.790   1.201   2.206 -0.3189 -0.2209 -0.3266
    6MOL   C442 6452   1.722   1.287   2.094  0.1445 -0.8325  0.5532
    6MOL   C443 6453   1.822   1.378   2.018 -0.6264 -0.4084  0.4282
    6MOL   C444 6454   1.759   1.456   1.900 -0.9963 -0.1511  0.1802
    6MOL   O445 6455   1.686   1.552   1.911 -0.1089 -0.3607 -0.2991
    6MOL   H446 6456   0.804   1.603   2.015  0.1674  2.4529 -0.4766
    6MOL   H447 6457   0.912   1.529   1.905 -1.9268 -0.1462 -0.7363
    6MOL   H448 6458   1.100   1.573   2.022  1.0526 -0.2586  1.2878
    6MOL   H449 6459   1.021   1.669   2.145 -0.0823  1.1328 -2.2892
    6MOL   H450 6460   0.881   1.456   2.217  1.1612 -1.1426  1.9458
    6MOL   H451 6461   0.956   1.367   2.089  2.3493 -1.0144  0.3402
    6MOL   H452 6462   1.183   1.426   2.195 -0.1196  0.3085 -0.7675
    6MOL   H453 6463   1.082   1.485   2.328  0.7873 -0.4940  0.8617
    6MOL   H454 6464   1.055   1.194   2.215  1.4158  0.2111 -0.7026
    6MOL   H455 6465   0.964   1.256   2.354  1.4930 -0.0077  1.7493
    6MOL   H456 6466   1.179   1.275   2.490  1.6248 -1.9850  1.2280
    6MOL   H457 6467   1.261   1.242   2.349 -1.4698  1.5479  0.2411
    6MOL   H458 6468   1.152   1.019   2.342 -1.5189  1.0167 -0.6700
    6MOL   H459 6469   1.052   1.056   2.473  0.4318  0.5473  3.0292
    6MOL   H460 6470   1.264   1.075   2.630  0.1953 -0.3034  0.1775
    6MOL   H461 6471   1.362   1.019   2.506 -0.2832 -0.6000 -0.4641
    6MOL   H462 6472   1.130   0.863   2.613  0.4927  0.0745  1.6209
    6MOL   H463 6473   1.229   0.816   2.474 -0.0418  2.3179 -1.4364
    6MOL   H464 6474   1.332   0.868   2.752 -1.4472  0.5634 -0.3519
    6MOL   H465 6475   1.288   0.701   2.692  0.7007  0.1599 -0.9463
    6MOL   H466 6476   1.630   0.636   2.536 -3.2001  0.5207  1.2890
    6MOL   H467 6477   1.741   0.647   2.668  0.8464 -0.9754 -1.2689
    6MOL   H468 6478   1.854   0.770   2.469  0.4285  0.6052 -1.5159
    6MOL   H469 6479   1.821   0.878   2.594 -0.1588 -0.5881  1.1223
    6MOL   H470 6480   1.629   0.968   2.497 -0.7717 -0.2734 -0.0413
    6MOL   H471 6481   1.614   0.845   2.368  0.7300 -0.9354 -0.3568
    6MOL   H472 6482   1.856   0.945   2.294  0.0120 -1.3925  0.0345
    6MOL   H473 6483   1.834   1.055   2.424  1.9815  0.9419 -1.4252
    6MOL   H474 6484   1.653   1.038   2.181  0.2115 -0.3427  1.0707
    6MOL   H475 6485   1.625   1.137   2.332  1.0100 -0.0926  0.4861
    6MOL   H476 6486   1.832   1.260   2.287 -0.0348  0.8811 -1.2568
    6MOL   H477 6487   1.877   1.161   2.154  1.5137  4.7357 -1.3026
    6MOL   H478 6488   1.643   1.350   2.135  1.2495  0.9057  0.0701
    6MOL   H479 6489   1.670   1.212   2.034 -1.8237  0.8468  0.0789
    6MOL   H480 6490   1.867   1.449   2.087 -1.2155  1.1929 -0.7919
    6MOL   H481 6491   1.889   1.314   1.961 -1.6806 -0.4913 -0.7485
    6MOL   O482 6492   1.784   1.405   1.781  0.2832 -0.1717  0.4401
    6MOL   C483 6493   1.735   1.469   1.664  0.1272 -0.9978 -0.3045
    6MOL   C484 6494   1.837   1.446   1.549 -0.0869  0.1655  0.1357
    6MOL   C485 6495   1.962   1.516   1.584 -0.5309 -0.3765  0.3952
    6MOL   C486 6496   2.054   1.540   1.466 -0.4897 -0.7296 -0.0315
    6MOL   C487 6497   2.190   1.602   1.498 -0.1927 -0.1002 -0.1575
    6MOL   C488 6498   2.294   1.589   1.387 -0.0916  0.4177 -0.3661
    6MOL   C489 6499   2.415   1.671   1.417  0.4028  0.2718  0.1037
    6MOL   C490 6500   2.541   1.634   1.326 -0.6383  0.3745 -0.1807
    6MOL   C491 6501   2.672   1.710   1.364  0.1740  0.0910 -0.4414
    6MOL   C492 6502   2.780   1.688   1.262  0.0707 -0.2518  0.6530
    6MOL   O493 6503   2.896   1.758   1.305  0.1872  0.8268 -0.3736
    6MOL   C494 6504   2.915   1.881   1.282  0.2981 -0.4430  0.1335
    6MOL   O495 6505   2.828   1.957   1.241 -0.3289  0.2976 -0.4575
    6MOL   C496 6506   3.055   1.934   1.323 -0.0004 -0.3198  0.7827
    6MOL   C497 6507   3.074   1.943   1.472  0.5572  0.1103 -0.0721
    6MOL   C498 6508   3.202   2.008   1.516 -0.1503 -0.5383 -0.3861
    6MOL   C499 6509   3.200   2.050   1.668  0.2682 -0.0072  0.4034
    6MOL   C500 6510   3.331   2.124   1.705  0.6066 -0.5506 -0.5717
    6MOL   C501 6511   3.460   2.045   1.687  0.1643  0.3049 -0.4635
    6MOL   C502 6512   3.589   2.117   1.731  0.1587  0.1600  0.2384
    6MOL   C503 6513   3.714   2.050   1.682 -0.6122 -0.3179  0.1239
    6MOL   C504 6514   3.754   1.928   1.761  0.4967 -0.6765 -0.4646
    6MOL   O505 6515   3.792   1.936   1.874  0.0266  0.5644  0.2196
    6MOL   H506 6516   1.638   1.435   1.630  0.1423 -1.4022  0.0662
    6MOL   H507 6517   1.720   1.577   1.674 -0.1154 -1.1313  0.7533
    6MOL   H508 6518   1.861   1.341   1.534 -1.4236  0.0252 -1.0829
    6MOL   H509 6519   1.798   1.482   1.454  3.2568 -0.2133 -1.4468
    6MOL   H510 6520   1.931   1.617   1.613  2.5133  0.9309 -0.6589
    6MOL   H511 6521   2.011   1.473   1.672 -0.7619 -2.8718 -0.6800
    6MOL   H512 6522   2.057   1.455   1.397 -0.7170  0.5979 -1.7182
    6MOL   H513 6523   1.995   1.605   1.402 -0.2417 -0.3254  0.1537
    6MOL   H514 6524   2.243   1.547   1.576  2.8362 -0.4866 -2.4029
    6MOL   H515 6525   2.183   1.708   1.521  2.1260  0.0001  0.1911
    6MOL   H516 6526   2.258   1.606   1.286  0.7376  0.7287 -0.6096
    6MOL   H517 6527   2.311   1.481   1.389  0.1658  0.4603 -0.2487
    6MOL   H518 6528   2.428   1.651   1.524  0.9350  0.1255  0.0173
    6MOL   H519 6529   2.388   1.776   1.409 -0.7194  0.0216  0.6129
    6MOL   H520 6530   2.516   1.647   1.220  1.0359  0.6592 -0.5602
    6MOL   H521 6531   2.552   1.526   1.328  0.6272  0.4877 -0.4905
    6MOL   H522 6532   2.648   1.816   1.367 -0.9700 -0.0513 -3.1911
    6MOL   H523 6533   2.703   1.682   1.465 -0.2732  2.2317  0.3080
    6MOL   H524 6534   2.809   1.583   1.251  1.4683  0.3255 -1.4973
    6MOL   H525 6535   2.754   1.725   1.163 -3.0054  0.3685  1.6435
    6MOL   H526 6536   3.058   2.031   1.274 -1.9407 -0.6266  0.0009
    6MOL   H527 6537   3.126   1.869   1.272 -0.6749 -1.0593  0.7832
    6MOL   H528 6538   3.089   1.842   1.510  0.0997  0.0516 -0.0422
    6MOL   H529 6539   2.992   1.996   1.521  0.9413  0.6346  0.0092
    6MOL   H530 6540   3.213   2.096   1.453 -2.2851 -0.6589 -0.9874
    6MOL   H531 6541   3.274   1.929   1.495 -1.1230 -1.8041  0.9268
    6MOL   H532 6542   3.189   1.962   1.731 -0.3868  0.1779  0.5448
    6MOL   H533 6543   3.113   2.109   1.697  1.2677  2.3503 -1.2711
    6MOL   H534 6544   3.342   2.216   1.646 -1.6208  0.6833  0.8917
    6MOL   H535 6545   3.329   2.158   1.808 -1.5504 -2.7687  0.1634
    6MOL   H536 6546   3.458   1.946   1.733 -1.2271  0.3636 -0.3692
    6MOL   H537 6547   3.479   2.026   1.581  1.5008  2.7902 -0.6837
    6MOL   H538 6548   3.587   2.141   1.837 -0.0060  0.5624  0.1479
    6MOL   H539 6549   3.597   2.218   1.689 -1.2464 -0.2555 -1.0540
    6MOL   H540 6550   3.710   2.031   1.574  2.5823  0.8795 -0.2551
    6MOL   H541 6551   3.778   2.133   1.711 -2.4660  1.1460  0.1607
    6MOL   O542 6552   3.721   1.815   1.695 -0.8000  0.4356  0.4993
    6MOL   C543 6553   3.739   1.690   1.762  0.1601 -0.9738 -0.4083
    6MOL   C544 6554   3.650   1.596   1.676  1.0467 -0.3191 -0.4914
    6MOL   C545 6555   3.511   1.647   1.662  0.0453 -0.3503 -0.4302
    6MOL   C546 6556   3.412   1.551   1.594  0.6100  0.2181 -0.2054
    6MOL   C547 6557   3.266   1.589   1.610  0.2968  0.2297  0.1051
    6MOL   C548 6558   3.169   1.477   1.569  0.0700 -0.5156 -0.7888
    6MOL   C549 6559   3.024   1.508   1.616 -0.1736 -0.2562  0.2834
    6MOL   C550 6560   2.915   1.420   1.550  0.1643  0.2142 -0.6861
    6MOL   C551 6561   2.790   1.403   1.634 -0.2802 -0.0965  0.4108
    6MOL   C552 6562   2.676   1.368   1.545 -0.7469  0.9716  0.4281
    6MOL   O553 6563   2.717   1.267   1.469 -0.0514  0.1574  0.2433
    6MOL   C554 6564   2.634   1.228   1.376 -0.0248  0.2850 -0.3844
    6MOL   O555 6565   2.516   1.267   1.360 -0.2004 -0.1443  0.0473
    6MOL   C556 6566   2.702   1.105   1.307  0.3021 -0.0441 -0.4193
    6MOL   C557 6567   2.600   1.026   1.216  0.4007  0.7252 -0.4033
    6MOL   C558 6568   2.503   0.933   1.302  0.3185 -0.2423  0.2004
    6MOL   C559 6569   2.399   0.846   1.216  0.3197  0.4042 -0.1422
    6MOL   C560 6570   2.292   0.809   1.313 -0.3959 -0.3960  0.2413
    6MOL   C561 6571   2.161   0.746   1.255  0.2792  0.2230 -0.5927
    6MOL   C562 6572   2.079   0.678   1.373  0.0127  0.0131  0.6303
    6MOL   C563 6573   1.935   0.641   1.338  0.2305  0.1096  0.3634
    6MOL   C564 6574   1.930   0.523   1.231  0.5175 -0.9237  0.2348
    6MOL   O565 6575   1.989   0.417   1.238  0.1304 -0.9740 -0.3524
    6MOL   H566 6576   3.835   1.640   1.745 -0.7477 -2.9883  0.2968
    6MOL   H567 6577   3.712   1.691   1.867  0.5662 -1.6428 -0.2919
    6MOL   H568 6578   3.692   1.590   1.575 -0.2666  0.3290 -1.0860
    6MOL   H569 6579   3.640   1.494   1.713 -1.5644  0.1556  0.2102
    6MOL   H570 6580   3.479   1.656   1.766  1.4344  0.5553 -0.0597
    6MOL   H571 6581   3.516   1.747   1.617  0.4489  0.2851  0.9919
    6MOL   H572 6582   3.437   1.541   1.488  0.2162  2.1791 -0.4946
    6MOL   H573 6583   3.438   1.459   1.648  2.2203  0.2636 -0.8748
    6MOL   H574 6584   3.233   1.680   1.560  1.1616  0.7629  0.4893
    6MOL   H575 6585   3.251   1.600   1.717 -0.2545 -0.6436  0.1223
    6MOL   H576 6586   3.192   1.382   1.618  1.5648 -1.1839 -2.7324
    6MOL   H577 6587   3.169   1.471   1.460 -2.5262  3.5965 -1.1287
    6MOL   H578 6588   3.005   1.615   1.608  2.1873  0.2417  0.7891
    6MOL   H579 6589   3.030   1.505   1.725 -0.1474 -1.5861  0.2548
    6MOL   H580 6590   2.954   1.319   1.535 -1.3602 -0.7526  1.5799
    6MOL   H581 6591   2.878   1.460   1.455 -0.8329  2.5059  0.6449
    6MOL   H582 6592   2.806   1.334   1.717 -0.6498  0.9517  1.3762
    6MOL   H583 6593   2.761   1.498   1.679 -1.5505  0.1876 -0.9535
    6MOL   H584 6594   2.585   1.337   1.597 -1.0004 -0.1629 -0.6764
    6MOL   H585 6595   2.659   1.453   1.479 -2.3193 -1.0628 -1.8379
    6MOL   H586 6596   2.760   1.048   1.379  1.7755  1.7551 -0.1386
    6MOL   H587 6597   2.776   1.142   1.235  1.0348  1.4535  1.0617
    6MOL   H588 6598   2.659   0.963   1.150  1.3690  0.4609  0.7079
    6MOL   H589 6599   2.545   1.096   1.153  1.3464  0.6525 -1.3144
    6MOL   H590 6600   2.446   1.001   1.365 -1.2593 -0.3816 -1.0258
    6MOL   H591 6601   2.573   0.871   1.358  0.8840  0.2966  0.0880
    6MOL   H592 6602   2.444   0.765   1.158 -0.6857 -0.0240 -0.3345
    6MOL   H593 6603   2.345   0.915   1.152 -0.8356  0.7134  1.1487
    6MOL   H594 6604   2.326   0.724   1.372 -1.4506 -1.5427 -0.7597
    6MOL   H595 6605   2.269   0.898   1.371  0.1169 -0.0671 -0.0646
    6MOL   H596 6606   2.113   0.834   1.211 -0.9131  0.4171  1.0468
    6MOL   H597 6607   2.180   0.674   1.176  1.2152 -0.4781  0.2591
    6MOL   H598 6608   2.086   0.738   1.464 -0.4093 -3.7944  3.2672
    6MOL   H599 6609   2.137   0.587   1.388  0.1594 -0.4505 -2.3335
    6MOL   H600 6610   1.880   0.603   1.424 -1.2477  0.5534 -0.3658
    6MOL   H601 6611   1.883   0.730   1.304 -3.0485 -1.9608 -0.2602
    6MOL   O602 6612   1.835   0.561   1.139 -0.1455  0.2924 -0.3714
    6MOL   C603 6613   1.791   0.471   1.040 -0.6096  0.3315 -0.1418
    6MOL   C604 6614   1.703   0.538   0.936  0.0357 -0.3229 -0.4889
    6MOL   C605 6615   1.754   0.671   0.893  0.5744  0.6426 -0.7510
    6MOL   C606 6616   1.669   0.729   0.788 -0.4075 -0.3427 -0.4204
    6MOL   C607 6617   1.700   0.873   0.739  0.3309  0.1904 -1.0052
    6MOL   C608 6618   1.606   0.910   0.625  0.5081 -0.5374 -1.4416
    6MOL   C609 6619   1.606   1.063   0.599  0.2836 -0.0861 -0.5465
    6MOL   C610 6620   1.733   1.107   0.538  0.2079 -0.3366  0.4648
    6MOL   C611 6621   1.717   1.253   0.480 -0.1269  0.2318  0.1646
    6MOL   C612 6622   1.735   1.357   0.598 -0.8689  0.3488  0.0156
    6MOL   O613 6623   1.726   1.488   0.529  0.0130 -0.0467  0.0488
    6MOL   C614 6624   1.607   1.550   0.540 -0.4735 -0.4598 -0.0956
    6MOL   O615 6625   1.507   1.523   0.599  0.5531  0.3232 -0.4258
    6MOL   C616 6626   1.607   1.680   0.459  0.2820  0.2273  0.1994
    6MOL   C617 6627   1.488   1.781   0.491  0.5508  0.3881 -0.2846
    6MOL   C618 6628   1.487   1.916   0.413 -0.2570 -0.4816  0.1164
    6MOL   C619 6629   1.394   2.017   0.481  0.0786  0.4870 -0.0531
    6MOL   C620 6630   1.414   2.156   0.413  0.9505 -0.0721 -0.4728
    6MOL   C621 6631   1.304   2.246   0.474  0.4613 -0.5706  0.3632
    6MOL   C622 6632   1.317   2.390   0.440  1.0654 -0.2214 -0.1651
    6MOL   C623 6633   1.244   2.480   0.533 -0.2339  0.1447  0.0289
    6MOL   C624 6634   1.300   2.471   0.676 -0.4057 -0.0122  0.8599
    6MOL   O625 6635   1.219   2.450   0.768  0.3138  0.5468  0.5294
    6MOL   H626 6636   1.881   0.430   0.994  0.0487  1.6173  0.0039
    6MOL   H627 6637   1.733   0.392   1.088  0.2107  2.1480  4.0056
    6MOL   H628 6638   1.697   0.475   0.847  2.3753  0.2422 -1.0847
    6MOL   H629 6639   1.603   0.557   0.974 -0.4353 -1.0164 -1.3556
    6MOL   H630 6640   1.770   0.744   0.973 -1.6360  0.6366 -0.2522
    6MOL   H631 6641   1.853   0.659   0.850  1.3438  1.1458  0.8276
    6MOL   H632 6642   1.682   0.663   0.702  0.5827 -1.3886  0.4943
    6MOL   H633 6643   1.566   0.731   0.822  0.1413 -0.2243  1.2952
    6MOL   H634 6644   1.798   0.870   0.691  0.8657  0.5543  0.0627
    6MOL   H635 6645   1.704   0.964   0.798  0.1475  0.0989 -0.8497
    6MOL   H636 6646   1.510   0.877   0.664  0.0961 -0.4655 -2.3629
    6MOL   H637 6647   1.625   0.843   0.541  0.5596 -1.8913 -0.3567
    6MOL   H638 6648   1.583   1.113   0.693 -0.9008  1.3303 -1.5669
    6MOL   H639 6649   1.518   1.084   0.538  0.7216  1.5029 -0.6395
    6MOL   H640 6650   1.766   1.035   0.463 -1.2920  0.5220 -1.0492
    6MOL   H641 6651   1.817   1.114   0.607  0.7719  1.2822 -0.3602
    6MOL   H642 6652   1.804   1.276   0.418  0.0981  0.6882  0.6401
    6MOL   H643 6653   1.627   1.252   0.419  1.2185 -3.2480 -1.9498
    6MOL   H644 6654   1.684   1.353   0.694 -1.4711  1.7987 -0.2234
    6MOL   H645 6655   1.840   1.359   0.626  0.2499  1.0847 -3.9796
    6MOL   H646 6656   1.601   1.653   0.354  2.1408 -2.5378  0.7689
    6MOL   H647 6657   1.707   1.720   0.476 -0.3913  1.2045  2.0858
    6MOL   H648 6658   1.490   1.812   0.596  3.1562  0.2228 -0.2378
    6MOL   H649 6659   1.388   1.741   0.476  0.5876  0.3241 -0.3631
    6MOL   H650 6660   1.461   1.886   0.312  1.9135  0.6793 -0.8316
    6MOL   H651 6661   1.593   1.942   0.404 -1.0120  2.7005 -0.0318
    6MOL   H652 6662   1.414   2.029   0.587 -2.0271  0.9842  0.3029
    6MOL   H653 6663   1.292   1.979   0.473 -1.0218  3.0800  1.0594
    6MOL   H654 6664   1.515   2.187   0.439  1.3775 -0.4180 -1.6897
    6MOL   H655 6665   1.391   2.165   0.307  0.2650  1.7163 -0.1890
    6MOL   H656 6666   1.203   2.218   0.441  0.4051 -0.9460  0.8512
    6MOL   H657 6667   1.295   2.229   0.581  0.8996 -1.1202  0.3144
    6MOL   H658 6668   1.278   2.409   0.340 -0.4798 -1.7455  0.1223
    6MOL   H659 6669   1.417   2.429   0.424 -0.5576  2.2847 -5.1965
    6MOL   H660 6670   1.259   2.584   0.503 -0.8546  0.6734  1.5245
    6MOL   H661 6671   1.137   2.466   0.523 -0.3166  0.2033  0.8653
    6MOL   O662 6672   1.435   2.488   0.682  0.1680  0.0477  0.3815
    6MOL   C663 6673   1.500   2.484   0.812  0.0995 -0.0420 -0.5847
    6MOL   C664 6674   1.622   2.396   0.784 -0.1655  0.4668 -0.0031
    6MOL   C665 6675   1.715   2.481   0.687 -0.2614  0.9683 -0.0565
    6MOL   C666 6676   1.827   2.384   0.633  0.2258  0.3966 -0.6533
    6MOL   C667 6677   1.795   2.286   0.517  0.4506 -0.0535 -0.8638
    6MOL   C668 6678   1.916   2.243   0.430  0.1204  0.0226  0.0410
    6MOL   C669 6679   1.878   2.143   0.318  0.3543 -0.5823  0.0867
    6MOL   C670 6680   1.986   2.081   0.233 -0.2350 -0.3066 -0.7038
    6MOL   C671 6681   2.064   2.184   0.140  0.3153  1.1076 -0.4614
    6MOL   C672 6682   2.179   2.270   0.197 -0.2089  0.6570 -0.2210
    6MOL   O673 6683   2.268   2.313   0.091  0.2561  0.1395 -0.0939
    6MOL   C674 6684   2.396   2.368   0.133  0.0649 -0.1586  0.2299
    6MOL   O675 6685   2.425   2.380   0.253 -0.0842 -0.8736 -0.0270
    6MOL   C676 6686   2.494   2.408   0.025 -0.4885  0.0826 -0.0493
    6MOL   C677 6687   2.506   2.294   7.674  0.7023  0.5594 -0.2621
    6MOL   C678 6688   2.589   2.331   7.549  0.1093  0.4943 -0.1960
    6MOL   C679 6689   2.592   2.211   7.450  0.0453 -0.1663 -0.0365
    6MOL   C680 6690   2.663   2.257   7.320 -0.1224 -0.7598 -0.0513
    6MOL   C681 6691   2.683   2.158   7.209  0.1559 -0.1709 -0.1312
    6MOL   C682 6692   2.774   2.208   7.092  0.5471  0.3973  0.3135
    6MOL   C683 6693   2.711   2.321   7.002 -0.1523 -0.4003  0.3068
    6MOL   C684 6694   2.817   2.385   6.914  0.0142  0.3550  0.6555
    6MOL   O685 6695   2.798   2.399   6.791 -0.3621  0.0201 -0.3048
    6MOL   H686 6696   1.523   2.585   0.846 -1.4154  1.1414 -2.9579
    6MOL   H687 6697   1.441   2.426   0.884  0.8023  1.1971  1.0367
    6MOL   H688 6698   1.664   2.364   0.879 -0.0165 -0.9459 -0.5346
    6MOL   H689 6699   1.593   2.308   0.726 -0.3538 -0.4148  1.4212
    6MOL   H690 6700   1.668   2.528   0.600 -2.0231  1.4547  1.1248
    6MOL   H691 6701   1.765   2.563   0.738  3.3183  0.4644 -2.5859
    6MOL   H692 6702   1.906   2.449   0.594 -0.0107 -0.0316 -1.8832
    6MOL   H693 6703   1.871   2.327   0.715 -1.5307  1.2801  0.9218
    6MOL   H694 6704   1.725   2.339   0.453  1.1639  0.6142 -1.1037
    6MOL   H695 6705   1.737   2.200   0.550  0.6775  0.1557  0.1235
    6MOL   H696 6706   1.996   2.194   0.487 -0.6406 -0.8066  0.4061
    6MOL   H697 6707   1.964   2.333   0.391 -2.0203  1.1329 -0.0427
    6MOL   H698 6708   1.809   2.175   0.240 -0.3111 -0.1227  0.8560
    6MOL   H699 6709   1.834   2.056   0.368  1.0635 -0.6730  0.5600
    6MOL   H700 6710   1.949   2.005   0.164 -1.1076 -1.1592  0.6846
    6MOL   H701 6711   2.058   2.025   0.292 -0.6743  0.1277  0.2578
    6MOL   H702 6712   2.101   2.112   0.066 -0.1410  2.2806 -1.8575
    6MOL   H703 6713   1.998   2.248   0.082  0.8299  4.0105  2.0326
    6MOL   H704 6714   2.143   2.361   0.245 -0.1041  0.6526 -0.1320
    6MOL   H705 6715   2.236   2.222   0.278 -1.6909  1.5595  1.3898
    6MOL   H706 6716   2.595   2.426   0.063 -0.2687  1.1904 -1.1363
    6MOL   H707 6717   2.462   2.501   7.736 -1.3608 -0.4403 -0.5027
    6MOL   H708 6718   2.406   2.262   7.644 -0.1683  0.6508  2.4342
    6MOL   H709 6719   2.553   2.206   7.718 -2.5670 -1.4455 -0.6593
    6MOL   H710 6720   2.688   2.360   7.585  0.7244  1.5500 -2.6343
    6MOL   H711 6721   2.560   2.424   7.498  0.0223  0.5719 -0.0049
    6MOL   H712 6722   2.491   2.190   7.416  0.1897  0.4997 -0.9156
    6MOL   H713 6723   2.640   2.125   7.497 -0.3485 -1.1284 -1.3577
    6MOL   H714 6724   2.610   2.339   7.272  1.6165  0.6031  0.2940
    6MOL   H715 6725   2.760   2.305   7.330 -0.1040 -0.6991 -0.5063
    6MOL   H716 6726   2.713   2.068   7.263 -0.2639 -1.3030 -1.7466
    6MOL   H717 6727   2.580   2.143   7.176 -0.0638  2.6598 -0.8240
    6MOL   H718 6728   2.788   2.112   7.042 -1.8826  0.3149 -0.2936
    6MOL   H719 6729   2.874   2.232   7.127 -0.0414  2.0633  0.8910
    6MOL   H720 6730   2.639   2.295   6.924 -1.8050  1.3036  1.2360
    6MOL   H721 6731   2.663   2.391   7.070  1.9999  2.5716 -1.1042
    6MOL   O722 6732   2.928   2.426   6.973 -0.0537  0.1770 -0.2975
    6MOL   C723 6733   3.022   2.500   6.891  1.0432  0.2506 -0.5155
    6MOL   C724 6734   3.133   2.554   6.982  0.2687  0.0648  0.0661
    6MOL   C725 6735   3.204   2.454   7.072  0.4717  0.2564  0.2341
    6MOL   C726 6736   3.319   2.521   7.150 -0.2053  0.2815  0.0944
    6MOL   C727 6737   3.385   2.443   7.259  0.2230 -0.5098  0.5105
    6MOL   C728 6738   3.510   2.515   7.307 -0.1200 -0.2861  0.1338
    6MOL   C729 6739   3.564   2.453   7.439 -0.0922  0.1987 -0.3016
    6MOL   C730 6740   3.459   2.438   7.554  0.0432  0.2588 -0.2018
    6MOL   C731 6741   3.526   2.387   7.688  0.2059  0.2030 -0.4947
    6MOL   C732 6742   3.417   2.344   0.031 -0.1194  0.2743 -0.9447
    6MOL   O733 6743   3.463   2.312   0.163 -0.1801  0.3703  0.4280
    6MOL   C734 6744   3.477   2.398   0.261  0.1100 -0.7771 -0.4898
    6MOL   O735 6745   3.454   2.518   0.267  0.5736  0.3479 -0.5621
    6MOL   C736 6746   3.525   2.326   0.390 -0.6006  0.1947  0.5195
    6MOL   C737 6747   3.664   2.261   0.391  0.1609 -0.1913  0.7398
    6MOL   C738 6748   3.687   2.152   0.283 -0.4038  0.1938  0.4772
    6MOL   C739 6749   3.819   2.078   0.296  0.4838 -0.3610  0.2943
    6MOL   C740 6750   3.837   1.980   0.178  0.0089 -0.7194  0.7633
    6MOL   C741 6751   3.973   1.928   0.200 -0.5634  0.0758  0.1267
    6MOL   C742 6752   4.030   1.845   0.090  0.1091  0.2149 -0.0743
    6MOL   C743 6753   4.170   1.774   0.124  0.7125  0.1396 -0.2811
    6MOL   C744 6754   4.294   1.861   0.125  0.0619 -0.3770 -0.0935
    6MOL   O745 6755   4.402   1.808   0.078  0.6606  0.0073  0.0893
    6MOL   H746 6756   3.062   2.431   6.817 -0.4856  0.4008 -1.5065
    6MOL   H747 6757   2.965   2.581   6.844  0.2657  1.1716  1.9022
    6MOL   H748 6758   3.201   2.605   6.915  0.3297 -1.1019 -0.7622
    6MOL   H749 6759   3.091   2.629   7.050  3.9581  0.0593  2.4811
    6MOL   H750 6760   3.129   2.412   7.139  0.7816 -1.9069 -0.7080
    6MOL   H751 6761   3.241   2.376   7.005 -1.8188  0.4076 -1.3065
    6MOL   H752 6762   3.386   2.530   7.064  0.3946 -0.3136  0.4902
    6MOL   H753 6763   3.281   2.611   7.196 -0.9396 -0.7152  1.4806
    6MOL   H754 6764   3.411   2.345   7.218  2.7611 -0.7010  2.4912
    6MOL   H755 6765   3.314   2.434   7.341 -0.6868  2.0729  0.0481
    6MOL   H756 6766   3.492   2.618   7.339  0.8006 -0.5155  1.3954
    6MOL   H757 6767   3.590   2.514   7.233  0.1648 -1.0064  0.4462
    6MOL   H758 6768   3.648   2.505   7.484 -0.8607  0.5078  0.7995
    6MOL   H759 6769   3.601   2.357   7.404 -0.4900 -0.1986  0.3465
    6MOL   H760 6770   3.376   2.370   7.539  0.6785 -0.5141 -0.2562
    6MOL   H761 6771   3.408   2.534   7.567  4.0270  2.2232  2.0723
    6MOL   H762 6772   3.589   2.299   7.672 -1.0828 -0.5610 -1.4427
    6MOL   H763 6773   3.598   2.459   7.727  1.6096 -1.9041  0.9564
    6MOL   H764 6774   3.342   2.423   0.031  0.9081  1.2684 -1.1307
    6MOL   H765 6775   3.359   2.260   7.749  2.1075 -2.4032  1.3244
    6MOL   H766 6776   3.440   2.264   0.419 -1.2777  1.0954  0.4581
    6MOL   H767 6777   3.535   2.404   0.465  4.0672 -0.2116  0.4666
    6MOL   H768 6778   3.681   2.226   0.493 -1.3116  1.2313  1.4848
    6MOL   H769 6779   3.732   2.345   0.379 -0.1375  0.0705  0.9118
    6MOL   H770 6780   3.687   2.193   0.182 -0.6472  0.0241  0.4094
    6MOL   H771 6781   3.605   2.082   0.268 -0.2862  0.6481 -2.6843
    6MOL   H772 6782   3.810   2.023   0.389 -0.3903 -2.0041 -0.7402
    6MOL   H773 6783   3.903   2.144   0.318 -0.1148  0.4335  0.1806
    6MOL   H774 6784   3.776   1.889   0.179  0.2412 -0.8868  0.2118
    6MOL   H775 6785   3.838   2.022   0.077 -0.9679  2.1125  1.8805
    6MOL   H776 6786   4.034   2.018   0.209 -0.7716  0.1124  1.1786
    6MOL   H777 6787   3.967   1.878   0.296 -1.1976  2.1105  1.1696
    6MOL   H778 6788   4.036   1.903   7.755 -1.8998 -0.1452 -0.4381
    6MOL   H779 6789   3.964   1.761   0.072  1.3099 -0.5716 -0.8422
    6MOL   H780 6790   4.161   1.724   0.220 -0.5921 -1.5019 -1.2187
    6MOL   H781 6791   4.201   1.698   0.052  0.4027  0.9562 -1.3010
    6MOL   O782 6792   4.292   1.979   0.186  0.2185  0.5715 -0.2268
    6MOL   C783 6793   4.404   2.057   0.222 -0.0227 -0.5374  0.0269
    6MOL   C784 6794   4.364   2.171   0.314  0.3078  0.6461 -1.0224
    6MOL   C785 6795   4.325   2.132   0.461  0.1765 -0.2243  0.0963
    6MOL   C786 6796   4.296   2.247   0.556  0.2640 -0.8535 -0.6312
    6MOL   C787 6797   4.175   2.325   0.506  0.2488  0.6184 -0.4529
    6MOL   C788 6798   4.120   2.420   0.604  0.3093  0.3600 -0.7009
    6MOL   C789 6799   4.004   2.497   0.539 -0.0302 -0.2180 -0.6025
    6MOL   C790 6800   3.910   2.569   0.642  0.0009 -0.1908  0.4542
    6MOL   C791 6801   3.796   2.641   0.576 -0.2750  0.0091  0.3719
    6MOL   C792 6802   3.683   2.688   0.679 -0.2935  0.1167 -0.0553
    6MOL   O793 6803   3.577   2.594   0.701 -0.2175 -0.2296  0.2911
    6MOL   C794 6804   3.456   2.632   0.734  0.2627 -0.4488 -0.2378
    6MOL   O795 6805   3.422   2.750   0.751  0.7341  0.3559 -0.2258
    6MOL   C796 6806   3.361   2.522   0.750 -0.0508  0.0160  0.7140
    6MOL   C797 6807   3.224   2.549   0.690  0.3706  0.0292  0.3836
    6MOL   C798 6808   3.226   2.548   0.541  0.2730  0.1215  0.6480
    6MOL   C799 6809   3.093   2.587   0.476 -0.5455  0.1704 -0.4680
    6MOL   C800 6810   3.093   2.603   0.320 -0.5390 -0.6236  0.1561
    6MOL   C801 6811   2.964   2.661   0.259 -0.1765 -0.4858 -0.4282
    6MOL   C802 6812   2.980   2.699   0.108  0.5940 -0.1388  0.3121
    6MOL   C803 6813   2.847   2.718   0.028  0.7306  0.6018  0.3748
    6MOL   C804 6814   2.764   2.839   0.061  0.4088  0.2747  0.2246
    6MOL   O805 6815   2.805   2.930   0.129  0.2619 -0.8278  0.1690
    6MOL   H806 6816   4.479   1.994   0.271 -0.2151 -1.4046 -0.7896
    6MOL   H807 6817   4.440   2.100   0.129 -0.8769  1.6587  0.6840
    6MOL   H808 6818   4.448   2.240   0.323  0.0911  0.5166  3.0923
    6MOL   H809 6819   4.280   2.223   0.268 -1.5164  1.1107  2.6084
    6MOL   H810 6820   4.243   2.061   0.472 -0.5734  0.6451  0.1260
    6MOL   H811 6821   4.408   2.077   0.505 -0.7923 -0.0769  2.1909
    6MOL   H812 6822   4.275   2.209   0.656  2.1828  0.5398  0.3439
    6MOL   H813 6823   4.386   2.308   0.571 -0.3567  0.0770 -0.6111
    6MOL   H814 6824   4.095   2.258   0.474  0.6690 -0.4922  0.7590
    6MOL   H815 6825   4.200   2.381   0.416 -2.7916  2.4591 -0.2401
    6MOL   H816 6826   4.196   2.493   0.631  1.6667 -1.7137  1.2913
    6MOL   H817 6827   4.083   2.359   0.686  0.7532 -0.7509 -1.3188
    6MOL   H818 6828   3.944   2.442   0.468  1.2939 -0.3740 -1.6227
    6MOL   H819 6829   4.062   2.568   0.480 -0.7159 -0.0184 -1.0459
    6MOL   H820 6830   3.969   2.644   0.694  0.6943 -0.0185 -0.5694
    6MOL   H821 6831   3.868   2.494   0.709 -0.8136  1.2500  1.5791
    6MOL   H822 6832   3.848   2.724   0.529  0.7935 -0.7902  0.1326
    6MOL   H823 6833   3.751   2.569   0.507 -0.2866 -0.1300  0.5232
    6MOL   H824 6834   3.731   2.714   0.773 -0.5492  3.6414 -0.8377
    6MOL   H825 6835   3.628   2.774   0.640 -0.0454 -0.4217 -1.6658
    6MOL   H826 6836   3.356   2.509   0.858 -0.2823 -0.1934  0.6774
    6MOL   H827 6837   3.397   2.431   0.702  1.1948  1.2491 -0.7541
    6MOL   H828 6838   3.192   2.648   0.721 -2.4323  0.1018 -2.4669
    6MOL   H829 6839   3.149   2.477   0.725 -0.2009  0.8043  0.7691
    6MOL   H830 6840   3.254   2.447   0.511  0.8859 -0.2188  2.3205
    6MOL   H831 6841   3.296   2.617   0.495  0.0094 -1.5508 -2.3973
    6MOL   H832 6842   3.063   2.681   0.522  2.5012  1.9775 -1.9534
    6MOL   H833 6843   3.014   2.517   0.504 -1.1548  0.9788 -0.1432
    6MOL   H834 6844   3.182   2.662   0.299  0.0051 -1.2027  0.7954
    6MOL   H835 6845   3.119   2.513   0.263 -1.8900 -1.5863  1.0278
    6MOL   H836 6846   2.888   2.582   0.261 -0.8323  0.1205 -1.0722
    6MOL   H837 6847   2.938   2.752   0.313 -1.0956 -0.7647 -0.3866
    6MOL   H838 6848   3.045   2.638   0.045  0.7510  0.1951  0.1505
    6MOL   H839 6849   3.015   2.802   0.115 -1.4797  0.5621  0.6776
    6MOL   H840 6850   2.878   2.732   7.681 -1.2079 -2.2397 -0.6609
    6MOL   H841 6851   2.784   2.629   0.019 -0.1657  1.5009 -2.6860
    6MOL   O842 6852   2.658   2.830   0.001 -0.0699 -0.5784 -0.0396
    6MOL   C843 6853   2.547   2.924   0.024 -0.8678  0.5730  0.6082
    6MOL   C844 6854   2.424   2.864   7.722 -0.5421 -0.6196  0.4212
    6MOL   C845 6855   2.427   2.868   7.569 -0.0012 -0.9437 -0.1779
    6MOL   C846 6856   2.297   2.823   7.500  0.0486  0.0447 -0.5394
    6MOL   C847 6857   2.296   2.812   7.344 -0.1708 -0.5963  0.1840
    6MOL   C848 6858   2.256   2.934   7.267 -0.2305 -0.7154  0.1331
    6MOL   C849 6859   2.354   3.051   7.285 -0.4755  0.4006 -0.1244
    6MOL   C850 6860   2.357   3.153   7.166  0.3466  0.3510  0.2140
    6MOL   C851 6861   2.235   3.233   7.152  0.4635  0.2400 -0.6803
    6MOL   C852 6862   2.203   3.333   7.264 -0.2958 -0.8803 -0.2383
    6MOL   O853 6863   2.265   3.453   7.242  0.5818  0.0267 -0.2084
    6MOL   C854 6864   2.290   3.535   7.348 -0.1087 -0.5048 -0.5521
    6MOL   O855 6865   2.242   3.530   7.460 -0.0162 -0.3490  0.0115
    6MOL   C856 6866   2.376   3.645   7.308 -0.0110 -0.2858 -0.9318
    6MOL   C857 6867   2.517   3.604   7.256 -0.1278  0.8034  0.3164
    6MOL   C858 6868   2.602   3.728   7.215 -0.3774 -0.3252  0.4809
    6MOL   C859 6869   2.752   3.708   7.174 -0.2949  0.2381 -0.1272
    6MOL   C860 6870   2.840   3.833   7.178  0.2205  0.5909  0.3562
    6MOL   C861 6871   2.982   3.797   7.123 -0.0922  0.1879  0.0233
    6MOL   C862 6872   3.083   3.908   7.115 -0.2472  0.5232  0.4614
    6MOL   C863 6873   3.140   3.947   7.256  0.2320 -0.5120  0.2078
    6MOL   C864 6874   3.063   4.058   7.327  0.2513  0.1003 -0.3916
    6MOL   O865 6875   3.053   4.051   7.450  0.6632  0.1636  0.2111
    6MOL   H866 6876   2.533   2.953   0.128  1.8777 -2.7895  2.0038
    6MOL   H867 6877   2.571   3.016   7.727 -3.7233  0.0519 -1.7030
    6MOL   H868 6878   2.428   2.764   0.008 -0.9913  0.3528  2.8090
    6MOL   H869 6879   2.350   2.931   0.008  0.0999 -0.0806  0.7009
    6MOL   H870 6880   2.443   2.971   7.537 -3.1505  0.2274  1.7733
    6MOL   H871 6881   2.506   2.807   7.525 -0.4041  0.0651 -2.3808
    6MOL   H872 6882   2.278   2.721   7.534  0.9034  0.4428  1.1765
    6MOL   H873 6883   2.211   2.881   7.533 -0.1749 -0.2543 -0.5884
    6MOL   H874 6884   2.219   2.743   7.310 -0.1246 -0.8224  0.5430
    6MOL   H875 6885   2.393   2.780   7.307 -0.1426 -0.9509  0.5686
    6MOL   H876 6886   2.162   2.976   7.305  0.6963  0.5952  1.0474
    6MOL   H877 6887   2.247   2.906   7.162 -1.6200 -3.6277  0.9920
    6MOL   H878 6888   2.458   3.018   7.281 -1.0794 -1.5155 -0.2292
    6MOL   H879 6889   2.351   3.105   7.379 -0.9601 -2.0358  1.3004
    6MOL   H880 6890   2.376   3.103   7.071  1.2805  0.5827  0.2719
    6MOL   H881 6891   2.446   3.216   7.173 -0.7668  1.6893  2.8829
    6MOL   H882 6892   2.231   3.285   7.057  0.2001  0.5496 -0.5012
    6MOL   H883 6893   2.154   3.161   7.155  1.1296 -0.4654  2.0849
    6MOL   H884 6894   2.095   3.347   7.263 -0.1397  0.3956 -0.0274
    6MOL   H885 6895   2.240   3.293   7.359  2.5347  0.0776 -0.8851
    6MOL   H886 6896   2.380   3.711   7.395 -0.8780 -0.0849 -1.0414
    6MOL   H887 6897   2.318   3.706   7.239 -3.3841 -0.3795  1.6873
    6MOL   H888 6898   2.508   3.540   7.167 -0.5892  1.6578 -0.2620
    6MOL   H889 6899   2.574   3.541   7.324 -0.1527 -2.4853 -2.5264
    6MOL   H890 6900   2.606   3.803   7.294 -0.3115 -0.7538  0.8825
    6MOL   H891 6901   2.545   3.785   7.141 -1.6865  0.2440  1.8894
    6MOL   H892 6902   2.761   3.674   7.071 -1.4230  2.9534 -1.1863
    6MOL   H893 6903   2.792   3.628   7.236  0.0339  0.6506  0.2021
    6MOL   H894 6904   2.798   3.910   7.114 -0.7190 -0.0346  0.2066
    6MOL   H895 6905   2.850   3.875   7.278  0.9251  0.6155  0.2798
    6MOL   H896 6906   3.035   3.730   7.192  1.0735  2.8524  1.7994
    6MOL   H897 6907   2.972   3.755   7.023  1.5073  0.4306 -0.2610
    6MOL   H898 6908   3.058   3.988   7.045  1.1147  0.1310 -0.4795
    6MOL   H899 6909   3.166   3.854   7.069  0.5475  1.2241  1.0665
    6MOL   H900 6910   3.135   3.863   7.325  0.2706  0.4828  1.4278
    6MOL   H901 6911   3.247   3.968   7.251  0.5454 -1.8777  0.6923
    6MOL   O902 6912   3.007   4.149   7.251  0.2029  0.9208  0.0894
    6MOL   C903 6913   2.920   4.246   7.312  0.3795 -0.0115 -0.6465
    6MOL   C904 6914   2.779   4.247   7.258 -0.2278  0.0920 -0.3445
    6MOL   C905 6915   2.697   4.360   7.319  0.3081  0.2347  0.0965
    6MOL   C906 6916   2.741   4.497   7.274 -0.6422 -0.3353 -0.1706
    6MOL   C907 6917   2.644   4.611   7.311 -0.6234 -0.7171  0.8472
    6MOL   C908 6918   2.714   4.751   7.299 -0.1078  0.5257 -0.3845
    6MOL   C909 6919   2.788   4.772   7.165  0.4929  0.3612  0.3300
    6MOL   C910 6920   2.829   4.918   7.137  0.4717 -0.1739  0.2753
    6MOL   C911 6921   2.908   4.944   7.010  0.1054  0.4223  0.4199
    6MOL   C912 6922   2.935   5.088   6.979  0.3315 -0.6117  0.0100
    6MOL   O913 6923   3.046   5.105   6.894 -0.3997  0.1536 -0.2778
    6MOL   C914 6924   3.064   5.041   6.777 -0.0954 -1.0924 -0.0482
    6MOL   O915 6925   2.975   4.979   6.718  0.3892 -0.1929 -0.4436
    6MOL   C916 6926   3.204   5.061   6.724 -0.6741  0.2340  0.5356
    6MOL   C917 6927   3.207   5.070   6.567  0.2612  0.2661 -0.0369
    6MOL   C918 6928   3.332   5.133   6.504  0.3781  0.8104 -0.2302
    6MOL   C919 6929   3.353   5.099   6.353 -0.3375  0.2431  0.0012
    6MOL   C920 6930   3.459   5.188   6.284  0.4354 -0.5459 -0.4685
    6MOL   C921 6931   3.405   5.317   6.232 -0.0144 -0.5419  0.5029
    6MOL   C922 6932   3.341   5.295   6.096  0.1260  0.0062  0.2473
    6MOL   C923 6933   3.321   5.435   6.023 -0.5047  0.1280  0.3351
    6MOL   C924 6934   3.279   5.419   5.879  0.0100 -0.5621 -0.6116
    6MOL   O925 6935   3.265   5.313   5.827  0.5632  0.2731 -0.0872
    6MOL   H926 6936   2.912   4.224   7.419  1.0549 -2.6690 -1.1285
    6MOL   H927 6937   2.962   4.345   7.290  1.1338 -0.3044 -0.5298
    6MOL   H928 6938   2.779   4.253   7.149  1.4283  0.4432 -0.3302
    6MOL   H929 6939   2.738   4.151   7.288  1.6632 -0.6019  0.0652
    6MOL   H930 6940   2.594   4.348   7.285  1.3075 -1.8302 -2.4294
    6MOL   H931 6941   2.694   4.337   7.425  0.0332  0.7390  0.1991
    6MOL   H932 6942   2.835   4.513   7.327  0.0763  0.3693 -1.6278
    6MOL   H933 6943   2.769   4.501   7.168  0.1992 -0.0811  0.0572
    6MOL   H934 6944   2.610   4.611   7.415 -2.0808  1.7484  0.4251
    6MOL   H935 6945   2.552   4.590   7.257  0.6085 -0.1261 -1.5339
    6MOL   H936 6946   2.789   4.757   7.378  0.5305 -3.0884 -0.6246
    6MOL   H937 6947   2.631   4.822   7.308 -2.0734 -1.8277  0.6657
    6MOL   H938 6948   2.717   4.734   7.091 -0.0035  0.1057  0.9360
    6MOL   H939 6949   2.882   4.719   7.151  0.5699  0.4803  0.3933
    6MOL   H940 6950   2.891   4.956   7.217  0.4291 -0.5352  0.4798
    6MOL   H941 6951   2.738   4.974   7.118  1.0712 -0.0666 -2.6004
    6MOL   H942 6952   2.995   4.878   7.018  0.1627  0.3655 -0.5599
    6MOL   H943 6953   2.841   4.902   6.935 -0.3012 -2.3840  2.2482
    6MOL   H944 6954   2.849   5.138   6.935  0.1217 -1.0946 -0.1376
    6MOL   H945 6955   2.961   5.139   7.071 -0.3518 -1.5458  0.7232
    6MOL   H946 6956   3.277   4.984   6.750  0.6599  1.2585 -0.1080
    6MOL   H947 6957   3.248   5.149   6.771  0.4362 -0.3312  0.5749
    6MOL   H948 6958   3.116   5.125   6.543  0.0837  0.6886  1.5168
    6MOL   H949 6959   3.187   4.968   6.534  0.4969  0.6142 -1.2614
    6MOL   H950 6960   3.422   5.109   6.560 -2.0628 -1.1295  3.0844
    6MOL   H951 6961   3.325   5.240   6.521 -0.8101  0.6276  0.4700
    6MOL   H952 6962   3.262   5.091   6.293  0.0565  1.7077 -0.8099
    6MOL   H953 6963   3.406   5.003   6.350  1.1981  1.0404  1.0535
    6MOL   H954 6964   3.536   5.207   6.358  0.5970  2.3221 -1.3107
    6MOL   H955 6965   3.508   5.144   6.197 -0.8810 -0.5009 -1.2542
    6MOL   H956 6966   3.324   5.355   6.294  0.9117  0.7990  0.9116
    6MOL   H957 6967   3.484   5.392   6.221  1.2049 -1.9805 -0.8506
    6MOL   H958 6968   3.243   5.247   6.106 -0.1913  0.2400 -1.6615
    6MOL   H959 6969   3.409   5.229   6.042 -1.1036 -2.7441  1.9227
    6MOL   H960 6970   3.250   5.498   6.076  0.6597  1.4282  0.3653
    6MOL   H961 6971   3.417   5.487   6.017 -1.4148  1.9783  1.3060
    6MOL   O962 6972   3.248   5.540   5.828  0.0518 -0.1317  0.2935
    6MOL   C963 6973   3.199   5.552   5.690 -0.1799  0.5682 -0.7110
    6MOL   C964 6974   3.295   5.653   5.616  1.1917 -0.0239 -0.0188
    6MOL   C965 6975   3.436   5.595   5.589  0.1583 -0.0763  0.1129
    6MOL   C966 6976   3.515   5.693   5.499 -0.5171 -0.1097 -0.3116
    6MOL   C967 6977   3.653   5.637   5.460  0.6331  0.1137 -0.2797
    6MOL   C968 6978   3.708   5.711   5.337 -0.4439  0.3412 -0.6194
    6MOL   C969 6979   3.854   5.667   5.315  0.0071 -0.1498 -0.3361
    6MOL   C970 6980   3.899   5.715   5.173  0.0708 -1.0721  0.2258
    6MOL   C971 6981   3.952   5.855   5.173  0.4227 -0.4516  0.0875
    6MOL   C972 6982   4.076   5.878   5.259  0.4346  0.1589 -0.1069
    6MOL   O973 6983   4.180   5.798   5.213 -0.3259  0.8899  0.3292
    6MOL   C974 6984   4.295   5.794   5.287  0.3310  0.2783 -0.1756
    6MOL   O975 6985   4.308   5.843   5.406  0.2290  1.0115  0.0945
    6MOL   C976 6986   4.404   5.700   5.227  0.5728  0.1560 -0.1119
    6MOL   C977 6987   4.526   5.675   5.316 -0.2000  0.4161 -0.3235
    6MOL   C978 6988   4.613   5.795   5.352  0.0116  0.0003 -0.4152
    6MOL   C979 6989   4.748   5.761   5.415 -0.0484 -0.8153  0.2100
    6MOL   C980 6990   4.733   5.700   5.558 -0.6538 -0.4324  0.3234
    6MOL   C981 6991   4.867   5.690   5.637 -0.3213  0.1392  0.3730
    6MOL   C982 6992   4.865   5.597   5.759  0.4270  0.5880 -0.2012
    6MOL   C983 6993   4.979   5.621   5.860  0.6980 -0.3846  0.7874
    6MOL   C984 6994   4.958   5.570   6.005 -0.0606 -0.9099 -0.1847
    6MOL   O985 6995   4.849   5.563   6.061 -0.1147 -0.5506  0.5457
    6MOL   H986 6996   3.205   5.454   5.644 -1.0090  0.3645 -0.3997
    6MOL   H987 6997   3.095   5.586   5.691 -0.5094 -0.4105  0.8330
    6MOL   H988 6998   3.244   5.676   5.523 -1.2762 -1.5734  0.8813
    6MOL   H989 6999   3.290   5.747   5.671 -0.2698 -0.2369  0.2390
    6MOL   H990 7000   3.491   5.588   5.683 -1.6040  0.3569  1.1974
    6MOL   H991 7001   3.419   5.496   5.546 -1.7192  1.1732 -2.0722
    6MOL   H992 7002   3.446   5.707   5.415 -0.4047  1.5181 -0.1580
    6MOL   H993 7003   3.534   5.788   5.548 -1.2448 -0.9625  1.6539
    6MOL   H994 7004   3.656   5.529   5.443 -2.7028 -0.0546 -0.0855
    6MOL   H995 7005   3.719   5.654   5.545  0.4611  0.2007 -0.1648
    6MOL   H996 7006   3.716   5.820   5.344 -1.4474  0.3410  0.8370
    6MOL   H997 7007   3.643   5.684   5.254 -0.5266  1.6566 -0.9956
    6MOL   H998 7008   3.851   5.559   5.310  0.2137 -0.2770  1.9414
    6MOL   H999 7009   3.926   5.689   5.394 -1.3719 -0.4201  1.0207
    6MOL     H1 7010   3.819   5.716   5.100  1.1739 -1.2138 -0.9931
    6MOL     H2 7011   3.970   5.653   5.119  1.5230 -0.4391  1.3741
    6MOL     H3 7012   3.958   5.897   5.072  0.2175 -1.2680 -0.2647
    6MOL     H4 7013   3.871   5.910   5.222 -1.4474 -3.1770  0.1502
    6MOL     H5 7014   4.111   5.982   5.261  2.3410 -0.4640 -0.2130
    6MOL     H6 7015   4.043   5.860   5.362  0.8093  0.2867  0.0362
    6MOL     H7 7016   4.443   5.729   5.129  2.2787 -1.1622  0.1497
    6MOL     H8 7017   4.355   5.604   5.209  0.1547  0.5289 -1.0052
    6MOL     H9 7018   4.582   5.601   5.258  1.0110 -1.3285  2.9361
    6MOL    H10 7019   4.489   5.632   5.408 -0.3961  0.9994 -0.1275
    6MOL    H11 7020   4.563   5.872   5.410  2.7400 -0.7431  3.1426
    6MOL    H12 7021   4.637   5.852   5.262  0.4829  0.4363 -0.0182
    6MOL    H13 7022   4.811   5.850   5.419 -0.9282  0.0077 -2.8416
    6MOL    H14 7023   4.801   5.693   5.349 -1.3687 -0.6655 -1.0184
    6MOL    H15 7024   4.659   5.760   5.612 -0.5795 -0.2343  0.2069
    6MOL    H16 7025   4.687   5.603   5.544 -1.0272  0.1993 -3.1210
    6MOL    H17 7026   4.952   5.657   5.578 -0.9031  0.6803 -0.7815
    6MOL    H18 7027   4.882   5.794   5.667 -2.5034  0.4379  0.5227
    6MOL    H19 7028   4.870   5.491   5.737  2.4976  1.1194 -2.4476
    6MOL    H20 7029   4.769   5.615   5.808  0.0848  2.5192 -1.5096
    6MOL    H21 7030   5.076   5.601   5.814  0.2346 -1.7435  0.3613
    6MOL    H22 7031   4.991   5.727   5.883  0.3389  0.4321 -2.6144
    6MOL    O23 7032   5.072   5.538   6.053  0.6131 -0.7553 -0.2649
    6MOL    C24 7033   5.093   5.514   6.190  0.3256  0.3794  0.1460
    6MOL    C25 7034   5.225   5.435   6.199  0.1211  0.6393 -0.0433
    6MOL    C26 7035   5.244   5.359   6.333  0.1285  0.3194 -0.5260
    6MOL    C27 7036   5.366   5.259   6.333  0.3115  0.7735 -0.3984
    6MOL    C28 7037   5.364   5.148   6.236  0.0146  0.4266  0.0094
    6MOL    C29 7038   5.261   5.045   6.281  0.0637 -0.0410 -0.7828
    6MOL    C30 7039   5.233   4.947   6.165  0.5280 -0.0757  0.6764
    6MOL    C31 7040   5.111   4.859   6.177  0.1017  0.0850  0.1017
    6MOL    C32 7041   5.077   4.773   6.059  0.2890 -0.5791 -0.4058
    6MOL    C33 7042   4.950   4.683   6.087  0.1010  0.4989  0.8349
    6MOL    O34 7043   4.854   4.700   5.984  0.0658 -0.0610 -0.3635
    6MOL    C35 7044   4.879   4.623   5.872  0.2126 -0.3342 -0.1830
    6MOL    O36 7045   4.972   4.543   5.858  0.1959 -0.1505 -0.0174
    6MOL    C37 7046   4.776   4.648   5.766 -0.2308  0.1628  0.1966
    6MOL    C38 7047   4.825   4.740   5.650  0.2480  0.2434 -0.2799
    6MOL    C39 7048   4.915   4.674   5.550 -0.1421 -0.6785  0.1067
    6MOL    C40 7049   4.940   4.767   5.433 -0.1746 -0.1400  0.4352
    6MOL    C41 7050   4.827   4.801   5.337 -0.0788 -0.6166 -0.6951
    6MOL    C42 7051   4.764   4.688   5.253 -0.5037 -0.2426  0.4792
    6MOL    C43 7052   4.866   4.633   5.147  0.4503 -0.3846 -0.2234
    6MOL    C44 7053   4.793   4.530   5.049 -0.1123 -0.5583  0.5198
    6MOL    C45 7054   4.715   4.595   4.938 -0.5122 -0.2709  0.3180
    6MOL    O46 7055   4.769   4.681   4.863  0.1752 -0.2705 -0.4977
    6MOL    H47 7056   5.099   5.610   6.242  0.3696  0.9634 -0.9360
    6MOL    H48 7057   5.011   5.454   6.229  0.0744  0.6177 -0.0123
    6MOL    H49 7058   5.228   5.372   6.110 -0.9802  0.8595 -0.2398
    6MOL    H50 7059   5.312   5.498   6.183 -0.3590  0.7884 -2.3145
    6MOL    H51 7060   5.260   5.434   6.410 -2.2362  2.9490 -2.4651
    6MOL    H52 7061   5.155   5.304   6.362 -0.0855  1.4865  1.1236
    6MOL    H53 7062   5.446   5.324   6.297  1.2209 -0.0041  0.2013
    6MOL    H54 7063   5.401   5.237   6.433  2.8371  3.0267 -0.7224
    6MOL    H55 7064   5.462   5.102   6.220 -0.0469  0.1650  0.3932
    6MOL    H56 7065   5.339   5.194   6.140  0.4394 -1.2485 -0.9272
    6MOL    H57 7066   5.166   5.091   6.309 -0.2525  0.4261 -2.5882
    6MOL    H58 7067   5.287   4.992   6.373  1.9167  0.7218 -0.8480
    6MOL    H59 7068   5.324   4.887   6.153  0.3857 -0.3179  0.7864
    6MOL    H60 7069   5.222   5.014   6.081  1.5083  0.5074  1.0132
    6MOL    H61 7070   5.023   4.918   6.203  0.9363  1.1041  0.6818
    6MOL    H62 7071   5.153   4.795   6.255 -0.2490  0.0266  0.2409
    6MOL    H63 7072   5.068   4.830   5.966 -0.6081 -2.3672 -1.4335
    6MOL    H64 7073   5.155   4.702   6.032  1.7059  0.4686  0.8369
    6MOL    H65 7074   4.970   4.577   6.104 -2.8413 -0.5840 -1.9159
    6MOL    H66 7075   4.892   4.719   6.172 -2.4315  2.7058 -1.7369
    6MOL    H67 7076   4.677   4.685   5.794 -0.6914  1.2768 -2.7315
    6MOL    H68 7077   4.753   4.544   5.741 -1.2842  0.3485  0.3763
    6MOL    H69 7078   4.876   4.827   5.692  0.0954  1.9434 -3.4958
    6MOL    H70 7079   4.735   4.780   5.603  0.5393  2.1349  0.7039
    6MOL    H71 7080   4.872   4.580   5.519 -2.4268  0.6038 -0.7147
    6MOL    H72 7081   5.012   4.657   5.598  0.6347  2.5313 -0.1849
    6MOL    H73 7082   5.008   4.706   5.374  0.8074  0.9677  0.4058
    6MOL    H74 7083   4.984   4.859   5.472 -0.5253 -0.6193  1.9849
    6MOL    H75 7084   4.747   4.847   5.395  0.7788 -1.6494  1.3464
    6MOL    H76 7085   4.858   4.876   5.264 -0.9453  2.0639  1.6004
    6MOL    H77 7086   4.724   4.614   5.322 -0.7112 -0.7264 -0.1537
    6MOL    H78 7087   4.674   4.724   5.203  0.4081 -1.8346 -2.4849
    6MOL    H79 7088   4.949   4.582   5.198 -1.0013 -2.1553  0.4119
    6MOL    H80 7089   4.908   4.717   5.092  0.0117 -0.1051 -0.1282
    6MOL    H81 7090   4.870   4.492   4.982  0.0581  1.3094 -0.3639
    6MOL    H82 7091   4.744   4.450   5.105 -0.9271  0.0685  0.7077
    6MOL    O83 7092   4.581   4.568   4.945 -0.2744 -0.2483  1.0313
    6MOL    C84 7093   4.492   4.628   4.851  0.0951  0.0686  0.0048
    6MOL    C85 7094   4.499   4.557   4.720 -0.3828  0.6324  0.2612
    6MOL    C86 7095   4.452   4.407   4.721  0.2276  0.2288  0.9767
    6MOL    C87 7096   4.471   4.346   4.581  0.3660 -0.0131  0.6232
    6MOL    C88 7097   4.483   4.195   4.589 -0.4752 -0.1578  0.1300
    6MOL    C89 7098   4.448   4.133   4.448  0.5086  0.0643 -0.2713
    6MOL    C90 7099   4.446   3.978   4.452  0.2618 -0.6489 -0.0867
    6MOL    C91 7100   4.426   3.912   4.308 -0.5706 -0.7652  0.2249
    6MOL    C92 7101   4.364   3.770   4.323 -0.3583  0.0185 -0.1299
    6MOL    C93 7102   4.360   3.694   4.182  0.4640 -0.1571 -0.2793
    6MOL    O94 7103   4.257   3.743   4.083 -0.7953  0.1732  0.6485
    6MOL    C95 7104   4.281   3.712   3.957 -0.5103  0.7464  0.6494
    6MOL    O96 7105   4.358   3.630   3.910  0.1507  0.8425  0.1465
    6MOL    C97 7106   4.205   3.798   3.854  0.1549 -0.4377 -0.3359
    6MOL    C98 7107   4.199   3.952   3.883  0.0342  0.2506 -0.0334
    6MOL    C99 7108   4.330   4.013   3.939  0.3869  0.5566 -0.1499
    6MOL   C100 7109   4.438   4.001   3.827 -0.6264 -0.6182  0.8755
    6MOL   C101 7110   4.580   4.033   3.877  0.0489 -0.1763 -0.5392
    6MOL   C102 7111   4.687   4.042   3.770  0.0642  0.2650  0.1738
    6MOL   C103 7112   4.832   4.046   3.840 -0.2073  0.1475  0.3180
    6MOL   C104 7113   4.953   4.031   3.749  0.0909 -0.4086 -0.0147
    6MOL   C105 7114   5.082   4.087   3.808  0.7551  0.1627  0.0470
    6MOL   O106 7115   5.103   4.207   3.806 -0.0275  0.4962 -0.5500
    6MOL   H107 7116   4.387   4.630   4.879 -0.0549  0.7290 -0.6153
    6MOL   H108 7117   4.522   4.731   4.830 -0.4048  0.1207 -0.4573
    6MOL   H109 7118   4.438   4.607   4.645  1.2095  1.1830 -0.6868
    6MOL   H110 7119   4.598   4.563   4.676  0.1185  0.7943  1.3880
    6MOL   H111 7120   4.503   4.344   4.793  2.0366 -0.0616 -0.5174
    6MOL   H112 7121   4.346   4.401   4.746 -0.3825 -2.0229 -1.8816
    6MOL   H113 7122   4.382   4.362   4.520  1.0034 -2.8458 -1.0966
    6MOL   H114 7123   4.565   4.379   4.537 -0.0585 -0.7250 -0.8308
    6MOL   H115 7124   4.409   4.164   4.662 -0.5519 -0.9775 -0.2889
    6MOL   H116 7125   4.580   4.161   4.627 -0.1802 -2.2434 -2.3065
    6MOL   H117 7126   4.519   4.163   4.371 -0.2979  0.3240 -0.9196
    6MOL   H118 7127   4.355   4.175   4.412  1.1906  0.8745 -1.1197
    6MOL   H119 7128   4.362   3.940   4.509 -0.8984  2.8137  0.5797
    6MOL   H120 7129   4.537   3.945   4.502 -0.8990  1.7656  3.7619
    6MOL   H121 7130   4.524   3.918   4.261 -0.1567  2.1422  1.3556
    6MOL   H122 7131   4.360   3.976   4.249  1.8155  2.5810  1.0334
    6MOL   H123 7132   4.428   3.716   4.393 -1.0684  0.1741  0.6406
    6MOL   H124 7133   4.272   3.765   4.380 -0.3059 -0.4358 -0.0823
    6MOL   H125 7134   4.459   3.694   4.136  0.7354 -1.0341  0.2855
    6MOL   H126 7135   4.341   3.587   4.191  2.9189 -0.6505 -0.6645
    6MOL   H127 7136   4.108   3.753   3.833 -0.7956  1.4655 -0.1288
    6MOL   H128 7137   4.260   3.785   3.761  1.4799 -0.0359  0.3802
    6MOL   H129 7138   4.124   3.968   3.961 -0.3223 -0.6178 -0.1938
    6MOL   H130 7139   4.168   4.010   3.796 -0.4830 -1.9400 -1.3330
    6MOL   H131 7140   4.368   3.964   4.028  0.6974  0.4690 -0.3295
    6MOL   H132 7141   4.317   4.120   3.953  1.1110  0.4800  1.1622
    6MOL   H133 7142   4.405   4.060   3.742  0.2700 -0.1324  0.8551
    6MOL   H134 7143   4.456   3.897   3.800  0.5764  0.0100 -0.8105
    6MOL   H135 7144   4.574   4.124   3.937 -1.3879 -0.8430  0.3446
    6MOL   H136 7145   4.615   3.958   3.948  0.6481 -0.2137 -0.8711
    6MOL   H137 7146   4.681   3.951   3.709 -0.1116  0.0103  0.5724
    6MOL   H138 7147   4.663   4.123   3.701 -1.1755 -0.3805 -0.1799
    6MOL   H139 7148   4.840   3.966   3.913  2.9916  1.3007  1.3042
    6MOL   H140 7149   4.834   4.130   3.909  1.0397 -1.5057  2.3362
    6MOL   H141 7150   4.972   3.925   3.733  1.8947 -0.2559  0.9262
    6MOL   H142 7151   4.934   4.081   3.654  1.0759 -1.2991 -0.6940
    6MOL   O143 7152   5.167   3.999   3.848 -0.0022 -0.2359  0.1661
    6MOL   C144 7153   5.305   4.024   3.882 -0.0724 -1.0407  0.5060
    6MOL   C145 7154   5.389   3.924   3.811  0.4431  0.3291 -0.0361
    6MOL   C146 7155   5.525   3.975   3.762 -0.0385  0.0838 -0.8395
    6MOL   C147 7156   5.626   3.864   3.726 -0.2798 -0.4829 -0.2848
    6MOL   C148 7157   5.712   3.807   3.841  0.0815 -0.0453 -0.0614
    6MOL   C149 7158   5.835   3.733   3.783  0.1020 -0.4408 -0.3859
    6MOL   C150 7159   5.927   3.675   3.894  0.1428 -0.2876  0.1686
    6MOL   C151 7160   6.012   3.562   3.839  0.5466  0.1570  0.0707
    6MOL   C152 7161   6.111   3.499   3.940  0.2744  0.0738  0.1753
    6MOL   C153 7162   6.168   3.370   3.882 -0.4137 -0.2266 -0.0639
    6MOL   O154 7163   6.268   3.377   3.783 -0.2879  0.4627  0.2497
    6MOL   C155 7164   6.394   3.353   3.816  0.4029 -0.5592  0.6794
    6MOL   O156 7165   6.439   3.320   3.922  0.3851  0.5130  0.3356
    6MOL   C157 7166   6.489   3.361   3.698 -0.3610 -1.0806  1.1245
    6MOL   C158 7167   6.523   3.499   3.643 -0.3760 -0.1754 -0.5649
    6MOL   C159 7168   6.428   3.570   3.551  0.1727  0.2897  0.2471
    6MOL   C160 7169   6.488   3.677   3.465  0.5016 -0.9183 -0.1465
    6MOL   C161 7170   6.414   3.814   3.474 -0.0368 -0.7562  0.2290
    6MOL   C162 7171   6.467   3.917   3.369 -0.1036 -0.0179  0.4521
    6MOL   C163 7172   6.616   3.943   3.373 -0.0459  0.3336  0.2462
    6MOL   C164 7173   6.662   4.027   3.252  0.0423 -0.0670 -0.6952
    6MOL   C165 7174   6.817   4.034   3.242  0.0066 -0.1330 -0.1759
    6MOL   O166 7175   6.875   4.131   3.289  0.3180  0.5795 -0.4115
    6MOL   H167 7176   5.335   4.123   3.845 -1.0472 -1.9382 -2.8550
    6MOL   H168 7177   5.321   4.015   3.990  0.9834  0.4219  0.4919
    6MOL   H169 7178   5.387   3.830   3.867 -0.5995 -0.2990 -1.1099
    6MOL   H170 7179   5.338   3.905   3.717 -0.2004 -0.8102  0.5288
    6MOL   H171 7180   5.508   4.034   3.672 -3.2310  1.7675  0.8192
    6MOL   H172 7181   5.562   4.031   3.848 -1.3131 -0.2276 -0.0883
    6MOL   H173 7182   5.571   3.790   3.668 -0.3667 -1.1320  0.6093
    6MOL   H174 7183   5.700   3.902   3.655  0.5744 -1.3316  0.1431
    6MOL   H175 7184   5.646   3.739   3.895  0.9723  0.7971  2.1834
    6MOL   H176 7185   5.736   3.890   3.907 -1.8204  0.6949 -0.2871
    6MOL   H177 7186   5.888   3.805   3.721  0.9008 -1.2307 -0.6105
    6MOL   H178 7187   5.798   3.660   3.712 -1.2158 -0.0264 -0.1469
    6MOL   H179 7188   5.878   3.651   3.988 -0.9907  1.2946  0.0030
    6MOL   H180 7189   5.984   3.766   3.915  0.5614 -1.1391  2.9108
    6MOL   H181 7190   6.073   3.607   3.761 -1.0113  0.5763 -0.9162
    6MOL   H182 7191   5.938   3.489   3.805  0.1295  0.7452 -0.2894
    6MOL   H183 7192   6.194   3.563   3.970 -0.1856  0.1832  1.2248
    6MOL   H184 7193   6.068   3.477   4.037 -0.6860  0.6139 -0.1122
    6MOL   H185 7194   6.206   3.312   3.967  1.7890  2.0999  0.5863
    6MOL   H186 7195   6.085   3.319   3.834 -0.8491  1.8159 -1.5334
    6MOL   H187 7196   6.436   3.311   3.617  0.4585  0.4855 -0.4146
    6MOL   H188 7197   6.579   3.305   3.722  1.4488  1.1718 -0.2001
    6MOL   H189 7198   6.622   3.492   3.599 -1.1727 -1.0269 -2.2555
    6MOL   H190 7199   6.551   3.560   3.730  0.2919  0.6089 -1.3206
    6MOL   H191 7200   6.348   3.605   3.617  0.7222 -1.7280  2.0345
    6MOL   H192 7201   6.387   3.490   3.489  1.4248 -0.7473  0.7481
    6MOL   H193 7202   6.496   3.659   3.358 -1.5106 -0.5587 -0.3640
    6MOL   H194 7203   6.595   3.687   3.486  0.2757  2.1302 -0.2965
    6MOL   H195 7204   6.306   3.805   3.465  0.1174 -2.3778 -0.2956
    6MOL   H196 7205   6.448   3.859   3.567  1.8644  0.0314 -0.8184
    6MOL   H197 7206   6.438   3.879   3.271  0.5510  1.5843 -0.3840
    6MOL   H198 7207   6.412   4.011   3.376 -1.5840 -0.9514  1.5435
    6MOL   H199 7208   6.670   3.849   3.381 -1.0997 -0.3304 -0.2803
    6MOL   H200 7209   6.637   3.996   3.466 -0.1054  0.9517 -0.0907
    6MOL   H201 7210   6.634   3.958   3.173 -1.0231 -0.3675 -0.0739
    6MOL   H202 7211   6.619   4.128   3.252 -2.0622 -0.9206 -2.2584
    6MOL   H203 7212   6.873   3.960   3.186  0.0149  0.3597 -0.8230
    7MOL     O1 7213   4.837   0.105   2.024  0.6243  0.0961  0.2294
    7MOL     C2 7214   4.913   0.205   1.962 -0.3087 -0.6920  0.1064
    7MOL     C3 7215   4.915   0.195   1.811  0.5550  0.0523  0.0660
    7MOL     C4 7216   5.018   0.286   1.733  0.2988  1.0331 -0.3806
    7MOL     C5 7217   5.003   0.438   1.760 -0.1832  0.0358 -0.5327
    7MOL     C6 7218   5.119   0.524   1.719  0.0318  0.0222  0.1286
    7MOL     C7 7219   5.096   0.679   1.735  0.4136  0.5967  0.1975
    7MOL     C8 7220   5.053   0.721   1.875 -0.6294  0.3784  0.3837
    7MOL     C9 7221   5.035   0.873   1.880 -0.0246  0.0935 -0.0171
    7MOL    C10 7222   5.003   0.929   2.016 -0.2467 -0.1762 -0.4262
    7MOL    C11 7223   4.866   0.890   2.070 -0.9768 -0.5299 -0.2783
    7MOL    O12 7224   4.848   0.947   2.199 -0.1539  0.0863  0.0332
    7MOL    C13 7225   4.740   0.919   2.271 -0.1558  0.2996 -0.3798
    7MOL    O14 7226   4.660   0.831   2.253 -0.2030 -0.4647 -0.2060
    7MOL    C15 7227   4.739   1.005   2.398  0.0634 -0.6520 -0.1268
    7MOL    C16 7228   4.607   1.027   2.467  0.4082  0.1802 -0.1635
    7MOL    C17 7229   4.612   1.017   2.626 -0.3653 -0.1498  0.3534
    7MOL    C18 7230   4.487   1.070   2.704 -0.1433  0.4671  0.1621
    7MOL    C19 7231   4.444   1.220   2.698 -0.6722 -0.9578 -0.1094
    7MOL    C20 7232   4.552   1.321   2.750 -1.1628 -0.1399  0.0247
    7MOL    C21 7233   4.508   1.473   2.755 -0.5453 -0.3508  0.3894
    7MOL    C22 7234   4.611   1.558   2.834  0.6115  0.1778 -0.2459
    7MOL    C23 7235   4.589   1.567   2.987  0.3101 -0.2253 -0.3172
    7MOL    O24 7236   4.518   1.492   3.050  0.4515 -0.3565 -0.1040
    7MOL    H25 7237   4.869   0.304   1.974  0.2440 -0.2595 -1.3682
    7MOL    H26 7238   5.017   0.207   1.997 -1.1980  0.1072  2.8120
    7MOL    H27 7239   4.945   0.091   1.798  1.3594  0.4135 -1.0511
    7MOL    H28 7240   4.816   0.217   1.771  0.3854  0.4438  0.7007
    7MOL    H29 7241   5.121   0.251   1.742  0.6158  1.9094 -0.5908
    7MOL    H30 7242   4.996   0.274   1.627  0.3398  2.8954 -0.6218
    7MOL    H31 7243   4.909   0.473   1.718 -0.9176 -0.3544  0.7721
    7MOL    H32 7244   4.981   0.458   1.865 -0.7759 -1.3800 -0.3722
    7MOL    H33 7245   5.128   0.525   1.610 -1.4801 -0.5777 -0.0015
    7MOL    H34 7246   5.210   0.482   1.763 -1.2930 -0.2919  2.6947
    7MOL    H35 7247   5.020   0.713   1.665 -1.8516 -1.3751  1.5927
    7MOL    H36 7248   5.190   0.733   1.718  0.1507  1.1609  0.5205
    7MOL    H37 7249   5.128   0.690   1.948  0.2431  0.8579 -0.3030
    7MOL    H38 7250   4.954   0.679   1.892  0.1303 -1.1511  1.1291
    7MOL    H39 7251   4.959   0.911   1.813  0.5706  0.7058 -0.3533
    7MOL    H40 7252   5.120   0.933   1.847 -0.1414  0.0077 -0.4721
    7MOL    H41 7253   5.065   0.915   2.105 -0.7805 -0.9779 -0.1736
    7MOL    H42 7254   4.995   1.038   2.018  2.3819  0.0428  0.0014
    7MOL    H43 7255   4.790   0.916   1.996  0.2648  0.9049 -1.0872
    7MOL    H44 7256   4.860   0.782   2.088  0.9511 -0.2304  2.4823
    7MOL    H45 7257   4.776   1.107   2.384  1.3326 -0.9974  0.6651
    7MOL    H46 7258   4.806   0.951   2.464  0.5231 -3.3725 -2.6697
    7MOL    H47 7259   4.533   0.956   2.429  0.5462  0.1407 -0.3631
    7MOL    H48 7260   4.572   1.117   2.417  0.2661  0.3644  0.2689
    7MOL    H49 7261   4.693   1.078   2.666 -1.5209  2.5300 -1.2716
    7MOL    H50 7262   4.636   0.915   2.657  3.3694 -0.0554 -1.9333
    7MOL    H51 7263   4.509   1.046   2.807 -0.7897 -1.6683 -0.1676
    7MOL    H52 7264   4.405   1.005   2.672  1.3650 -1.3578 -0.0909
    7MOL    H53 7265   4.436   1.243   2.592  0.3414  1.1146  0.2443
    7MOL    H54 7266   4.349   1.227   2.751 -1.1249 -0.3715 -0.9964
    7MOL    H55 7267   4.575   1.287   2.851  0.6862 -1.3317 -0.7729
    7MOL    H56 7268   4.641   1.311   2.687 -1.4643 -2.7761 -0.0557
    7MOL    H57 7269   4.416   1.487   2.811  0.6534  0.4609  2.2090
    7MOL    H58 7270   4.505   1.517   2.655  0.3970  1.1980  1.0230
    7MOL    H59 7271   4.709   1.511   2.827  1.5601  1.9524  0.8099
    7MOL    H60 7272   4.617   1.662   2.801 -0.0261  0.2919 -0.0168
    7MOL    H61 7273   4.870   0.082   2.110  1.1289  1.7551  0.4811
    7MOL    O62 7274   4.664   1.668   3.040  0.1165  0.5707  0.3490
    7MOL    C63 7275   4.632   1.722   3.163 -0.1777  0.5648  0.0122
    7MOL    C64 7276   4.713   1.849   3.206  0.5640  0.7178 -0.3803
    7MOL    C65 7277   4.679   1.971   3.124 -0.2433 -0.2250 -0.1512
    7MOL    C66 7278   4.762   2.094   3.157  0.0799  0.0635  0.4223
    7MOL    C67 7279   4.729   2.213   3.070 -0.3929  0.3108  0.5751
    7MOL    C68 7280   4.808   2.338   3.103 -0.1380 -0.1990  0.1358
    7MOL    C69 7281   4.739   2.460   3.044 -0.6336 -0.2638 -0.1229
    7MOL    C70 7282   4.815   2.583   3.068  0.1752 -0.2165  0.0298
    7MOL    C71 7283   4.831   2.618   3.217 -0.1956 -0.3565  0.1751
    7MOL    C72 7284   4.914   2.739   3.245  0.5234  0.3801  0.1832
    7MOL    O73 7285   4.896   2.785   3.380  0.4146  0.2957  0.3059
    7MOL    C74 7286   4.967   2.889   3.432 -0.2932 -0.1747  0.0878
    7MOL    O75 7287   5.067   2.933   3.385 -0.3591 -0.3282  0.2747
    7MOL    C76 7288   4.932   2.925   3.572  0.4298  0.5413 -0.1146
    7MOL    C77 7289   4.898   2.809   3.670  0.0302 -0.2095 -0.4153
    7MOL    C78 7290   5.022   2.730   3.720 -0.2016 -0.1787  0.7250
    7MOL    C79 7291   4.993   2.588   3.770 -0.4036 -0.0261 -0.3002
    7MOL    C80 7292   5.117   2.493   3.800 -0.6881 -0.1590  0.7127
    7MOL    C81 7293   5.077   2.345   3.806 -0.2850  0.9941  0.1726
    7MOL    C82 7294   5.189   2.247   3.841 -0.8085 -0.3243  0.7553
    7MOL    C83 7295   5.165   2.096   3.861 -0.3431  0.1149 -0.6582
    7MOL    C84 7296   5.092   2.067   3.993  0.4350  0.2933 -0.1369
    7MOL    O85 7297   5.151   2.022   4.084 -0.1002  0.0269 -0.2215
    7MOL    H86 7298   4.529   1.754   3.178  0.5552  2.1691  1.8445
    7MOL    H87 7299   4.655   1.651   3.242 -2.8162 -0.1699  0.1503
    7MOL    H88 7300   4.687   1.879   3.307 -0.6172 -1.4734 -0.0054
    7MOL    H89 7301   4.818   1.823   3.202  0.3618 -0.5116  1.8040
    7MOL    H90 7302   4.674   1.954   3.016 -2.0516  1.3026 -0.3296
    7MOL    H91 7303   4.578   2.003   3.148  0.1553  0.1517  1.0374
    7MOL    H92 7304   4.753   2.120   3.263  0.3028 -1.6664  0.8786
    7MOL    H93 7305   4.862   2.061   3.130 -0.8633 -1.5914 -1.1889
    7MOL    H94 7306   4.628   2.243   3.096 -0.3467  1.1387 -0.2102
    7MOL    H95 7307   4.729   2.200   2.962 -2.6569  2.2039  0.3095
    7MOL    H96 7308   4.902   2.317   3.052  0.0545  0.4968  0.2028
    7MOL    H97 7309   4.816   2.351   3.211  1.4072 -0.0126  0.0156
    7MOL    H98 7310   4.633   2.467   3.071 -0.3569 -0.0989  0.8977
    7MOL    H99 7311   4.738   2.446   2.935 -0.4490 -1.2073 -0.0064
    7MOL   H100 7312   4.749   2.659   3.028 -0.1865 -0.4474  0.1833
    7MOL   H101 7313   4.913   2.583   3.021  0.1693 -1.5698 -0.0155
    7MOL   H102 7314   4.733   2.642   3.260 -0.2029 -2.6741  1.5251
    7MOL   H103 7315   4.871   2.536   3.277  2.3409  1.9054  1.7159
    7MOL   H104 7316   5.018   2.712   3.227  0.0597  0.2010 -2.4015
    7MOL   H105 7317   4.899   2.822   3.176 -1.8139 -0.5785 -0.5288
    7MOL   H106 7318   4.844   2.986   3.555 -0.8123 -1.6106 -1.5898
    7MOL   H107 7319   5.013   2.984   3.616 -0.8703  1.3895  1.2002
    7MOL   H108 7320   4.824   2.745   3.621 -0.2153  0.3593 -0.7918
    7MOL   H109 7321   4.848   2.840   3.761  1.1676 -1.7105  0.7525
    7MOL   H110 7322   5.076   2.781   3.800 -0.6337  1.4284  0.0091
    7MOL   H111 7323   5.105   2.731   3.649  1.2334  0.2177  2.3600
    7MOL   H112 7324   4.943   2.534   3.690 -0.7236 -0.0676 -0.0763
    7MOL   H113 7325   4.921   2.601   3.851  1.0382  2.4585  0.6300
    7MOL   H114 7326   5.185   2.513   3.717 -0.9323  1.0360  0.7842
    7MOL   H115 7327   5.170   2.512   3.893  1.6933 -0.1087 -0.6220
    7MOL   H116 7328   4.991   2.327   3.871 -1.1360  0.9165 -0.9552
    7MOL   H117 7329   5.041   2.317   3.707  0.6907  0.3089  0.0113
    7MOL   H118 7330   5.230   2.295   3.930 -0.2577 -0.9552  0.8464
    7MOL   H119 7331   5.262   2.269   3.763 -2.6855 -0.0975 -0.9616
    7MOL   H120 7332   5.127   2.044   3.774 -0.0476 -2.3789  0.6672
    7MOL   H121 7333   5.265   2.052   3.862 -0.3566  0.0994 -0.0266
    7MOL   O122 7334   4.960   2.101   3.996  0.4543  0.2066  0.5438
    7MOL   C123 7335   4.877   2.069   4.107 -0.5078  0.2288  0.0907
    7MOL   C124 7336   4.729   2.099   4.077 -0.1185 -0.1226  0.1229
    7MOL   C125 7337   4.634   2.055   4.180 -0.1393 -0.4321 -0.1235
    7MOL   C126 7338   4.490   2.113   4.184 -0.8541 -0.9005  0.0932
    7MOL   C127 7339   4.376   2.031   4.248  0.3198 -0.5029  0.0767
    7MOL   C128 7340   4.243   2.107   4.233  0.1356  0.2969  0.0713
    7MOL   C129 7341   4.124   2.027   4.278  0.6018  0.1048 -0.6863
    7MOL   C130 7342   4.010   2.106   4.312  0.0659  0.0217 -0.0401
    7MOL   C131 7343   3.900   2.007   4.356 -0.4353 -0.7860 -0.4907
    7MOL   C132 7344   3.752   2.059   4.394 -0.4556  0.0453 -0.4447
    7MOL   O133 7345   3.694   2.080   4.271 -0.0351 -0.3230  0.3350
    7MOL   C134 7346   3.614   2.184   4.244 -0.5329  0.3267  0.5609
    7MOL   O135 7347   3.576   2.285   4.310  0.0002 -0.1264 -0.0597
    7MOL   C136 7348   3.555   2.172   4.099  0.6900  0.3324 -0.4277
    7MOL   C137 7349   3.449   2.280   4.072 -0.7100  0.3804 -0.1785
    7MOL   C138 7350   3.412   2.277   3.926  0.4143 -0.0295  0.3463
    7MOL   C139 7351   3.345   2.146   3.878 -0.0594 -0.2657 -0.1547
    7MOL   C140 7352   3.289   2.153   3.739  0.6378 -0.2150 -0.5281
    7MOL   C141 7353   3.233   2.021   3.702  0.2928 -0.4333 -0.4294
    7MOL   C142 7354   3.204   2.012   3.553  0.1964 -0.0964  1.6455
    7MOL   C143 7355   3.153   1.870   3.509  1.0843  0.3331 -0.2328
    7MOL   C144 7356   3.077   1.873   3.377  0.1570  0.7447  0.1698
    7MOL   O145 7357   3.131   1.824   3.277 -0.5014 -0.3818 -0.0448
    7MOL   H146 7358   4.878   1.962   4.125 -2.6242  0.3685  1.2443
    7MOL   H147 7359   4.921   2.127   4.188 -2.3470  0.9841  0.5863
    7MOL   H148 7360   4.724   2.207   4.068 -1.4093 -0.1267  0.7535
    7MOL   H149 7361   4.705   2.052   3.981  0.0963  0.5220 -0.2526
    7MOL   H150 7362   4.624   1.949   4.156  2.1043 -0.5496 -0.7173
    7MOL   H151 7363   4.676   2.065   4.280  0.2648  0.4963 -0.3782
    7MOL   H152 7364   4.474   2.212   4.228 -1.7816  0.1544 -2.4856
    7MOL   H153 7365   4.462   2.128   4.079  0.0130  0.3909  0.0345
    7MOL   H154 7366   4.392   2.005   4.353  1.3432  0.3610  0.1410
    7MOL   H155 7367   4.365   1.933   4.202 -0.1191 -0.6897  0.5759
    7MOL   H156 7368   4.230   2.134   4.129 -1.2751  0.0460  0.1684
    7MOL   H157 7369   4.251   2.203   4.284  1.3311  0.4910 -0.4859
    7MOL   H158 7370   4.143   1.968   4.368  0.0263  1.0310  0.0547
    7MOL   H159 7371   4.093   1.960   4.199  1.4274  0.0761 -0.9894
    7MOL   H160 7372   3.970   2.162   4.227 -2.1465 -1.1565  0.1985
    7MOL   H161 7373   4.026   2.185   4.386  1.9805 -0.4727  0.0812
    7MOL   H162 7374   3.877   1.932   4.280 -1.2638 -0.8448 -0.1856
    7MOL   H163 7375   3.938   1.956   4.445  2.0635  1.5853 -0.1395
    7MOL   H164 7376   3.692   1.998   4.461  0.4887 -0.1527  0.2235
    7MOL   H165 7377   3.758   2.151   4.453  0.7261  0.0376 -0.5293
    7MOL   H166 7378   3.502   2.079   4.080  0.6570  0.4095 -0.7262
    7MOL   H167 7379   3.643   2.167   4.035  2.3211 -4.1253  1.9493
    7MOL   H168 7380   3.500   2.377   4.079  2.2303 -1.0741 -0.7332
    7MOL   H169 7381   3.365   2.276   4.141  1.0370 -2.3646  1.8769
    7MOL   H170 7382   3.502   2.294   3.867 -0.3972  0.6302 -0.7176
    7MOL   H171 7383   3.345   2.360   3.905  0.7627  1.0193  3.1167
    7MOL   H172 7384   3.255   2.124   3.934 -0.5998 -1.5283 -1.4706
    7MOL   H173 7385   3.400   2.052   3.889  1.2028  0.5808  0.8826
    7MOL   H174 7386   3.211   2.228   3.726  1.4559  0.7446  0.0669
    7MOL   H175 7387   3.370   2.181   3.672 -0.4500 -0.3691 -1.9459
    7MOL   H176 7388   3.314   1.949   3.715  2.1261  1.7622  0.8669
    7MOL   H177 7389   3.145   1.995   3.761  0.4264  0.4491  0.1775
    7MOL   H178 7390   3.298   2.037   3.504  0.8559 -0.6199  2.6256
    7MOL   H179 7391   3.149   2.098   3.516  2.5214  0.9678  0.5841
    7MOL   H180 7392   3.220   1.785   3.513  0.1076 -0.5519 -2.1525
    7MOL   H181 7393   3.087   1.842   3.592  1.7454  1.1951  0.5982
    7MOL   O182 7394   2.954   1.932   3.382 -0.1173 -0.9206  0.2498
    7MOL   C183 7395   2.879   1.948   3.261 -0.5665  0.2167 -0.1418
    7MOL   C184 7396   2.733   1.981   3.279  0.1856 -0.8227 -0.0152
    7MOL   C185 7397   2.722   2.135   3.321  0.2514  0.2955 -0.3006
    7MOL   C186 7398   2.578   2.181   3.314 -0.3600  0.4826 -0.0534
    7MOL   C187 7399   2.572   2.325   3.370 -0.3554  0.7716  0.3601
    7MOL   C188 7400   2.439   2.395   3.366 -0.1905  0.0654  0.2188
    7MOL   C189 7401   2.388   2.443   3.232 -0.6405  0.3440  0.2219
    7MOL   C190 7402   2.252   2.506   3.244 -0.4695  0.6510 -0.5798
    7MOL   C191 7403   2.213   2.587   3.119  0.0579  0.5867  0.4182
    7MOL   C192 7404   2.089   2.662   3.134  0.1043 -0.5810 -0.1202
    7MOL   O193 7405   2.109   2.765   3.222 -0.3566 -0.0017 -0.1547
    7MOL   C194 7406   2.004   2.835   3.262  0.9369 -0.6388 -0.6685
    7MOL   O195 7407   1.884   2.810   3.241 -0.0100 -0.2375  0.3875
    7MOL   C196 7408   2.041   2.937   3.370 -0.1244  0.0474  0.2860
    7MOL   C197 7409   2.137   3.047   3.332  0.1457  0.1827 -0.0699
    7MOL   C198 7410   2.102   3.119   3.199 -0.2246  0.3164  0.4890
    7MOL   C199 7411   2.183   3.250   3.181 -0.3009 -0.3115  0.2947
    7MOL   C200 7412   2.165   3.339   3.052  0.6050 -0.3890 -0.0892
    7MOL   C201 7413   2.019   3.400   3.048 -0.4488  0.4428 -0.0987
    7MOL   C202 7414   1.961   3.432   2.908 -0.1073  0.3988  0.8731
    7MOL   C203 7415   1.810   3.434   2.890  0.0896  0.0584 -0.0861
    7MOL   C204 7416   1.739   3.300   2.925 -0.2587 -0.5131  0.0166
    7MOL   O205 7417   1.633   3.308   2.992 -0.1502 -0.0797  0.8706
    7MOL   H206 7418   2.934   2.016   3.196 -0.9007  0.5548 -0.0736
    7MOL   H207 7419   2.884   1.852   3.211  1.5966  0.8770 -1.2538
    7MOL   H208 7420   2.680   1.961   3.186 -0.8446  1.2217  0.1040
    7MOL   H209 7421   2.682   1.923   3.356 -0.9614 -1.3611 -1.1517
    7MOL   H210 7422   2.771   2.143   3.418  0.2240 -0.0732 -0.2557
    7MOL   H211 7423   2.781   2.194   3.251 -1.5242  2.7787  0.2330
    7MOL   H212 7424   2.554   2.189   3.208 -0.4632  2.2140  0.0783
    7MOL   H213 7425   2.504   2.119   3.364  0.1070  0.8481  1.0948
    7MOL   H214 7426   2.635   2.391   3.311 -0.5341  0.0340 -0.6598
    7MOL   H215 7427   2.593   2.311   3.476  0.6564 -0.4349  0.0068
    7MOL   H216 7428   2.446   2.468   3.446  0.4496 -0.0715  0.2922
    7MOL   H217 7429   2.359   2.329   3.398  0.5268 -1.3002 -0.7295
    7MOL   H218 7430   2.370   2.360   3.163 -1.7773  2.8724 -2.6515
    7MOL   H219 7431   2.449   2.518   3.181 -0.5347  1.3944  1.8861
    7MOL   H220 7432   2.253   2.575   3.328  0.3867 -1.6530  1.3659
    7MOL   H221 7433   2.179   2.429   3.271  0.7960 -1.4247 -2.8509
    7MOL   H222 7434   2.289   2.660   3.092 -0.7562  0.9036 -1.0763
    7MOL   H223 7435   2.201   2.515   3.038  0.3791  0.0457  0.8474
    7MOL   H224 7436   2.056   2.702   3.039  2.7952  3.0992  0.4101
    7MOL   H225 7437   2.008   2.598   3.169  0.6029 -1.3084 -0.2932
    7MOL   H226 7438   2.083   2.880   3.453 -0.1105 -0.4200 -0.0382
    7MOL   H227 7439   1.945   2.982   3.395 -0.2144 -1.0669  1.9921
    7MOL   H228 7440   2.236   3.001   3.332  2.0038  4.0557  0.3122
    7MOL   H229 7441   2.156   3.116   3.414  2.0022 -1.1758  0.6692
    7MOL   H230 7442   1.995   3.140   3.186  0.0433  0.3282 -1.8767
    7MOL   H231 7443   2.135   3.049   3.123  0.1621  0.4308  0.5541
    7MOL   H232 7444   2.290   3.237   3.200 -0.3145 -1.0740 -0.1548
    7MOL   H233 7445   2.145   3.316   3.259 -0.7082 -1.2493  0.9038
    7MOL   H234 7446   2.228   3.427   3.044  0.1990  0.2396  2.8888
    7MOL   H235 7447   2.180   3.277   2.964 -0.0259  0.3048 -0.6856
    7MOL   H236 7448   1.956   3.316   3.078  1.9695 -1.0528  0.9456
    7MOL   H237 7449   1.993   3.482   3.115 -0.4902 -0.4367  0.9770
    7MOL   H238 7450   1.991   3.359   2.832 -0.0880 -1.2240  2.3922
    7MOL   H239 7451   1.997   3.529   2.873  2.4094 -0.2277  1.6054
    7MOL   H240 7452   1.773   3.500   2.968 -0.7262  1.3215 -1.5224
    7MOL   H241 7453   1.778   3.466   2.791 -1.6963 -0.1750  0.4036
    7MOL   O242 7454   1.808   3.204   2.884 -0.0928 -0.5497 -0.2012
    7MOL   C243 7455   1.772   3.076   2.931  0.0423  0.2227  0.4910
    7MOL   C244 7456   1.839   2.966   2.843 -0.1730 -0.2805  0.2754
    7MOL   C245 7457   1.831   2.820   2.883 -0.2307 -0.6758 -0.5233
    7MOL   C246 7458   1.892   2.725   2.793  0.8048 -0.1815  0.0306
    7MOL   C247 7459   1.869   2.573   2.828  0.3638 -0.0383  0.0194
    7MOL   C248 7460   1.975   2.471   2.773  0.2108 -0.2232 -0.0696
    7MOL   C249 7461   1.933   2.326   2.777 -0.0404  0.0191  0.8975
    7MOL   C250 7462   2.043   2.244   2.714 -0.1573 -0.0488  0.4155
    7MOL   C251 7463   2.164   2.214   2.810 -0.3837  0.8435 -0.0819
    7MOL   C252 7464   2.284   2.146   2.724  0.5139 -0.0645 -0.2300
    7MOL   O253 7465   2.380   2.095   2.812 -0.0160  0.0944 -0.2803
    7MOL   C254 7466   2.496   2.051   2.755  0.7386  0.4594 -0.4614
    7MOL   O255 7467   2.532   2.064   2.640  0.0412  0.3841 -0.0389
    7MOL   C256 7468   2.580   1.972   2.854 -0.1557 -0.7132 -0.2104
    7MOL   C257 7469   2.699   1.904   2.789  0.5977  0.3495 -0.8101
    7MOL   C258 7470   2.771   1.812   2.890 -0.4926 -0.1774 -0.0093
    7MOL   C259 7471   2.869   1.706   2.827 -0.1808  0.6220  0.1180
    7MOL   C260 7472   2.928   1.618   2.932  0.0486 -0.2590 -0.4376
    7MOL   C261 7473   3.064   1.572   2.905 -0.3514  0.9135  0.1747
    7MOL   C262 7474   3.137   1.508   3.030 -0.4479 -0.2106  0.3180
    7MOL   C263 7475   3.273   1.439   3.001 -0.7444 -0.4726 -0.1478
    7MOL   C264 7476   3.255   1.324   2.899  0.4146 -0.1128  0.0569
    7MOL   O265 7477   3.208   1.216   2.935  0.2216  0.7768 -0.8091
    7MOL   H266 7478   1.796   3.059   3.036  2.5167 -1.1946 -0.2705
    7MOL   H267 7479   1.664   3.061   2.922  0.1475 -0.2697  0.0372
    7MOL   H268 7480   1.799   2.985   2.743  1.0349 -0.4246 -0.2462
    7MOL   H269 7481   1.947   2.980   2.842 -0.0546 -1.1140 -1.6323
    7MOL   H270 7482   1.881   2.814   2.980 -1.0038  0.7258 -0.0228
    7MOL   H271 7483   1.728   2.792   2.903 -0.6458  0.7163 -0.6639
    7MOL   H272 7484   1.866   2.752   2.691  2.2427  0.2388 -0.2435
    7MOL   H273 7485   1.998   2.748   2.800  0.5128  1.5651 -1.0498
    7MOL   H274 7486   1.763   2.549   2.823  0.4938 -0.7525  0.5509
    7MOL   H275 7487   1.885   2.558   2.935 -1.0461 -2.8302 -0.1211
    7MOL   H276 7488   2.073   2.495   2.814 -1.3330  3.3928  1.8121
    7MOL   H277 7489   1.991   2.502   2.670 -0.2178  1.1728  0.2565
    7MOL   H278 7490   1.855   2.302   2.704  2.2166 -2.1131 -0.8804
    7MOL   H279 7491   1.906   2.290   2.876  2.6899 -1.9297  0.9913
    7MOL   H280 7492   2.081   2.299   2.627  0.4937  2.0767  2.0110
    7MOL   H281 7493   2.001   2.152   2.674  1.5594 -1.6855  2.3200
    7MOL   H282 7494   2.205   2.307   2.848  1.6108 -0.8179  1.9261
    7MOL   H283 7495   2.134   2.157   2.898 -0.0050  1.5196  0.4892
    7MOL   H284 7496   2.264   2.062   2.656  2.0404 -0.8790  0.3001
    7MOL   H285 7497   2.337   2.214   2.658 -0.7704  0.5688 -0.6192
    7MOL   H286 7498   2.517   1.887   2.879  2.3176 -2.3587  0.6614
    7MOL   H287 7499   2.604   2.041   2.935  1.6962 -0.3857 -1.0079
    7MOL   H288 7500   2.771   1.980   2.758  0.6704  1.3060  1.5709
    7MOL   H289 7501   2.674   1.851   2.697 -1.1792  0.7259 -0.5660
    7MOL   H290 7502   2.703   1.741   2.938 -1.3718 -0.8353 -2.1565
    7MOL   H291 7503   2.828   1.872   2.960  0.5611 -0.4838 -0.5973
    7MOL   H292 7504   2.948   1.764   2.779  0.9307  0.2121  1.4318
    7MOL   H293 7505   2.820   1.651   2.747 -0.8008 -0.5624  1.3109
    7MOL   H294 7506   2.933   1.684   3.019 -1.4232  1.7401 -1.8393
    7MOL   H295 7507   2.872   1.527   2.956  2.5442 -1.9837 -0.9344
    7MOL   H296 7508   3.061   1.495   2.828 -1.4284  0.7510  0.3664
    7MOL   H297 7509   3.128   1.653   2.870  0.8067 -0.4970 -1.0476
    7MOL   H298 7510   3.079   1.433   3.083 -1.2483 -1.0788 -1.7384
    7MOL   H299 7511   3.153   1.588   3.102 -5.5950  0.0999  1.2756
    7MOL   H300 7512   3.339   1.517   2.963 -2.4417  0.5625 -1.0663
    7MOL   H301 7513   3.332   1.394   3.081  1.0722 -1.0828 -1.7955
    7MOL   O302 7514   3.305   1.346   2.777  0.3386 -0.1987 -0.1234
    7MOL   C303 7515   3.267   1.263   2.666  0.1438  0.2820  0.1082
    7MOL   C304 7516   3.256   1.347   2.541  0.2090  0.2037  0.3282
    7MOL   C305 7517   3.153   1.459   2.559 -0.4517  0.1735 -0.1452
    7MOL   C306 7518   3.148   1.547   2.436  0.5591  0.4050  0.6302
    7MOL   C307 7519   3.014   1.621   2.415 -0.4904 -0.4429  0.3721
    7MOL   C308 7520   3.025   1.767   2.465  0.3363  0.3289  0.4051
    7MOL   C309 7521   2.908   1.858   2.421 -0.2678  0.0154  0.1111
    7MOL   C310 7522   2.925   2.008   2.432 -0.2299 -0.0909  0.2782
    7MOL   C311 7523   2.796   2.088   2.401  0.2326 -0.3548  0.1801
    7MOL   C312 7524   2.813   2.237   2.392  0.7108 -0.4640  0.1612
    7MOL   O313 7525   2.680   2.292   2.377  0.4414  0.2202  0.1455
    7MOL   C314 7526   2.668   2.425   2.371  0.2409  0.8896  0.4682
    7MOL   O315 7527   2.753   2.508   2.403 -0.1519  0.1149  0.1563
    7MOL   C316 7528   2.527   2.468   2.340 -0.2258 -0.4194  0.0111
    7MOL   C317 7529   2.417   2.377   2.398  0.0164 -0.6276  0.4130
    7MOL   C318 7530   2.376   2.279   2.286  0.2053 -0.0434  0.7953
    7MOL   C319 7531   2.251   2.190   2.329 -0.6400 -0.4641 -0.5265
    7MOL   C320 7532   2.125   2.279   2.332 -0.5077  0.8815  0.2485
    7MOL   C321 7533   2.007   2.188   2.358 -0.7364  0.1056  0.2464
    7MOL   C322 7534   1.873   2.261   2.396 -0.7082  0.4059 -0.4299
    7MOL   C323 7535   1.750   2.166   2.399 -0.7108  0.1610 -0.2138
    7MOL   C324 7536   1.615   2.244   2.410 -0.4298  0.2099 -0.0076
    7MOL   O325 7537   1.516   2.197   2.354 -0.1156  0.3263 -0.3923
    7MOL   H326 7538   3.335   1.178   2.653 -0.1548 -0.2053  1.6069
    7MOL   H327 7539   3.169   1.219   2.684  0.8769 -1.0529  0.9209
    7MOL   H328 7540   3.350   1.386   2.503 -0.4189 -0.3967 -1.9102
    7MOL   H329 7541   3.214   1.289   2.459  1.2521  0.6754 -0.5509
    7MOL   H330 7542   3.055   1.420   2.586 -0.2941 -0.3753 -0.3632
    7MOL   H331 7543   3.167   1.515   2.652 -1.7274  0.7284 -0.2737
    7MOL   H332 7544   3.229   1.620   2.439 -1.2965  2.6099 -1.2552
    7MOL   H333 7545   3.156   1.482   2.348  1.0274  1.4122 -0.0731
    7MOL   H334 7546   2.933   1.576   2.474  0.6941 -0.9870  1.6110
    7MOL   H335 7547   2.998   1.627   2.308  0.5313  1.0335  0.2918
    7MOL   H336 7548   3.113   1.824   2.434  0.2933 -0.4262 -1.1636
    7MOL   H337 7549   3.025   1.765   2.574  0.6292 -0.8934  0.3890
    7MOL   H338 7550   2.822   1.826   2.480 -0.1212 -0.0337  0.3000
    7MOL   H339 7551   2.885   1.830   2.318  1.0652  1.9459 -0.7354
    7MOL   H340 7552   3.014   2.043   2.380  1.0543 -0.3338  2.2602
    7MOL   H341 7553   2.953   2.032   2.534 -0.2953 -1.0030  0.5135
    7MOL   H342 7554   2.764   2.071   2.298  1.7936 -2.2355 -0.0141
    7MOL   H343 7555   2.712   2.069   2.468  0.8048 -1.3422  0.6243
    7MOL   H344 7556   2.869   2.264   2.482  0.1790 -0.0118  0.3537
    7MOL   H345 7557   2.882   2.256   2.309  0.2026 -2.5084 -0.7800
    7MOL   H346 7558   2.523   2.474   2.231  1.6652 -1.1252 -0.1120
    7MOL   H347 7559   2.527   2.558   2.401 -0.2544 -1.5253  1.6503
    7MOL   H348 7560   2.328   2.431   2.431  0.7600 -0.5895  2.4568
    7MOL   H349 7561   2.451   2.325   2.488 -1.0020 -0.9700  0.6087
    7MOL   H350 7562   2.460   2.221   2.248  1.4090  2.5125 -0.5706
    7MOL   H351 7563   2.342   2.339   2.201  0.0019  0.2448  1.0816
    7MOL   H352 7564   2.286   2.139   2.419 -0.1167  0.7738 -0.0071
    7MOL   H353 7565   2.248   2.114   2.251 -0.3420  0.7508 -1.7474
    7MOL   H354 7566   2.147   2.349   2.413  0.7540  2.9229 -1.7794
    7MOL   H355 7567   2.116   2.317   2.230 -0.7934  0.5498  0.1502
    7MOL   H356 7568   1.980   2.154   2.258  1.3776 -1.1090  0.0610
    7MOL   H357 7569   2.028   2.101   2.420 -0.0303 -0.4176 -0.7266
    7MOL   H358 7570   1.858   2.333   2.315 -1.7900 -1.0277 -1.5318
    7MOL   H359 7571   1.877   2.325   2.484  2.8501 -2.9758  1.9870
    7MOL   H360 7572   1.741   2.114   2.303 -1.5639 -1.4155  0.7014
    7MOL   H361 7573   1.767   2.088   2.473 -2.0628  1.4673  1.4997
    7MOL   O362 7574   1.619   2.360   2.486  0.1348 -0.2933  0.5082
    7MOL   C363 7575   1.497   2.429   2.510 -0.2094 -0.2237 -0.0300
    7MOL   C364 7576   1.501   2.509   2.643 -1.1038 -0.0695  0.1491
    7MOL   C365 7577   1.504   2.407   2.760  0.2854 -0.5288  0.4751
    7MOL   C366 7578   1.471   2.463   2.892  0.3154 -0.7531 -0.2080
    7MOL   C367 7579   1.490   2.357   3.001  0.0237 -0.3849 -0.1591
    7MOL   C368 7580   1.476   2.392   3.144 -0.6957  0.6406 -0.1585
    7MOL   C369 7581   1.607   2.443   3.195 -0.1819 -0.7406 -0.9005
    7MOL   C370 7582   1.609   2.476   3.342  0.5716  0.1335 -0.6245
    7MOL   C371 7583   1.739   2.533   3.390  0.4566  0.0835 -0.2286
    7MOL   C372 7584   1.716   2.605   3.526 -0.5709  0.4941  0.2513
    7MOL   O373 7585   1.833   2.591   3.603  0.1657  0.0711 -0.4575
    7MOL   C374 7586   1.906   2.704   3.633 -0.4198 -0.1734 -0.5177
    7MOL   O375 7587   1.875   2.819   3.605 -0.2654  0.2869 -0.0985
    7MOL   C376 7588   2.026   2.671   3.722  0.0537 -0.0072 -0.3282
    7MOL   C377 7589   2.098   2.542   3.687 -0.2462 -0.4544  0.3539
    7MOL   C378 7590   2.202   2.507   3.788 -0.0227 -0.2520 -0.2683
    7MOL   C379 7591   2.282   2.385   3.744 -0.4748 -0.8106 -0.8347
    7MOL   C380 7592   2.210   2.251   3.772  0.6685 -0.1676  0.4259
    7MOL   C381 7593   2.301   2.136   3.737 -0.4233  0.3912  0.2549
    7MOL   C382 7594   2.228   2.003   3.712 -0.0195  0.5908  0.0648
    7MOL   C383 7595   2.305   1.911   3.617  0.7038  0.6488  0.1468
    7MOL   C384 7596   2.435   1.868   3.676 -0.4622  0.3233 -0.3965
    7MOL   O385 7597   2.434   1.786   3.765 -0.0515 -0.2365  0.2206
    7MOL   H386 7598   1.495   2.507   2.433 -0.5115 -0.1560  0.0463
    7MOL   H387 7599   1.407   2.370   2.497  0.0300 -0.8926  1.3034
    7MOL   H388 7600   1.593   2.567   2.638  0.5054 -2.5559  0.0659
    7MOL   H389 7601   1.419   2.581   2.646 -1.2478 -0.2375  0.1925
    7MOL   H390 7602   1.425   2.337   2.731  1.6137 -0.9804 -2.2503
    7MOL   H391 7603   1.606   2.369   2.764  0.6082  0.4100  1.1801
    7MOL   H392 7604   1.547   2.541   2.901 -1.4616  1.0386 -0.4446
    7MOL   H393 7605   1.371   2.503   2.881 -0.0800 -1.0684  2.0554
    7MOL   H394 7606   1.575   2.292   2.980 -0.2601 -0.1210 -2.2316
    7MOL   H395 7607   1.415   2.284   2.973 -1.1597  0.9232 -0.4195
    7MOL   H396 7608   1.445   2.309   3.208  2.3258 -0.3280  0.1319
    7MOL   H397 7609   1.398   2.467   3.153  0.0808  1.2846  1.3841
    7MOL   H398 7610   1.629   2.537   3.145 -0.7676  0.5502  1.2094
    7MOL   H399 7611   1.688   2.378   3.162  0.6533 -0.0152 -0.3204
    7MOL   H400 7612   1.576   2.383   3.390 -0.9357 -0.4838 -2.7839
    7MOL   H401 7613   1.525   2.544   3.359 -1.1611 -2.4820  1.8159
    7MOL   H402 7614   1.816   2.458   3.408 -0.0004  0.2957  3.0063
    7MOL   H403 7615   1.779   2.605   3.319  4.0471 -1.5635 -0.0049
    7MOL   H404 7616   1.679   2.705   3.506 -1.2740 -0.4395 -3.3999
    7MOL   H405 7617   1.648   2.553   3.594  0.4462 -1.3152 -0.0835
    7MOL   H406 7618   2.012   2.673   3.830 -0.7135  0.4872 -0.4366
    7MOL   H407 7619   2.104   2.744   3.701  1.7384 -1.5595  0.4256
    7MOL   H408 7620   2.143   2.542   3.588 -1.3962 -2.4976 -0.2024
    7MOL   H409 7621   2.024   2.462   3.686 -0.0739 -0.6134 -0.4221
    7MOL   H410 7622   2.162   2.504   3.889  0.5348  2.5643  0.0823
    7MOL   H411 7623   2.268   2.593   3.773  0.5226 -0.2662  1.9682
    7MOL   H412 7624   2.369   2.389   3.810 -0.0377  1.3471 -1.4791
    7MOL   H413 7625   2.305   2.385   3.638 -1.3816  1.1178 -1.0637
    7MOL   H414 7626   2.185   2.239   3.878  0.2701  1.3547  0.5219
    7MOL   H415 7627   2.118   2.247   3.715  1.4011  2.9384 -1.1209
    7MOL   H416 7628   2.354   2.165   3.647  1.5730 -1.5460  0.7599
    7MOL   H417 7629   2.384   2.130   3.809  0.1654  0.1598 -0.4411
    7MOL   H418 7630   2.128   2.021   3.671  0.1029  1.7489  0.2708
    7MOL   H419 7631   2.208   1.945   3.802  0.8297  0.3495  0.1030
    7MOL   H420 7632   2.244   1.822   3.601  2.6899 -1.0336  1.5272
    7MOL   H421 7633   2.312   1.971   3.527  0.7603 -0.7329 -0.7757
    7MOL   O422 7634   2.537   1.936   3.619  0.4658 -0.1358 -0.2859
    7MOL   C423 7635   2.672   1.912   3.662  0.1593 -0.4657 -0.5386
    7MOL   C424 7636   2.733   2.039   3.739 -0.4962  0.3531  0.7876
    7MOL   C425 7637   2.852   2.000   3.834  0.4035 -0.5098 -0.0247
    7MOL   C426 7638   2.880   2.115   3.937 -0.0115 -0.1763  0.0619
    7MOL   C427 7639   2.985   2.069   4.040 -0.1649 -0.3369 -0.3820
    7MOL   C428 7640   3.029   2.188   4.137  1.4166 -0.0293 -0.0022
    7MOL   C429 7641   3.124   2.139   4.253 -0.6710  0.7812 -0.1709
    7MOL   C430 7642   3.160   2.248   4.364  0.0699  0.6346 -0.5010
    7MOL   C431 7643   3.279   2.198   4.448  1.1931  0.1815 -0.2713
    7MOL   C432 7644   3.324   2.303   4.556  0.3375 -0.1182 -0.8365
    7MOL   O433 7645   3.212   2.332   4.641  0.1392 -0.3095 -0.2176
    7MOL   C434 7646   3.190   2.259   4.749 -0.4637  0.5872  0.7638
    7MOL   O435 7647   3.268   2.173   4.798  0.1823  0.2311  0.4122
    7MOL   C436 7648   3.053   2.282   4.802 -0.1773 -0.2220 -0.5622
    7MOL   C437 7649   2.949   2.288   4.689  0.6291 -0.2011  0.0205
    7MOL   C438 7650   2.910   2.149   4.627 -0.7537  0.0438 -0.3713
    7MOL   C439 7651   2.804   2.177   4.517 -0.3661 -0.1523  0.0196
    7MOL   C440 7652   2.778   2.051   4.442 -0.1519  0.1794  0.4444
    7MOL   C441 7653   2.671   2.092   4.335 -0.6099 -0.1831  0.0830
    7MOL   C442 7654   2.640   1.978   4.233 -0.4921  0.6171  0.1925
    7MOL   C443 7655   2.563   2.016   4.100 -0.7496 -0.0547  0.5883
    7MOL   C444 7656   2.411   2.062   4.123  0.1884 -0.4454 -0.1152
    7MOL   O445 7657   2.315   1.991   4.095 -0.0986 -0.1386  0.0647
    7MOL   H446 7658   2.672   1.824   3.726  1.8408  0.5571  0.9199
    7MOL   H447 7659   2.734   1.873   3.582  1.6564  0.1744  0.2809
    7MOL   H448 7660   2.756   2.120   3.669  0.0717  0.3240  0.9377
    7MOL   H449 7661   2.655   2.086   3.798  0.8481  1.6977  1.5372
    7MOL   H450 7662   2.822   1.918   3.900  0.0963 -1.2024 -1.0160
    7MOL   H451 7663   2.941   1.974   3.778  1.9187 -1.1711  2.6174
    7MOL   H452 7664   2.916   2.206   3.889 -0.8986 -0.2237 -0.6894
    7MOL   H453 7665   2.786   2.126   3.990  0.1933  1.5998  0.1018
    7MOL   H454 7666   3.072   2.031   3.987  3.2133  2.4283  2.8807
    7MOL   H455 7667   2.954   1.985   4.101  1.3042  1.1932  2.5844
    7MOL   H456 7668   2.940   2.223   4.190  1.2735 -0.8239  0.2922
    7MOL   H457 7669   3.049   2.283   4.087  0.7958  0.2627  0.2975
    7MOL   H458 7670   3.214   2.100   4.205 -1.5715 -0.7585 -0.6429
    7MOL   H459 7671   3.069   2.060   4.304 -1.1431  1.2947  0.1180
    7MOL   H460 7672   3.074   2.279   4.424 -1.0377 -0.7730 -1.3415
    7MOL   H461 7673   3.184   2.349   4.330 -1.6417  1.4299  0.5944
    7MOL   H462 7674   3.242   2.106   4.493  1.2249 -0.4735 -1.5490
    7MOL   H463 7675   3.361   2.163   4.385  0.5614 -1.3675 -0.2392
    7MOL   H464 7676   3.420   2.273   4.598 -0.2971 -2.0628 -0.7318
    7MOL   H465 7677   3.347   2.394   4.501  2.5800 -0.9358 -1.2947
    7MOL   H466 7678   3.041   2.371   4.863 -1.1648 -0.8614  0.1832
    7MOL   H467 7679   3.020   2.205   4.872  1.5041 -0.2706  0.1984
    7MOL   H468 7680   2.980   2.357   4.611  0.2350 -1.0494 -0.8847
    7MOL   H469 7681   2.862   2.335   4.735 -0.5732 -4.2302  2.0909
    7MOL   H470 7682   2.859   2.081   4.696 -0.6820 -1.4622 -1.7633
    7MOL   H471 7683   2.993   2.088   4.592  0.1167  0.5339  0.7814
    7MOL   H472 7684   2.836   2.261   4.455 -1.7056  0.5910  0.3264
    7MOL   H473 7685   2.716   2.209   4.572 -0.9212 -2.3235  0.4307
    7MOL   H474 7686   2.864   2.013   4.387 -0.1791  0.5771  0.1262
    7MOL   H475 7687   2.730   1.976   4.504  0.5826  0.5812  1.5268
    7MOL   H476 7688   2.582   2.119   4.393 -0.2252  0.3149  0.4425
    7MOL   H477 7689   2.712   2.172   4.274  0.6564  0.0747  1.2547
    7MOL   H478 7690   2.591   1.893   4.280  0.7509 -0.4174 -0.3624
    7MOL   H479 7691   2.740   1.943   4.211 -1.1520 -1.1459 -0.0305
    7MOL   H480 7692   2.610   2.103   4.053  0.4825 -0.9530  0.1197
    7MOL   H481 7693   2.568   1.938   4.025  0.8845  0.6928 -0.1077
    7MOL   O482 7694   2.399   2.186   4.166  0.4726  0.2854 -0.2971
    7MOL   C483 7695   2.270   2.244   4.178  0.1459  0.0766  0.3219
    7MOL   C484 7696   2.253   2.297   4.323 -0.3022  0.0930 -0.3809
    7MOL   C485 7697   2.374   2.400   4.367  0.3572 -0.2401 -0.1291
    7MOL   C486 7698   2.348   2.472   4.507  0.5779  0.2664  0.6259
    7MOL   C487 7699   2.474   2.513   4.580  0.0369  0.1644  0.7235
    7MOL   C488 7700   2.445   2.561   4.721  0.1910 -0.2471  0.6412
    7MOL   C489 7701   2.570   2.606   4.799  0.6652 -0.3162 -0.5348
    7MOL   C490 7702   2.533   2.637   4.940 -0.5644 -0.7847 -0.3127
    7MOL   C491 7703   2.652   2.689   5.018 -0.1844 -0.2397 -0.2494
    7MOL   C492 7704   2.627   2.778   5.138  0.1241 -0.2459  0.3228
    7MOL   O493 7705   2.747   2.826   5.188  0.4987 -0.0508  0.7266
    7MOL   C494 7706   2.747   2.889   5.304 -0.3379  0.1555  0.3543
    7MOL   O495 7707   2.651   2.908   5.380 -0.6424  0.1652  0.5761
    7MOL   C496 7708   2.878   2.946   5.354  0.1747  0.0469  0.3836
    7MOL   C497 7709   2.982   2.976   5.245 -0.6388 -0.9374  0.1237
    7MOL   C498 7710   2.948   3.090   5.157 -1.1966 -0.4079  0.6404
    7MOL   C499 7711   3.054   3.110   5.045  0.1931  0.7224 -0.3423
    7MOL   C500 7712   3.021   3.209   4.933 -0.0026  0.0108  0.3873
    7MOL   C501 7713   3.115   3.221   4.816 -0.1190  0.6585 -0.5645
    7MOL   C502 7714   3.256   3.250   4.858  0.6655 -0.0264  0.0867
    7MOL   C503 7715   3.346   3.307   4.745  0.9320  0.5383 -0.5963
    7MOL   C504 7716   3.328   3.456   4.712  0.2568  0.0004 -0.4261
    7MOL   O505 7717   3.251   3.528   4.774 -0.6673 -0.2937  0.2385
    7MOL   H506 7718   2.273   2.320   4.100  2.1899  1.0472  1.2954
    7MOL   H507 7719   2.195   2.171   4.150 -1.2183  0.7624  2.0901
    7MOL   H508 7720   2.149   2.329   4.322  0.0303  1.1607 -0.8509
    7MOL   H509 7721   2.268   2.216   4.395  0.3866 -0.3466 -1.0041
    7MOL   H510 7722   2.458   2.332   4.382  1.8202  1.6524  0.3512
    7MOL   H511 7723   2.388   2.465   4.281  3.5023  1.5495  1.6852
    7MOL   H512 7724   2.276   2.550   4.481  0.7954 -0.2296 -1.6113
    7MOL   H513 7725   2.294   2.410   4.579  0.7125  2.1967  2.4075
    7MOL   H514 7726   2.542   2.575   4.522  0.6401  0.1401  1.4098
    7MOL   H515 7727   2.538   2.425   4.588 -0.6853 -0.7381 -2.5054
    7MOL   H516 7728   2.389   2.478   4.765  0.0985 -0.6536 -0.2126
    7MOL   H517 7729   2.371   2.640   4.720  1.7407  1.2287 -0.3796
    7MOL   H518 7730   2.626   2.686   4.749 -0.9676  1.3556  0.2621
    7MOL   H519 7731   2.638   2.521   4.800 -0.9809 -1.6775  1.7900
    7MOL   H520 7732   2.507   2.539   4.981  1.7763 -1.7508 -1.0604
    7MOL   H521 7733   2.452   2.709   4.952 -1.3134 -1.6353 -0.2209
    7MOL   H522 7734   2.729   2.617   5.045  0.1870 -0.1143 -0.9622
    7MOL   H523 7735   2.708   2.751   4.947  1.4486 -1.8567 -0.4208
    7MOL   H524 7736   2.569   2.869   5.121  1.1879 -0.2277 -3.4886
    7MOL   H525 7737   2.579   2.724   5.220  1.6388 -0.1291  1.3160
    7MOL   H526 7738   2.904   2.866   5.423 -0.1125 -0.3779 -0.0056
    7MOL   H527 7739   2.855   3.033   5.415 -1.9888 -1.1023  1.2477
    7MOL   H528 7740   3.010   2.893   5.180  1.3510  0.3908 -0.7596
    7MOL   H529 7741   3.072   3.004   5.299 -0.8106 -0.3318  0.0996
    7MOL   H530 7742   2.939   3.180   5.218  2.7827  0.1877  0.4934
    7MOL   H531 7743   2.859   3.060   5.102 -0.2035  1.9050 -2.3665
    7MOL   H532 7744   3.073   3.016   4.993  0.4392  1.1525 -1.0290
    7MOL   H533 7745   3.151   3.132   5.090 -0.7888  1.4750  1.4704
    7MOL   H534 7746   2.927   3.168   4.895  0.3420  0.8548 -1.3891
    7MOL   H535 7747   2.999   3.308   4.974  0.0570  0.3229 -0.3377
    7MOL   H536 7748   3.111   3.140   4.744  2.3653  0.6706 -0.7384
    7MOL   H537 7749   3.070   3.309   4.769 -2.5720 -0.7436 -0.9612
    7MOL   H538 7750   3.298   3.155   4.890  1.7246  0.5376  0.3872
    7MOL   H539 7751   3.258   3.332   4.929 -0.5553 -0.9203  1.1576
    7MOL   H540 7752   3.448   3.297   4.782  2.0039 -3.9715 -4.3110
    7MOL   H541 7753   3.330   3.252   4.652 -1.7669  1.8815 -0.9731
    7MOL   O542 7754   3.412   3.502   4.619 -0.4690  0.4704  0.3939
    7MOL   C543 7755   3.414   3.633   4.572  0.4041 -0.2993 -0.6982
    7MOL   C544 7756   3.560   3.678   4.589 -0.2118 -1.0475 -0.3395
    7MOL   C545 7757   3.645   3.636   4.475 -1.0263  0.1768  0.1412
    7MOL   C546 7758   3.800   3.665   4.489  0.3690  0.5957  0.4968
    7MOL   C547 7759   3.818   3.822   4.516  0.0556  0.2033  0.1862
    7MOL   C548 7760   3.963   3.861   4.513 -0.4367  1.2203  0.7148
    7MOL   C549 7761   3.993   4.006   4.539 -0.1295 -0.4158 -0.5372
    7MOL   C550 7762   3.959   4.100   4.426  0.3333  0.0829  0.1501
    7MOL   C551 7763   4.005   4.246   4.449 -0.0462 -0.0632  0.4873
    7MOL   C552 7764   3.974   4.340   4.330 -0.1895 -0.0076  0.5574
    7MOL   O553 7765   3.839   4.344   4.297  0.0093  0.4861 -0.1972
    7MOL   C554 7766   3.755   4.428   4.358 -0.3424  0.2205 -0.8549
    7MOL   O555 7767   3.783   4.523   4.435 -0.2950 -0.6381 -0.4498
    7MOL   C556 7768   3.604   4.412   4.332 -1.4377  0.2916  0.4936
    7MOL   C557 7769   3.559   4.274   4.398  0.1426 -0.1863  0.3995
    7MOL   C558 7770   3.578   4.261   4.547  0.0366  0.5730  0.1773
    7MOL   C559 7771   3.532   4.123   4.607  0.1785 -0.0344  0.2213
    7MOL   C560 7772   3.463   4.127   4.739 -0.3318 -0.4105  0.6171
    7MOL   C561 7773   3.419   3.982   4.774  0.4551 -0.6915  0.2280
    7MOL   C562 7774   3.347   3.980   4.911 -0.2329  0.1050 -0.2445
    7MOL   C563 7775   3.318   3.833   4.950 -0.7371  0.5786 -0.2644
    7MOL   C564 7776   3.439   3.781   5.035  0.0809  0.0645 -0.7989
    7MOL   O565 7777   3.531   3.717   4.979  0.0668  0.1131  0.0527
    7MOL   H566 7778   3.390   3.636   4.466  1.7116  2.0515 -0.9548
    7MOL   H567 7779   3.352   3.694   4.637 -0.8798 -1.5243 -0.7586
    7MOL   H568 7780   3.555   3.785   4.567 -0.6047 -0.7340  1.2675
    7MOL   H569 7781   3.610   3.642   4.678 -0.0664  0.1806  0.0842
    7MOL   H570 7782   3.644   3.529   4.456 -0.8797  0.6340 -2.6569
    7MOL   H571 7783   3.604   3.680   4.385  0.9800  0.3225 -0.7318
    7MOL   H572 7784   3.837   3.598   4.566  1.3349 -1.0611 -1.3662
    7MOL   H573 7785   3.848   3.631   4.398 -2.8055 -2.1592 -0.2248
    7MOL   H574 7786   3.782   3.848   4.616  0.4813 -0.0821  0.4124
    7MOL   H575 7787   3.746   3.878   4.457 -0.5581 -2.8226 -2.0669
    7MOL   H576 7788   3.999   3.844   4.411  1.2233 -2.8041  1.8774
    7MOL   H577 7789   4.023   3.799   4.579 -0.3442 -0.9544 -1.3016
    7MOL   H578 7790   4.099   3.989   4.559  0.2117 -0.6536 -2.4626
    7MOL   H579 7791   3.947   4.048   4.628  1.0364 -0.5009  0.1104
    7MOL   H580 7792   3.859   4.090   4.383 -0.4560  2.8474  1.2819
    7MOL   H581 7793   4.011   4.066   4.336  2.6518 -0.6983  1.7304
    7MOL   H582 7794   3.960   4.284   4.541  0.6452 -4.1694  2.6000
    7MOL   H583 7795   4.112   4.247   4.465  0.0524  0.8369 -0.1707
    7MOL   H584 7796   4.003   4.439   4.364 -1.2044  0.3306  0.4544
    7MOL   H585 7797   4.027   4.324   4.236 -2.8219 -1.6352 -0.7143
    7MOL   H586 7798   3.595   4.418   4.223  0.4825 -1.8548  0.1654
    7MOL   H587 7799   3.548   4.494   4.377  1.1244  2.1222  0.4610
    7MOL   H588 7800   3.617   4.191   4.359 -0.4329 -0.2377 -0.3494
    7MOL   H589 7801   3.454   4.264   4.373  0.7550 -1.7797 -1.7104
    7MOL   H590 7802   3.518   4.341   4.591 -0.0711 -0.7766  2.5575
    7MOL   H591 7803   3.678   4.277   4.586  0.4999 -0.5188 -0.5498
    7MOL   H592 7804   3.607   4.045   4.602 -0.2591 -0.4392 -0.0174
    7MOL   H593 7805   3.465   4.084   4.531  1.2801 -0.4912 -0.5124
    7MOL   H594 7806   3.528   4.160   4.820 -0.2222  1.8957 -0.3806
    7MOL   H595 7807   3.377   4.193   4.744  0.9049  1.1622  1.3085
    7MOL   H596 7808   3.359   3.936   4.695  1.3449  1.0926 -1.5389
    7MOL   H597 7809   3.510   3.921   4.773  0.8273 -0.1323 -0.9587
    7MOL   H598 7810   3.255   4.036   4.894 -0.6112 -0.4752 -0.1094
    7MOL   H599 7811   3.385   4.048   4.987  1.4173 -2.0613  0.9270
    7MOL   H600 7812   3.226   3.829   5.007  1.5230 -1.3036  3.3997
    7MOL   H601 7813   3.319   3.766   4.864  1.2672 -1.0442  0.9911
    7MOL   O602 7814   3.433   3.817   5.167 -0.0499 -0.4211 -0.2603
    7MOL   C603 7815   3.550   3.790   5.248  0.3980  0.1525 -0.2951
    7MOL   C604 7816   3.659   3.903   5.224  0.4872  0.1438 -0.3249
    7MOL   C605 7817   3.617   4.040   5.277 -0.1023 -0.0029  0.3228
    7MOL   C606 7818   3.704   4.152   5.213 -0.2719 -0.0550  0.1239
    7MOL   C607 7819   3.657   4.285   5.277  0.4044 -0.8568 -0.5465
    7MOL   C608 7820   3.751   4.405   5.235  0.1633  0.6118  0.0368
    7MOL   C609 7821   3.683   4.539   5.265  0.1309 -0.0430 -0.1408
    7MOL   C610 7822   3.761   4.654   5.216  0.5571  0.3337 -0.3936
    7MOL   C611 7823   3.689   4.786   5.236  0.4116 -0.2040  0.0349
    7MOL   C612 7824   3.774   4.909   5.181  1.0590  0.1311 -0.3152
    7MOL   O613 7825   3.753   4.935   5.040 -0.5606  0.3385  0.7724
    7MOL   C614 7826   3.855   4.906   4.952 -0.3431 -0.2122 -0.0905
    7MOL   O615 7827   3.971   4.865   4.976 -0.2988 -1.1616 -0.1811
    7MOL   C616 7828   3.820   4.936   4.807 -0.4278  0.7610  0.0188
    7MOL   C617 7829   3.712   4.845   4.745  0.6340  0.1705 -0.3990
    7MOL   C618 7830   3.764   4.696   4.727 -0.7208  0.3780  0.3141
    7MOL   C619 7831   3.648   4.597   4.732  0.4046 -0.1902 -0.6269
    7MOL   C620 7832   3.579   4.580   4.867 -0.3259 -0.1819  0.4374
    7MOL   C621 7833   3.453   4.487   4.863 -0.0814 -0.4176 -0.7230
    7MOL   C622 7834   3.406   4.455   5.002  1.1423 -0.1012 -0.3713
    7MOL   C623 7835   3.274   4.382   5.002 -0.3706  0.5130 -0.3176
    7MOL   C624 7836   3.224   4.360   5.149 -0.7146 -0.0381  0.0412
    7MOL   O625 7837   3.115   4.402   5.179 -0.1271  0.6493 -0.0552
    7MOL   H626 7838   3.535   3.780   5.356 -1.9657 -0.9215 -0.6998
    7MOL   H627 7839   3.589   3.692   5.220  2.2350  0.3839  1.3030
    7MOL   H628 7840   3.756   3.878   5.266  1.8833 -0.0245 -3.5430
    7MOL   H629 7841   3.681   3.904   5.118 -1.8352  1.6089 -0.8423
    7MOL   H630 7842   3.513   4.056   5.249 -0.2596 -0.9410  0.3515
    7MOL   H631 7843   3.618   4.045   5.385  1.6273 -0.8867  0.3679
    7MOL   H632 7844   3.807   4.131   5.239 -0.2891  1.4498  1.4310
    7MOL   H633 7845   3.696   4.149   5.104 -1.3361  2.3435  0.1183
    7MOL   H634 7846   3.661   4.264   5.383 -2.0807 -2.4219 -0.7176
    7MOL   H635 7847   3.554   4.318   5.269  0.1718 -1.8460 -2.0308
    7MOL   H636 7848   3.770   4.412   5.128  2.4556 -2.1299  0.1910
    7MOL   H637 7849   3.851   4.395   5.277 -0.1817 -2.2367  0.2825
    7MOL   H638 7850   3.673   4.541   5.373  0.1614  3.0098 -0.1660
    7MOL   H639 7851   3.582   4.541   5.224 -0.0493  2.6347  0.3755
    7MOL   H640 7852   3.782   4.638   5.110  0.4014  1.8154 -0.6618
    7MOL   H641 7853   3.858   4.647   5.266  0.3678  0.2922 -0.0312
    7MOL   H642 7854   3.596   4.785   5.180  0.4215 -0.6240  0.0245
    7MOL   H643 7855   3.667   4.804   5.341 -1.6710 -2.6447  0.0526
    7MOL   H644 7856   3.730   4.997   5.227  0.0030 -0.2905 -0.5089
    7MOL   H645 7857   3.873   4.894   5.224  0.8063 -0.9840 -0.1011
    7MOL   H646 7858   3.907   4.937   4.743 -1.4488  1.4804 -1.3764
    7MOL   H647 7859   3.780   5.037   4.800 -1.2557  0.4804  0.5851
    7MOL   H648 7860   3.689   4.882   4.645  2.6430 -0.2830 -1.0658
    7MOL   H649 7861   3.619   4.848   4.801  0.5164 -2.9657 -0.3586
    7MOL   H650 7862   3.834   4.667   4.805 -0.2842 -0.6989 -0.4660
    7MOL   H651 7863   3.821   4.689   4.635 -1.4150 -1.6608  0.0123
    7MOL   H652 7864   3.682   4.500   4.695  0.8375 -1.1047  2.0456
    7MOL   H653 7865   3.571   4.633   4.664 -1.3496 -0.0052  1.3951
    7MOL   H654 7866   3.648   4.550   4.946  0.1782  0.1040  0.0994
    7MOL   H655 7867   3.540   4.670   4.915  3.3017  1.0938  1.1514
    7MOL   H656 7868   3.379   4.547   4.810  0.1192 -1.1049 -1.7932
    7MOL   H657 7869   3.468   4.390   4.816  2.2420  0.0388 -0.9768
    7MOL   H658 7870   3.389   4.546   5.060 -0.2595 -0.5290 -0.0889
    7MOL   H659 7871   3.481   4.407   5.064  0.7098  0.5923  0.7095
    7MOL   H660 7872   3.199   4.411   4.928 -1.3985 -0.6224  0.2758
    7MOL   H661 7873   3.298   4.287   4.955  3.4829  2.0784 -1.7104
    7MOL   O662 7874   3.310   4.296   5.235  0.4366 -0.3915  0.2662
    7MOL   C663 7875   3.253   4.265   5.356  0.1740 -0.6175 -0.2173
    7MOL   C664 7876   3.337   4.167   5.436 -0.1950  0.4905  0.8959
    7MOL   C665 7877   3.273   4.121   5.566  0.1912  0.6244 -0.1644
    7MOL   C666 7878   3.368   4.033   5.645 -0.6346  0.3765 -0.3722
    7MOL   C667 7879   3.382   3.894   5.594 -0.2372 -0.6796 -0.5307
    7MOL   C668 7880   3.456   3.809   5.698 -0.0193  1.1787 -0.2590
    7MOL   C669 7881   3.499   3.667   5.648  0.2381 -0.0768 -0.2079
    7MOL   C670 7882   3.556   3.578   5.768 -0.5150  0.6603 -0.0394
    7MOL   C671 7883   3.693   3.643   5.800 -0.3206 -1.1934 -0.4753
    7MOL   C672 7884   3.777   3.559   5.894 -0.6027  0.0436 -0.9581
    7MOL   O673 7885   3.716   3.566   6.024  0.4510  0.3097 -0.4394
    7MOL   C674 7886   3.787   3.547   6.135  0.2706  0.0977 -0.1290
    7MOL   O675 7887   3.911   3.535   6.150 -0.4515  0.0708 -0.4580
    7MOL   C676 7888   3.690   3.542   6.252  0.2255  0.7027 -0.9659
    7MOL   C677 7889   3.743   3.593   6.386 -1.0129 -0.1284 -0.3511
    7MOL   C678 7890   3.639   3.667   6.466  0.4626 -1.1649 -0.4631
    7MOL   C679 7891   3.526   3.576   6.508 -0.5478  0.4901 -0.2625
    7MOL   C680 7892   3.413   3.662   6.581 -0.5355  0.2702  0.5754
    7MOL   C681 7893   3.305   3.575   6.645  0.2950  0.1169  0.9913
    7MOL   C682 7894   3.185   3.644   6.710  0.4623 -0.1123 -0.1332
    7MOL   C683 7895   3.104   3.552   6.808  0.7897  0.3302 -0.1142
    7MOL   C684 7896   3.036   3.430   6.756  0.4731 -0.0460  0.5387
    7MOL   O685 7897   3.028   3.326   6.826 -0.0881 -0.3792 -0.3381
    7MOL   H686 7898   3.252   4.358   5.414  3.1696 -1.0189  0.5619
    7MOL   H687 7899   3.153   4.228   5.336 -0.9788  1.6138  1.2179
    7MOL   H688 7900   3.340   4.072   5.382  0.7256  1.7926 -1.3965
    7MOL   H689 7901   3.431   4.212   5.466 -0.1000 -0.3826  1.9420
    7MOL   H690 7902   3.247   4.204   5.632 -0.1786  1.2274 -1.0679
    7MOL   H691 7903   3.180   4.067   5.548 -0.6108  1.8444  0.2214
    7MOL   H692 7904   3.470   4.066   5.626 -0.0219 -1.4546 -0.3926
    7MOL   H693 7905   3.342   4.027   5.750 -0.0718 -1.2322 -0.3025
    7MOL   H694 7906   3.450   3.895   5.509  1.7165  2.6398  0.9832
    7MOL   H695 7907   3.287   3.850   5.564 -1.4701  1.9559 -0.5713
    7MOL   H696 7908   3.397   3.805   5.789 -1.2545  2.2813 -0.9872
    7MOL   H697 7909   3.551   3.859   5.717  0.1725  1.2751 -1.4147
    7MOL   H698 7910   3.575   3.682   5.572  1.0716 -0.7572  0.4664
    7MOL   H699 7911   3.418   3.621   5.592  1.6127 -0.4432 -1.9402
    7MOL   H700 7912   3.557   3.480   5.722  2.2661  0.6190  0.0347
    7MOL   H701 7913   3.494   3.572   5.858 -0.0264 -0.7689  0.2088
    7MOL   H702 7914   3.747   3.657   5.706 -1.6076 -1.1907 -1.2411
    7MOL   H703 7915   3.673   3.736   5.852 -3.3745 -1.7413 -0.5535
    7MOL   H704 7916   3.788   3.457   5.859  0.2795  0.2489 -1.2863
    7MOL   H705 7917   3.876   3.603   5.885 -1.0442  1.0670 -0.9322
    7MOL   H706 7918   3.659   3.438   6.262  0.8228  0.7038  1.3407
    7MOL   H707 7919   3.602   3.603   6.235 -2.2702 -2.3340  0.4399
    7MOL   H708 7920   3.833   3.654   6.376 -0.7121 -0.9561 -3.3299
    7MOL   H709 7921   3.774   3.506   6.444 -1.0087  1.0986  1.5026
    7MOL   H710 7922   3.599   3.748   6.405  0.5111  0.0744  1.1141
    7MOL   H711 7923   3.687   3.713   6.553  1.3540 -1.6562 -0.6986
    7MOL   H712 7924   3.559   3.505   6.583 -1.9094  1.4442  1.2750
    7MOL   H713 7925   3.485   3.507   6.434 -0.5030 -0.1692  0.3280
    7MOL   H714 7926   3.461   3.734   6.648  3.8737 -2.9150  1.0997
    7MOL   H715 7927   3.356   3.721   6.510 -0.9056 -0.4620  0.2523
    7MOL   H716 7928   3.275   3.495   6.576  0.1797  1.5717 -0.6689
    7MOL   H717 7929   3.348   3.511   6.722 -0.7786 -1.3115  0.4488
    7MOL   H718 7930   3.122   3.675   6.627  1.3532  2.9647  0.2815
    7MOL   H719 7931   3.212   3.733   6.766 -0.8468  0.4113 -0.3086
    7MOL   H720 7932   3.171   3.530   6.891  1.2106  0.5654 -0.3899
    7MOL   H721 7933   3.034   3.607   6.870 -0.4012  0.2283 -1.3521
    7MOL   O722 7934   3.005   3.434   6.628 -0.0614  0.4907  0.6962
    7MOL   C723 7935   2.932   3.334   6.565 -0.3618 -0.5464 -0.0507
    7MOL   C724 7936   2.960   3.348   6.415 -0.3295  0.4448  0.2083
    7MOL   C725 7937   2.846   3.295   6.332  0.0148  0.8601 -0.7196
    7MOL   C726 7938   2.880   3.303   6.179 -0.1446  0.3525 -0.4431
    7MOL   C727 7939   2.815   3.188   6.103 -1.0175  0.1493  0.0822
    7MOL   C728 7940   2.849   3.190   5.950 -0.3193 -0.4462 -0.4785
    7MOL   C729 7941   2.837   3.056   5.875  0.2726 -0.0683  0.2319
    7MOL   C730 7942   2.693   3.010   5.839 -0.0457 -0.4690 -0.7951
    7MOL   C731 7943   2.706   2.887   5.751 -0.4048  0.7109  0.6519
    7MOL   C732 7944   2.569   2.829   5.706 -0.5479  0.0899 -0.2907
    7MOL   O733 7945   2.471   2.807   5.806 -0.2950 -0.3530  0.2523
    7MOL   C734 7946   2.469   2.682   5.864 -0.4468  0.2877  0.8167
    7MOL   O735 7947   2.531   2.586   5.818  0.3014 -0.4571 -0.3195
    7MOL   C736 7948   2.375   2.664   5.978 -0.0243 -0.8906 -0.1321
    7MOL   C737 7949   2.243   2.594   5.942 -0.1239  0.3208 -0.2275
    7MOL   C738 7950   2.153   2.574   6.064 -0.0217  0.2448  0.1849
    7MOL   C739 7951   2.006   2.531   6.024 -0.2613  0.0719  0.8563
    7MOL   C740 7952   1.984   2.381   6.026  0.1834  0.0107 -0.3480
    7MOL   C741 7953   2.069   2.302   5.925  0.1276  0.3276  0.6236
    7MOL   C742 7954   2.038   2.338   5.779  0.8795 -0.6019 -0.2892
    7MOL   C743 7955   2.073   2.226   5.682 -0.1607  0.1819 -0.0744
    7MOL   C744 7956   2.208   2.242   5.616 -0.1361 -0.0548  0.1254
    7MOL   O745 7957   2.220   2.274   5.499 -0.1932  0.3176 -0.7015
    7MOL   H746 7958   2.975   3.240   6.601 -1.1717 -0.7425  0.4024
    7MOL   H747 7959   2.826   3.346   6.584  0.1117  3.8485  0.2921
    7MOL   H748 7960   2.969   3.454   6.390 -0.6065  0.0426 -1.6716
    7MOL   H749 7961   3.055   3.300   6.391 -0.6202 -0.0283  0.0007
    7MOL   H750 7962   2.827   3.192   6.362  3.4466  0.5611  0.5985
    7MOL   H751 7963   2.750   3.344   6.346  0.5246  2.1327 -1.5746
    7MOL   H752 7964   2.841   3.400   6.147 -0.5597  0.1754 -0.4729
    7MOL   H753 7965   2.986   3.308   6.152 -0.0213  1.9861  0.2136
    7MOL   H754 7966   2.708   3.188   6.122 -0.8367 -3.0135  1.5342
    7MOL   H755 7967   2.864   3.097   6.141 -0.1639  0.7840  0.5171
    7MOL   H756 7968   2.954   3.220   5.944 -0.2580 -0.4302  0.5707
    7MOL   H757 7969   2.788   3.264   5.897 -1.7994  0.4298  2.3507
    7MOL   H758 7970   2.888   2.994   5.949  0.0458 -0.4371  0.0793
    7MOL   H759 7971   2.904   3.056   5.789 -1.7870  1.5605 -1.4059
    7MOL   H760 7972   2.628   3.084   5.793 -0.0997  0.1682  0.3018
    7MOL   H761 7973   2.645   2.989   5.935 -1.0820  1.5957 -0.8366
    7MOL   H762 7974   2.754   2.920   5.659 -1.8452 -1.3613 -0.8999
    7MOL   H763 7975   2.762   2.802   5.789 -3.0456 -1.6395 -0.5056
    7MOL   H764 7976   2.539   2.910   5.640  1.2379  0.8084 -0.2373
    7MOL   H765 7977   2.580   2.746   5.635 -0.4116 -0.9812  0.9653
    7MOL   H766 7978   2.358   2.760   6.028  0.2621 -1.1448  0.4552
    7MOL   H767 7979   2.438   2.618   6.054 -1.9175  0.1747  2.1535
    7MOL   H768 7980   2.264   2.502   5.886  0.2724  1.8938 -2.7434
    7MOL   H769 7981   2.194   2.654   5.866 -0.5626 -1.0219 -1.0323
    7MOL   H770 7982   2.147   2.664   6.126 -1.3112  1.4957 -1.7087
    7MOL   H771 7983   2.189   2.496   6.131 -1.0591 -0.4540 -0.0534
    7MOL   H772 7984   1.980   2.569   5.925  2.8989 -0.2065 -0.1377
    7MOL   H773 7985   1.937   2.579   6.093 -1.2711  2.1086 -1.5093
    7MOL   H774 7986   2.001   2.357   6.131 -1.0724 -0.8190 -0.3295
    7MOL   H775 7987   1.879   2.352   6.022  0.8874 -2.7195  0.2153
    7MOL   H776 7988   2.175   2.312   5.949  0.2649 -1.5698  0.9518
    7MOL   H777 7989   2.056   2.196   5.947 -0.7726  0.4056  0.4920
    7MOL   H778 7990   2.076   2.438   5.756  0.0863 -0.6482 -1.8348
    7MOL   H779 7991   1.932   2.362   5.772  0.1406 -3.0625  1.5701
    7MOL   H780 7992   2.038   2.135   5.730  1.4407  0.3298  1.4310
    7MOL   H781 7993   1.999   2.239   5.603  0.0594 -0.6990 -0.4267
    7MOL   O782 7994   2.306   2.242   5.703 -0.0296  0.6934 -0.2732
    7MOL   C783 7995   2.434   2.288   5.649 -0.4823 -0.3375 -0.2926
    7MOL   C784 7996   2.521   2.162   5.610  0.2503  0.0667  0.2244
    7MOL   C785 7997   2.508   2.123   5.462 -0.2325 -0.1598  0.5608
    7MOL   C786 7998   2.594   1.997   5.429 -0.6330 -0.3120 -0.0418
    7MOL   C787 7999   2.561   1.935   5.293  0.3127  0.0735 -0.0091
    7MOL   C788 8000   2.669   1.853   5.228 -0.2632  0.2576  1.1028
    7MOL   C789 8001   2.633   1.769   5.105  0.0140  0.3783  0.2828
    7MOL   C790 8002   2.747   1.772   5.008 -0.5858 -0.4125 -0.0781
    7MOL   C791 8003   2.844   1.658   5.044 -1.0096 -0.5757 -0.1868
    7MOL   C792 8004   2.953   1.662   4.939  0.1757 -0.3584  0.1903
    7MOL   O793 8005   3.027   1.781   4.952 -0.4120 -0.3516 -0.2273
    7MOL   C794 8006   3.148   1.773   5.005  0.2917  0.1062  0.2738
    7MOL   O795 8007   3.197   1.670   5.051 -0.3726 -0.0467 -0.1473
    7MOL   C796 8008   3.225   1.912   5.014  0.1889 -0.2308 -0.2363
    7MOL   C797 8009   3.165   1.991   5.124 -0.4844 -0.3059  0.3053
    7MOL   C798 8010   3.182   1.934   5.266 -0.1247  0.1347 -0.2331
    7MOL   C799 8011   3.162   2.044   5.369 -0.4883  0.4677 -0.5234
    7MOL   C800 8012   3.292   2.106   5.405 -0.9566 -0.0754 -0.4776
    7MOL   C801 8013   3.302   2.169   5.543 -0.0148 -0.1986  0.1703
    7MOL   C802 8014   3.198   2.275   5.579  0.2243 -0.9202  0.7363
    7MOL   C803 8015   3.173   2.301   5.730  0.0473  0.2841  0.0921
    7MOL   C804 8016   3.079   2.420   5.749 -0.6598 -0.6397  0.3409
    7MOL   O805 8017   2.961   2.406   5.776 -0.4766 -0.0012  0.4361
    7MOL   H806 8018   2.439   2.343   5.555  2.3822 -0.0522 -0.0134
    7MOL   H807 8019   2.480   2.360   5.716  0.0338  1.3735 -2.4128
    7MOL   H808 8020   2.626   2.179   5.634  0.3120 -2.1570  1.6847
    7MOL   H809 8021   2.498   2.083   5.682 -0.9369 -0.5604 -0.8165
    7MOL   H810 8022   2.406   2.108   5.427 -0.4709  0.7514  0.8692
    7MOL   H811 8023   2.548   2.207   5.405  0.5714  1.0566  2.8769
    7MOL   H812 8024   2.696   2.035   5.433 -0.4932 -0.7015  0.0862
    7MOL   H813 8025   2.592   1.923   5.508  2.6476 -0.3820  0.0647
    7MOL   H814 8026   2.526   2.003   5.216 -0.0031 -0.3581 -0.2501
    7MOL   H815 8027   2.474   1.873   5.311  0.3398  0.1188  0.2747
    7MOL   H816 8028   2.711   1.789   5.306  1.8876  4.5233  3.6525
    7MOL   H817 8029   2.746   1.925   5.200  0.4815 -0.2408  1.8457
    7MOL   H818 8030   2.546   1.812   5.055  0.4173 -1.2820 -1.8798
    7MOL   H819 8031   2.592   1.669   5.116 -1.9596  1.3178  1.8607
    7MOL   H820 8032   2.803   1.865   5.008 -0.9688 -0.1774 -0.9812
    7MOL   H821 8033   2.712   1.737   4.911 -0.9695 -0.1422 -0.0381
    7MOL   H822 8034   2.893   1.679   5.139 -0.6656  0.5071 -0.5958
    7MOL   H823 8035   2.782   1.569   5.044 -0.1978 -1.1550  0.9495
    7MOL   H824 8036   3.011   1.570   4.938 -1.3757 -1.3651 -1.8593
    7MOL   H825 8037   2.903   1.674   4.842  0.2428 -1.2172  0.0465
    7MOL   H826 8038   3.215   1.967   4.920  1.6140  0.7436  0.1563
    7MOL   H827 8039   3.333   1.898   5.019  0.4512  0.2907 -3.2684
    7MOL   H828 8040   3.060   2.007   5.101 -0.3321 -1.7668 -1.4596
    7MOL   H829 8041   3.209   2.091   5.120  0.3994 -0.7067 -0.1586
    7MOL   H830 8042   3.279   1.885   5.277 -0.6876 -1.0975 -0.6615
    7MOL   H831 8043   3.108   1.855   5.281  1.1967 -0.9361  0.8114
    7MOL   H832 8044   3.119   1.998   5.458  1.1151 -0.1765 -0.0735
    7MOL   H833 8045   3.084   2.114   5.337 -1.1596 -0.0947 -0.1367
    7MOL   H834 8046   3.367   2.029   5.390 -1.1765 -0.0112 -1.9456
    7MOL   H835 8047   3.305   2.183   5.329  3.9173 -0.1283  0.1428
    7MOL   H836 8048   3.289   2.090   5.618 -1.7770  0.4298  0.5503
    7MOL   H837 8049   3.403   2.204   5.560  0.1210 -0.6568  0.3144
    7MOL   H838 8050   3.107   2.258   5.521  1.7450 -2.8337 -1.1295
    7MOL   H839 8051   3.233   2.369   5.537  0.3592 -1.7302 -0.9791
    7MOL   H840 8052   3.129   2.212   5.775 -0.3589  0.4518  0.0315
    7MOL   H841 8053   3.262   2.304   5.792  1.1982 -0.5685 -1.4965
    7MOL   O842 8054   3.138   2.542   5.732  0.3485  0.0239 -0.1693
    7MOL   C843 8055   3.070   2.661   5.763  0.1722  0.2367  0.1968
    7MOL   C844 8056   3.157   2.776   5.722 -0.3533  0.5448  0.6327
    7MOL   C845 8057   3.178   2.780   5.573  1.3992  0.6804  0.4888
    7MOL   C846 8058   3.276   2.891   5.512  0.3122  0.1460  0.6740
    7MOL   C847 8059   3.342   2.847   5.380 -0.0761 -0.5818  0.1910
    7MOL   C848 8060   3.443   2.956   5.326  0.2048  0.4690  0.1353
    7MOL   C849 8061   3.526   2.908   5.200  0.1329  0.0282 -0.8071
    7MOL   C850 8062   3.444   2.892   5.067 -0.7055  0.0111 -0.0604
    7MOL   C851 8063   3.523   2.844   4.943 -0.0876 -0.3805 -0.4799
    7MOL   C852 8064   3.442   2.847   4.809 -0.5132 -0.0037  0.2641
    7MOL   O853 8065   3.325   2.761   4.828  0.0310 -0.2270 -0.7365
    7MOL   C854 8066   3.201   2.799   4.784  0.1809 -0.2100 -0.1578
    7MOL   O855 8067   3.169   2.917   4.749 -0.2504  0.0841 -0.0078
    7MOL   C856 8068   3.098   2.681   4.798  0.0956 -0.0424  0.1278
    7MOL   C857 8069   2.965   2.696   4.712  0.9161  0.0610  0.1108
    7MOL   C858 8070   2.993   2.684   4.565  0.0127 -0.2235  0.2740
    7MOL   C859 8071   2.873   2.613   4.490 -0.6218 -0.8088  0.1856
    7MOL   C860 8072   2.902   2.612   4.337 -0.8440 -0.0361  0.0299
    7MOL   C861 8073   2.806   2.518   4.255  0.3375 -0.1625 -0.5007
    7MOL   C862 8074   2.682   2.587   4.199  0.3446 -0.6168 -0.1825
    7MOL   C863 8075   2.603   2.505   4.100 -0.5110  0.1280 -0.4336
    7MOL   C864 8076   2.664   2.475   3.962  0.4098  0.4628 -0.0951
    7MOL   O865 8077   2.709   2.361   3.937 -0.4735 -0.2647  0.2280
    7MOL   H866 8078   2.976   2.672   5.710 -0.4492 -2.2578  0.6941
    7MOL   H867 8079   3.039   2.665   5.868  0.9345  0.5012  0.4136
    7MOL   H868 8080   3.106   2.866   5.757 -2.5026 -0.2112 -0.4926
    7MOL   H869 8081   3.247   2.766   5.782  1.3863  0.2491 -1.9467
    7MOL   H870 8082   3.229   2.686   5.555  0.2312 -0.1625  1.5658
    7MOL   H871 8083   3.083   2.790   5.519  0.7451 -1.0206  1.3076
    7MOL   H872 8084   3.231   2.991   5.511 -1.1347 -0.5061  0.3292
    7MOL   H873 8085   3.364   2.899   5.577  0.3699 -0.4997  0.6712
    7MOL   H874 8086   3.258   2.850   5.311 -0.1030  1.0685  0.2732
    7MOL   H875 8087   3.387   2.747   5.383 -1.0709 -1.1201 -1.9270
    7MOL   H876 8088   3.510   2.977   5.410 -1.2094 -1.1248  1.6977
    7MOL   H877 8089   3.388   3.050   5.318  0.8006  0.7492 -0.7581
    7MOL   H878 8090   3.584   2.819   5.223  1.0169  0.8460  0.1541
    7MOL   H879 8091   3.607   2.978   5.185 -0.5173  0.9511 -0.1074
    7MOL   H880 8092   3.410   2.992   5.043  0.5793  0.2466 -0.9619
    7MOL   H881 8093   3.362   2.820   5.073  0.0968 -0.9632 -0.4491
    7MOL   H882 8094   3.608   2.911   4.925  0.0869  0.3523  2.7099
    7MOL   H883 8095   3.573   2.748   4.959  0.6541  0.1563  0.5306
    7MOL   H884 8096   3.411   2.950   4.788  3.2170  1.1988  0.2762
    7MOL   H885 8097   3.485   2.820   4.713 -2.3771  0.5893 -0.7805
    7MOL   H886 8098   3.057   2.670   4.898  1.7973  1.7641  1.0547
    7MOL   H887 8099   3.151   2.589   4.772 -0.3008 -0.3557  0.4334
    7MOL   H888 8100   2.911   2.784   4.745  0.6420 -0.1661  0.2718
    7MOL   H889 8101   2.888   2.627   4.748 -0.4712  1.3094 -0.4105
    7MOL   H890 8102   3.093   2.647   4.544  0.8617  0.5046  2.7993
    7MOL   H891 8103   3.004   2.787   4.533 -2.6135  0.2151  0.6402
    7MOL   H892 8104   2.781   2.667   4.511  0.6096  1.3705  0.1132
    7MOL   H893 8105   2.855   2.513   4.529 -1.2532 -0.2734  1.2789
    7MOL   H894 8106   2.890   2.715   4.303 -5.8103 -0.5597 -0.1259
    7MOL   H895 8107   3.006   2.588   4.312 -0.7227  0.0043  0.4958
    7MOL   H896 8108   2.868   2.494   4.169  0.4134 -0.5222 -0.3456
    7MOL   H897 8109   2.781   2.431   4.315 -1.6941  1.2491  0.7935
    7MOL   H898 8110   2.713   2.681   4.155 -0.2248  1.0477  2.8530
    7MOL   H899 8111   2.617   2.629   4.275  0.5849 -1.7583  0.6673
    7MOL   H900 8112   2.576   2.407   4.138  0.0716  0.7163  1.5501
    7MOL   H901 8113   2.510   2.556   4.074 -1.5543 -0.6418  1.7042
    7MOL   O902 8114   2.678   2.585   3.887  0.0606 -0.2959 -0.2754
    7MOL   C903 8115   2.761   2.588   3.771  0.2544 -0.3071 -0.3679
    7MOL   C904 8116   2.890   2.656   3.805 -0.4527  0.6919 -0.3194
    7MOL   C905 8117   2.985   2.579   3.905  0.1826 -0.5749  0.7392
    7MOL   C906 8118   3.134   2.625   3.893 -0.1817 -0.5489 -0.3681
    7MOL   C907 8119   3.201   2.592   4.025 -0.3383  0.0885  0.7316
    7MOL   C908 8120   3.225   2.712   4.111  0.0037 -0.0452 -0.2855
    7MOL   C909 8121   3.306   2.676   4.235  0.0333 -0.1781 -0.4295
    7MOL   C910 8122   3.306   2.791   4.344 -0.0310 -0.7008 -0.3723
    7MOL   C911 8123   3.354   2.928   4.308 -0.5687  0.9291  0.2876
    7MOL   C912 8124   3.343   3.013   4.431  0.0314  0.8135  0.1472
    7MOL   O913 8125   3.203   3.041   4.453  0.2996 -0.2174  0.3950
    7MOL   C914 8126   3.149   3.164   4.430 -0.3371 -0.3368 -0.5878
    7MOL   O915 8127   3.217   3.262   4.411 -0.2999  0.4554 -0.0658
    7MOL   C916 8128   2.998   3.160   4.445  0.0632 -0.1656 -0.2732
    7MOL   C917 8129   2.917   3.147   4.319 -0.3956  0.1583  0.1177
    7MOL   C918 8130   2.952   3.023   4.237 -0.2192 -0.2603  0.1590
    7MOL   C919 8131   2.871   3.000   4.116 -0.9916  0.9465  0.1485
    7MOL   C920 8132   2.890   3.101   4.006 -0.1317  0.5168  0.3709
    7MOL   C921 8133   2.845   3.053   3.867 -0.2832  0.1128 -0.0032
    7MOL   C922 8134   2.847   3.161   3.760  0.5320  0.0057 -0.1637
    7MOL   C923 8135   2.792   3.122   3.621 -0.1066 -0.0377 -0.4198
    7MOL   C924 8136   2.880   3.019   3.558 -0.3995  0.4532  0.4976
    7MOL   O925 8137   2.840   2.907   3.539 -0.3595 -0.1399 -0.7148
    7MOL   H926 8138   2.777   2.491   3.725  0.3855  0.1329 -1.2535
    7MOL   H927 8139   2.704   2.654   3.706  1.9016  1.7918  0.2895
    7MOL   H928 8140   2.946   2.660   3.711 -1.3248 -1.8423 -0.9920
    7MOL   H929 8141   2.862   2.755   3.840 -3.9625 -1.0767  2.1460
    7MOL   H930 8142   2.959   2.593   4.010 -0.2436 -1.8711  0.8207
    7MOL   H931 8143   2.977   2.471   3.892  1.6823 -0.6944  0.6931
    7MOL   H932 8144   3.188   2.587   3.806  2.6076  0.5321  0.8270
    7MOL   H933 8145   3.140   2.731   3.869 -0.7890 -0.4347 -0.0179
    7MOL   H934 8146   3.294   2.544   3.996  0.2400  1.2923  0.5535
    7MOL   H935 8147   3.154   2.506   4.073  1.2850 -1.8168 -1.0456
    7MOL   H936 8148   3.132   2.754   4.149  0.9490 -0.0151  2.0717
    7MOL   H937 8149   3.282   2.785   4.054  1.0088 -1.8563 -1.6722
    7MOL   H938 8150   3.411   2.657   4.211  0.2366 -2.2248  1.9176
    7MOL   H939 8151   3.269   2.590   4.290  1.6279 -2.0784 -2.2308
    7MOL   H940 8152   3.367   2.750   4.424  0.4907 -1.2471 -1.0468
    7MOL   H941 8153   3.203   2.795   4.379  0.3110  1.9194  0.4376
    7MOL   H942 8154   3.454   2.905   4.271 -1.9570 -0.8862 -2.5009
    7MOL   H943 8155   3.310   2.979   4.222  1.9324 -1.2697 -2.3888
    7MOL   H944 8156   3.373   2.960   4.522  2.0697 -0.5624 -1.2873
    7MOL   H945 8157   3.418   3.093   4.426  1.9244 -0.9000  0.4275
    7MOL   H946 8158   2.981   3.256   4.494  0.4719 -0.4329  0.4065
    7MOL   H947 8159   2.975   3.074   4.509 -1.6312 -1.0221 -1.9586
    7MOL   H948 8160   2.930   3.241   4.266  1.2835 -0.6501 -0.9515
    7MOL   H949 8161   2.815   3.144   4.358 -0.6659  0.6438 -0.5361
    7MOL   H950 8162   2.952   2.935   4.302  1.2961 -0.5167 -0.1814
    7MOL   H951 8163   3.054   3.026   4.200  0.7357 -1.2550  2.6157
    7MOL   H952 8164   2.765   3.018   4.140 -0.1700  2.8276  2.6938
    7MOL   H953 8165   2.876   2.902   4.070 -3.5265  0.5676  0.6053
    7MOL   H954 8166   2.853   3.198   4.040 -0.3905  0.5150  0.1034
    7MOL   H955 8167   2.996   3.123   3.992  0.2924 -1.4681  0.3617
    7MOL   H956 8168   2.904   2.964   3.847  0.0295  0.7139 -1.8517
    7MOL   H957 8169   2.744   3.014   3.866  0.0989 -0.8990  0.2132
    7MOL   H958 8170   2.936   3.225   3.752 -0.2246  0.8003 -2.9404
    7MOL   H959 8171   2.773   3.236   3.785 -2.4614 -2.3573 -1.6268
    7MOL   H960 8172   2.698   3.074   3.649  0.9763  0.3704  4.3494
    7MOL   H961 8173   2.775   3.207   3.555 -0.0803 -0.2933 -0.7552
    7MOL   O962 8174   3.002   3.064   3.516  0.2483 -0.6563 -0.1537
    7MOL   C963 8175   3.092   2.987   3.436 -0.2839  0.3404  0.2843
    7MOL   C964 8176   3.190   2.888   3.505  0.0812 -0.1809  0.5069
    7MOL   C965 8177   3.265   2.958   3.623 -0.0684 -0.4792 -0.3735
    7MOL   C966 8178   3.372   2.865   3.684  0.1282 -0.0540  0.1094
    7MOL   C967 8179   3.456   2.925   3.802  0.3182  0.1146 -0.4344
    7MOL   C968 8180   3.571   2.827   3.844  0.1931 -0.5277 -0.1457
    7MOL   C969 8181   3.616   2.830   3.988  0.1323  0.8063  0.3221
    7MOL   C970 8182   3.745   2.752   4.010 -0.0954  0.2293 -0.3431
    7MOL   C971 8183   3.725   2.606   3.977 -0.1372 -0.0604 -0.4810
    7MOL   C972 8184   3.837   2.514   4.031  0.2163  0.1705  0.6300
    7MOL   O973 8185   3.947   2.517   3.940 -0.8213 -0.3754 -0.0733
    7MOL   C974 8186   3.948   2.422   3.843  1.3269  0.2307 -0.3106
    7MOL   O975 8187   3.858   2.344   3.822 -0.6299  0.0186 -0.3268
    7MOL   C976 8188   4.075   2.422   3.757 -0.3691  1.0303  0.0102
    7MOL   C977 8189   4.131   2.558   3.714 -0.6201  0.1181  0.0572
    7MOL   C978 8190   4.075   2.599   3.575 -0.5216  0.3986  0.1613
    7MOL   C979 8191   4.119   2.740   3.528  0.1692 -0.1797 -0.5452
    7MOL   C980 8192   4.062   2.851   3.618  0.3385  0.2894  0.1584
    7MOL   C981 8193   3.910   2.866   3.609 -0.1099 -0.5788  0.0582
    7MOL   C982 8194   3.847   2.923   3.473  0.1733 -1.2399  0.5937
    7MOL   C983 8195   3.695   2.918   3.478  0.0812 -0.2905  0.2197
    7MOL   C984 8196   3.638   2.928   3.335  0.4101  0.8891 -0.5888
    7MOL   O985 8197   3.606   2.829   3.270  0.1109  0.2103  0.0700
    7MOL   H986 8198   3.045   2.930   3.355 -2.1354 -0.8706  2.1418
    7MOL   H987 8199   3.161   3.055   3.388  1.5636 -0.5074  1.6765
    7MOL   H988 8200   3.131   2.808   3.550  0.8415 -1.3724 -0.5705
    7MOL   H989 8201   3.256   2.844   3.430  0.3775  0.1395  0.5745
    7MOL   H990 8202   3.313   3.049   3.586  1.6080 -1.7812 -1.4775
    7MOL   H991 8203   3.197   2.987   3.703 -0.2034 -0.5981 -0.4445
    7MOL   H992 8204   3.317   2.778   3.718 -0.3597  0.0363 -0.4480
    7MOL   H993 8205   3.440   2.841   3.602  3.2700  0.8372  2.3483
    7MOL   H994 8206   3.396   2.942   3.891 -0.0105  0.4837 -0.7247
    7MOL   H995 8207   3.497   3.021   3.772  0.9774  0.2145  0.7773
    7MOL   H996 8208   3.657   2.857   3.784  0.5374 -0.6056  0.3084
    7MOL   H997 8209   3.553   2.723   3.816 -0.0019 -0.3004 -0.8824
    7MOL   H998 8210   3.544   2.784   4.055  1.9288 -2.3219  0.2144
    7MOL   H999 8211   3.633   2.936   4.011  0.2219  0.5836  1.2804
    7MOL     H1 8212   3.769   2.771   4.114 -0.6450 -1.2495  0.0646
    7MOL     H2 8213   3.828   2.783   3.946  0.4666 -2.0798 -0.7716
    7MOL     H3 8214   3.635   2.563   4.020  0.6897 -0.6886  0.6332
    7MOL     H4 8215   3.704   2.592   3.871 -1.7255 -0.3777 -0.1371
    7MOL     H5 8216   3.862   2.555   4.129  0.9523 -2.3199  1.5043
    7MOL     H6 8217   3.803   2.413   4.052  0.1802  0.4517  1.9591
    7MOL     H7 8218   4.059   2.358   3.670  0.2590  1.0975 -0.1616
    7MOL     H8 8219   4.145   2.370   3.824 -0.5577 -0.6478 -1.0644
    7MOL     H9 8220   4.239   2.549   3.702 -0.1344  1.4159  2.9688
    7MOL    H10 8221   4.135   2.640   3.786  1.2488 -0.0204  0.1198
    7MOL    H11 8222   3.967   2.584   3.585 -0.9812  1.6521 -2.4177
    7MOL    H12 8223   4.116   2.524   3.507 -0.8033  0.3625  0.0295
    7MOL    H13 8224   4.088   2.750   3.424  1.1700 -1.7797 -1.0067
    7MOL    H14 8225   4.228   2.736   3.532  0.0512 -1.1447  2.5561
    7MOL    H15 8226   4.080   2.829   3.723  2.7879 -0.6128 -0.4112
    7MOL    H16 8227   4.102   2.949   3.593  2.8442  0.0177  2.8103
    7MOL    H17 8228   3.865   2.769   3.628  0.1447 -0.6644  0.2269
    7MOL    H18 8229   3.879   2.939   3.683  1.5478  0.8061 -0.5676
    7MOL    H19 8230   3.885   2.865   3.389 -2.0003 -2.0708  0.1563
    7MOL    H20 8231   3.891   3.021   3.453  1.6214 -1.5631  2.0529
    7MOL    H21 8232   3.657   2.821   3.512 -1.5746 -0.2734 -1.5299
    7MOL    H22 8233   3.660   2.997   3.544  1.5224  1.3560 -0.9339
    7MOL    O23 8234   3.614   3.061   3.295  0.5470 -0.3705  1.3665
    7MOL    C24 8235   3.582   3.075   3.161 -0.4078  0.5589  0.5757
    7MOL    C25 8236   3.430   3.085   3.138 -0.1544 -0.0351  0.3398
    7MOL    C26 8237   3.376   3.218   3.195  0.4784  0.2739  0.4468
    7MOL    C27 8238   3.231   3.239   3.158  0.2056 -0.4932  1.2630
    7MOL    C28 8239   3.172   3.362   3.230 -0.1568  0.1421 -0.6084
    7MOL    C29 8240   3.033   3.393   3.188 -0.1095 -0.3597  0.7455
    7MOL    C30 8241   2.932   3.287   3.238 -0.1885  0.4544 -0.4209
    7MOL    C31 8242   2.792   3.334   3.242  0.6167  0.0972 -0.2479
    7MOL    C32 8243   2.690   3.221   3.261 -0.3489  0.1871  0.3538
    7MOL    C33 8244   2.548   3.271   3.248  0.3049  0.0678 -0.0292
    7MOL    O34 8245   2.527   3.371   3.347 -0.2570 -0.6904  0.0931
    7MOL    C35 8246   2.494   3.321   3.475 -0.0458  1.2636 -0.7783
    7MOL    O36 8247   2.480   3.200   3.508 -0.4453 -0.0762 -0.3312
    7MOL    C37 8248   2.505   3.434   3.581 -0.8282 -0.1430  0.4845
    7MOL    C38 8249   2.372   3.500   3.621  0.5943  1.1328 -0.7626
    7MOL    C39 8250   2.314   3.596   3.520  0.3186 -0.3716  0.3689
    7MOL    C40 8251   2.202   3.685   3.576  0.4907  0.1061  0.0493
    7MOL    C41 8252   2.068   3.609   3.589  0.4109 -0.5490  0.0048
    7MOL    C42 8253   1.964   3.710   3.639 -0.1093 -0.1351 -0.1026
    7MOL    C43 8254   1.816   3.657   3.641  0.1499 -0.5783 -0.2426
    7MOL    C44 8255   1.706   3.760   3.675  0.1771  0.3545 -0.5216
    7MOL    C45 8256   1.728   3.834   3.808  0.5259 -0.2012 -0.4112
    7MOL    O46 8257   1.699   3.951   3.814  0.2653  0.3582  0.3693
    7MOL    H47 8258   3.634   3.164   3.125  0.1959  0.2480  0.6741
    7MOL    H48 8259   3.632   3.000   3.099 -1.6872 -1.4788  1.9148
    7MOL    H49 8260   3.412   3.080   3.030  2.2687 -0.0362 -0.0799
    7MOL    H50 8261   3.376   2.999   3.179  1.9516 -1.7609 -0.4337
    7MOL    H51 8262   3.384   3.200   3.302  0.2438  0.7260  0.5396
    7MOL    H52 8263   3.440   3.298   3.158 -0.8242 -0.2994 -3.2623
    7MOL    H53 8264   3.225   3.242   3.049  2.0382 -0.8632  1.1434
    7MOL    H54 8265   3.182   3.145   3.185  0.1648 -0.7326  0.3872
    7MOL    H55 8266   3.224   3.454   3.206 -1.4451  1.0775  0.1023
    7MOL    H56 8267   3.190   3.350   3.336 -0.2402  1.0907 -0.4846
    7MOL    H57 8268   3.038   3.408   3.080 -0.4117 -1.1127  0.6198
    7MOL    H58 8269   3.023   3.485   3.245  1.9259 -0.3609  1.1439
    7MOL    H59 8270   2.959   3.245   3.335 -0.3623 -0.2394 -0.6624
    7MOL    H60 8271   2.939   3.219   3.153  0.8320 -0.4522  0.3768
    7MOL    H61 8272   2.756   3.411   3.173  1.4217  1.7417  1.1217
    7MOL    H62 8273   2.795   3.389   3.337  0.9134 -1.6973  0.8031
    7MOL    H63 8274   2.701   3.147   3.182 -0.8703 -0.9538  1.3409
    7MOL    H64 8275   2.714   3.161   3.348 -2.0931 -3.2064 -1.4039
    7MOL    H65 8276   2.520   3.313   3.151  0.2709  0.6886  0.2490
    7MOL    H66 8277   2.480   3.187   3.267 -1.0164  0.9398 -0.8128
    7MOL    H67 8278   2.578   3.502   3.537 -1.1487  1.5890  2.5884
    7MOL    H68 8279   2.550   3.377   3.662  0.2729  0.5942  0.3983
    7MOL    H69 8280   2.397   3.563   3.707 -0.5206  0.6995 -0.1116
    7MOL    H70 8281   2.304   3.418   3.641 -0.6183  1.7257 -2.3021
    7MOL    H71 8282   2.276   3.553   3.428  1.0552 -1.0639  0.3773
    7MOL    H72 8283   2.389   3.663   3.479  0.4555  0.3119  1.6914
    7MOL    H73 8284   2.183   3.759   3.499  0.0611  0.9197  0.9222
    7MOL    H74 8285   2.228   3.734   3.670 -1.8231  1.0525  0.2315
    7MOL    H75 8286   2.047   3.594   3.484  1.0748 -0.2963 -0.1683
    7MOL    H76 8287   2.064   3.519   3.652 -0.4004  0.1048  0.9050
    7MOL    H77 8288   1.971   3.732   3.746 -0.6687 -1.4579  0.2124
    7MOL    H78 8289   1.978   3.810   3.597 -2.3758 -0.7632 -2.4164
    7MOL    H79 8290   1.808   3.570   3.706  0.1157 -0.8680 -0.6298
    7MOL    H80 8291   1.798   3.609   3.544  0.2007 -1.4996  0.1960
    7MOL    H81 8292   1.726   3.830   3.594 -0.2396  1.4874  0.3436
    7MOL    H82 8293   1.601   3.731   3.674 -0.1583  1.4593  0.6338
    7MOL    O83 8294   1.770   3.757   3.911  0.1796  0.4005 -0.0190
    7MOL    C84 8295   1.761   3.811   4.042 -0.4334  0.0445  0.1542
    7MOL    C85 8296   1.629   3.789   4.120  0.0810  0.2429 -0.0596
    7MOL    C86 8297   1.617   3.640   4.167  0.3450 -0.3768  0.3890
    7MOL    C87 8298   1.710   3.604   4.287  0.2964  0.2984 -0.2413
    7MOL    C88 8299   1.737   3.455   4.305 -0.0825 -0.3623  0.3328
    7MOL    C89 8300   1.612   3.363   4.296  0.2275 -0.3540  0.1974
    7MOL    C90 8301   1.509   3.384   4.417 -1.0223 -0.1587 -0.4329
    7MOL    C91 8302   1.379   3.320   4.388  0.8578 -0.8236  0.5181
    7MOL    C92 8303   1.273   3.349   4.497  0.7113 -0.4544 -0.0714
    7MOL    C93 8304   1.162   3.245   4.488 -0.1882  0.1846 -0.6362
    7MOL    O94 8305   1.059   3.272   4.576 -0.0055 -0.2253 -0.0884
    7MOL    C95 8306   0.962   3.362   4.547  0.0750  0.2018  0.0615
    7MOL    O96 8307   0.944   3.435   4.448 -0.3279 -0.4013 -0.0887
    7MOL    C97 8308   0.859   3.366   4.666 -0.2837 -0.0071 -0.2415
    7MOL    C98 8309   0.782   3.239   4.695 -0.2860 -0.1635 -0.4816
    7MOL    C99 8310   0.634   3.236   4.638 -0.1766  0.5717  0.4303
    7MOL   C100 8311   0.637   3.194   4.495  0.1934 -0.3311 -1.3825
    7MOL   C101 8312   0.508   3.205   4.422 -0.2695  0.0514  0.9628
    7MOL   C102 8313   0.537   3.187   4.270 -0.4716  0.6655 -0.6448
    7MOL   C103 8314   0.616   3.059   4.232 -0.1987 -0.5662 -0.1249
    7MOL   C104 8315   0.633   3.059   4.080  0.0425  0.0236  0.3549
    7MOL   C105 8316   0.686   2.931   4.023  0.2826 -0.5079 -0.4290
    7MOL   O106 8317   0.609   2.840   3.994  0.7432 -0.5825  0.1168
    7MOL   H107 8318   1.851   3.780   4.096 -0.3811  1.2342  0.7541
    7MOL   H108 8319   1.774   3.918   4.032  1.0765 -0.0403  0.9927
    7MOL   H109 8320   1.631   3.857   4.204 -1.7021  2.6666 -1.9150
    7MOL   H110 8321   1.539   3.814   4.064 -0.2126 -3.0570 -1.2335
    7MOL   H111 8322   1.513   3.619   4.194  0.2618 -0.8459 -0.2693
    7MOL   H112 8323   1.634   3.577   4.079 -0.6980 -0.7896  0.4762
    7MOL   H113 8324   1.809   3.648   4.282  0.5277  0.0148  1.4644
    7MOL   H114 8325   1.670   3.633   4.385 -1.8551 -0.9712 -0.7129
    7MOL   H115 8326   1.780   3.441   4.404 -0.0657 -1.1511  0.2176
    7MOL   H116 8327   1.809   3.428   4.227 -0.0170  0.3606  0.1367
    7MOL   H117 8328   1.635   3.257   4.297 -1.0665 -0.6558 -0.0698
    7MOL   H118 8329   1.566   3.382   4.199 -0.0478  0.5757  0.4996
    7MOL   H119 8330   1.503   3.488   4.449 -2.6077  0.1264 -1.6265
    7MOL   H120 8331   1.547   3.334   4.506  3.5368  5.0552  0.8218
    7MOL   H121 8332   1.404   3.215   4.373  1.7078 -0.5050 -0.3655
    7MOL   H122 8333   1.351   3.361   4.291 -0.1745 -0.8294  0.8114
    7MOL   H123 8334   1.323   3.339   4.594  1.1448  2.7331  0.1051
    7MOL   H124 8335   1.244   3.453   4.483 -1.0709 -0.6584  1.8137
    7MOL   H125 8336   1.129   3.229   4.385 -2.4211  0.8525 -0.0394
    7MOL   H126 8337   1.207   3.151   4.522 -0.1731  0.4672  0.1262
    7MOL   H127 8338   0.793   3.452   4.657 -1.1245 -0.6843 -0.7816
    7MOL   H128 8339   0.912   3.377   4.760  0.1830 -2.4970 -0.1833
    7MOL   H129 8340   0.779   3.223   4.803 -1.7535  1.7799 -0.2007
    7MOL   H130 8341   0.837   3.160   4.644 -0.4550 -0.1735 -0.6504
    7MOL   H131 8342   0.584   3.333   4.637  0.0306  0.6784 -1.0579
    7MOL   H132 8343   0.582   3.171   4.707 -1.8535  3.2610  1.7609
    7MOL   H133 8344   0.675   3.092   4.487 -0.0703 -0.3773 -2.0850
    7MOL   H134 8345   0.706   3.262   4.446  1.2401 -0.6671 -0.4033
    7MOL   H135 8346   0.427   3.144   4.462 -0.1318 -1.2687 -0.7073
    7MOL   H136 8347   0.475   3.309   4.427 -1.6251 -0.3822  1.2686
    7MOL   H137 8348   0.445   3.207   4.215 -1.0438  0.4991  0.2408
    7MOL   H138 8349   0.600   3.270   4.239  1.1861 -0.5718 -0.6690
    7MOL   H139 8350   0.546   2.977   4.247  1.2963 -1.4860  2.0772
    7MOL   H140 8351   0.708   3.033   4.285  0.2520 -1.3147 -1.2564
    7MOL   H141 8352   0.533   3.071   4.038 -0.9537 -1.1663  2.3270
    7MOL   H142 8353   0.696   3.137   4.038 -2.3279  1.2597 -1.0370
    7MOL   O143 8354   0.819   2.933   4.007  0.3944  0.1797  0.2016
    7MOL   C144 8355   0.886   2.813   3.977  0.2044  0.2520  0.2353
    7MOL   C145 8356   0.965   2.817   3.843 -0.2755  0.0662 -0.1181
    7MOL   C146 8357   1.045   2.691   3.810  0.0769  0.3012  0.1537
    7MOL   C147 8358   1.088   2.690   3.665 -0.5204 -0.1090  0.0310
    7MOL   C148 8359   1.100   2.546   3.613 -0.4804  0.2412 -0.1101
    7MOL   C149 8360   1.208   2.530   3.509 -0.3883 -0.2266 -0.4126
    7MOL   C150 8361   1.237   2.380   3.472  0.1763 -0.9565 -0.4094
    7MOL   C151 8362   1.126   2.319   3.388 -0.3947 -0.0816 -0.3091
    7MOL   C152 8363   1.163   2.198   3.290 -0.4200  0.0014 -0.0775
    7MOL   C153 8364   1.060   2.170   3.177  0.2214 -0.2583 -0.0222
    7MOL   O154 8365   1.101   2.060   3.097 -0.0072  0.0630  0.3742
    7MOL   C155 8366   1.153   2.085   2.972 -0.3911  0.1171 -0.2848
    7MOL   O156 8367   1.164   2.199   2.921  0.5177  0.5405  0.3185
    7MOL   C157 8368   1.196   1.953   2.903 -0.3990 -0.7755 -0.1953
    7MOL   C158 8369   1.320   1.891   2.976 -0.4672 -0.2372  0.4216
    7MOL   C159 8370   1.278   1.781   3.076  0.4631  0.4357 -0.6995
    7MOL   C160 8371   1.398   1.713   3.141  0.1926  1.0874  0.0986
    7MOL   C161 8372   1.357   1.594   3.235 -0.4190 -0.6892  0.1375
    7MOL   C162 8373   1.470   1.543   3.326 -0.8133 -0.1493 -0.0363
    7MOL   C163 8374   1.430   1.427   3.411 -0.3090 -0.2708 -0.2464
    7MOL   C164 8375   1.553   1.346   3.462  0.5568  0.5433 -0.5645
    7MOL   C165 8376   1.511   1.204   3.512 -0.0669 -0.9138  1.0799
    7MOL   O166 8377   1.428   1.193   3.605 -0.3222 -0.0575 -0.9045
    7MOL   H167 8378   0.956   2.798   4.060  1.0707 -0.9179 -0.6935
    7MOL   H168 8379   0.832   2.718   3.976  2.6533 -1.1755 -0.7310
    7MOL   H169 8380   0.887   2.831   3.768 -0.3808  0.8861  0.1357
    7MOL   H170 8381   1.040   2.896   3.840  0.1481 -0.4050 -2.5211
    7MOL   H171 8382   1.131   2.700   3.875 -0.8927  0.4669  1.4289
    7MOL   H172 8383   0.993   2.597   3.827 -0.4846  0.3510 -1.1602
    7MOL   H173 8384   1.021   2.752   3.605 -0.7599 -2.3299 -2.0443
    7MOL   H174 8385   1.183   2.736   3.637  0.3157 -2.0323 -0.3200
    7MOL   H175 8386   1.002   2.510   3.584 -1.4574  1.5827  1.4572
    7MOL   H176 8387   1.140   2.496   3.702  1.4689 -0.7872 -1.5181
    7MOL   H177 8388   1.303   2.562   3.552  0.0228 -2.5566  0.4739
    7MOL   H178 8389   1.184   2.589   3.421 -0.2115  1.3103  0.5589
    7MOL   H179 8390   1.269   2.328   3.562  1.1069  1.0808  0.4657
    7MOL   H180 8391   1.330   2.360   3.419  0.6692 -3.4245  1.2751
    7MOL   H181 8392   1.065   2.387   3.329 -0.2052  1.1110  0.8387
    7MOL   H182 8393   1.064   2.275   3.466  0.0014 -0.7729 -0.3764
    7MOL   H183 8394   1.260   2.218   3.245 -0.8250 -1.0610 -1.4859
    7MOL   H184 8395   1.179   2.101   3.338 -0.5853  0.6527  1.3022
    7MOL   H185 8396   0.966   2.157   3.229  1.1208 -2.4816  1.1093
    7MOL   H186 8397   1.045   2.262   3.120  0.6550 -0.4371 -0.4389
    7MOL   H187 8398   1.220   1.964   2.797 -0.0509 -0.1334 -0.0522
    7MOL   H188 8399   1.113   1.884   2.890 -0.1043 -0.6289 -3.3749
    7MOL   H189 8400   1.360   1.961   3.048 -0.5836  0.1785  0.0827
    7MOL   H190 8401   1.393   1.860   2.902 -0.9704  1.1410 -0.6645
    7MOL   H191 8402   1.212   1.714   3.022  1.5017 -1.6117  0.5327
    7MOL   H192 8403   1.212   1.820   3.154  1.1822 -2.7192  1.5751
    7MOL   H193 8404   1.454   1.781   3.207 -0.0517  1.1088  0.2817
    7MOL   H194 8405   1.460   1.686   3.055 -0.4571  0.1633 -0.0817
    7MOL   H195 8406   1.272   1.636   3.289 -1.3812 -1.6151 -0.6326
    7MOL   H196 8407   1.302   1.518   3.178 -1.2404  0.8103 -1.0942
    7MOL   H197 8408   1.554   1.516   3.262 -0.2722  0.4161  0.4280
    7MOL   H198 8409   1.505   1.620   3.395  2.5507 -1.0224 -0.6477
    7MOL   H199 8410   1.377   1.362   3.342 -1.1055  0.5785 -0.4384
    7MOL   H200 8411   1.369   1.447   3.499  1.8218 -1.1483  1.4697
    7MOL   H201 8412   1.625   1.331   3.382  0.5447  0.5927 -0.5850
    7MOL   H202 8413   1.594   1.400   3.548 -1.9229 -1.8501  2.2769
    7MOL   H203 8414   1.554   1.114   3.468 -0.0759 -1.5375  2.3328
    8MOL     O1 8415   3.842   6.287   6.968 -0.0024  0.0569 -0.5406
    8MOL     C2 8416   3.756   6.176   6.953  0.0035 -0.4469  0.2773
    8MOL     C3 8417   3.621   6.208   7.022 -0.3333 -0.0481 -0.0708
    8MOL     C4 8418   3.536   6.310   6.953 -0.2219 -0.0754 -0.0304
    8MOL     C5 8419   3.393   6.291   7.008 -0.1661 -0.4749 -0.1620
    8MOL     C6 8420   3.303   6.381   6.914 -0.7995  0.0911 -0.4430
    8MOL     C7 8421   3.169   6.413   6.969 -0.0060 -0.1602 -0.5467
    8MOL     C8 8422   3.085   6.493   6.866  0.5846  0.0406 -0.2845
    8MOL     C9 8423   2.940   6.531   6.912 -0.0494 -0.3260  0.1267
    8MOL    C10 8424   2.850   6.561   6.789  0.0181  0.2202 -0.6214
    8MOL    C11 8425   2.697   6.572   6.814  0.5332 -0.6911 -0.1579
    8MOL    O12 8426   2.614   6.586   6.696 -0.6212 -0.2555 -0.5924
    8MOL    C13 8427   2.495   6.642   6.706 -0.2428  0.8243 -0.3254
    8MOL    O14 8428   2.434   6.676   6.805 -0.2507  0.2030 -0.0110
    8MOL    C15 8429   2.439   6.653   6.563  0.1314 -0.2611  0.0621
    8MOL    C16 8430   2.291   6.663   6.534  0.4197 -1.1664 -0.3601
    8MOL    C17 8431   2.270   6.658   6.382  0.1755 -0.0821  0.0407
    8MOL    C18 8432   2.124   6.652   6.358  0.6647 -0.4290 -0.2629
    8MOL    C19 8433   2.068   6.623   6.219 -0.2398  0.3995  0.4841
    8MOL    C20 8434   1.920   6.632   6.206  0.3641 -0.5829  0.4520
    8MOL    C21 8435   1.858   6.779   6.202  0.6005  0.5562 -0.0889
    8MOL    C22 8436   1.703   6.781   6.190  0.1019 -0.5033  0.8980
    8MOL    C23 8437   1.617   6.718   6.303  1.0739  0.5144 -0.1688
    8MOL    O24 8438   1.665   6.675   6.412  0.2074 -0.6915 -0.6014
    8MOL    H25 8439   3.742   6.150   6.848  3.0605 -0.8286 -0.0825
    8MOL    H26 8440   3.812   6.102   7.010  1.4847  1.2576  1.0956
    8MOL    H27 8441   3.565   6.114   7.018 -0.5307 -0.1643  3.3704
    8MOL    H28 8442   3.627   6.233   7.128  0.3859  0.0822 -0.1435
    8MOL    H29 8443   3.561   6.411   6.984 -1.3460  0.1826  0.0559
    8MOL    H30 8444   3.544   6.308   6.844 -3.3449  1.2528 -0.3190
    8MOL    H31 8445   3.357   6.188   7.004  0.4288 -0.6940 -0.0268
    8MOL    H32 8446   3.390   6.324   7.112  1.6618  1.3997 -0.6785
    8MOL    H33 8447   3.294   6.335   6.816  0.4824  1.5554 -1.2805
    8MOL    H34 8448   3.363   6.470   6.894  0.5931 -0.9244 -0.9398
    8MOL    H35 8449   3.186   6.468   7.062  1.4709  0.7363 -1.3356
    8MOL    H36 8450   3.110   6.327   7.001 -0.9556  0.0954 -1.5828
    8MOL    H37 8451   3.067   6.420   6.787  1.3081  0.7847 -1.1538
    8MOL    H38 8452   3.138   6.580   6.828 -1.6162  1.3062 -0.5598
    8MOL    H39 8453   2.945   6.614   6.982  2.8211 -0.8111  0.5700
    8MOL    H40 8454   2.899   6.451   6.973 -1.0032  1.2041  1.5322
    8MOL    H41 8455   2.891   6.641   6.728 -1.6040  0.2184 -1.7473
    8MOL    H42 8456   2.871   6.477   6.724  0.1814  0.5576 -1.0060
    8MOL    H43 8457   2.670   6.474   6.855  0.8912 -0.7440 -0.0460
    8MOL    H44 8458   2.671   6.641   6.894 -0.8249 -1.3402 -0.0143
    8MOL    H45 8459   2.479   6.574   6.500  1.7960 -0.2135  1.0225
    8MOL    H46 8460   2.490   6.741   6.523  0.9088 -1.5092 -1.7634
    8MOL    H47 8461   2.256   6.757   6.577  2.5038 -0.4975 -0.0717
    8MOL    H48 8462   2.227   6.589   6.582 -0.0877 -0.4876  0.0084
    8MOL    H49 8463   2.304   6.564   6.340 -0.6570 -0.1961 -0.3828
    8MOL    H50 8464   2.327   6.731   6.324 -0.1981  0.8709  0.8486
    8MOL    H51 8465   2.077   6.742   6.397 -1.5302 -1.2698 -0.8877
    8MOL    H52 8466   2.083   6.578   6.427  1.3334  0.0071  0.6116
    8MOL    H53 8467   2.119   6.687   6.147 -1.4504 -1.0967 -1.7407
    8MOL    H54 8468   2.097   6.522   6.190 -0.6398  0.5852 -0.5810
    8MOL    H55 8469   1.889   6.574   6.119 -2.0330  0.7677  0.3564
    8MOL    H56 8470   1.860   6.578   6.279 -0.8830  0.6545  0.3772
    8MOL    H57 8471   1.902   6.847   6.129 -0.6954 -0.0949 -1.5158
    8MOL    H58 8472   1.864   6.819   6.303  1.6684 -2.2286  0.9875
    8MOL    H59 8473   1.668   6.883   6.172 -1.1749 -1.3173 -1.4854
    8MOL    H60 8474   1.684   6.735   6.093 -0.8748  2.0940 -0.1849
    8MOL    H61 8475   3.805   6.362   6.926 -0.9718  0.7277  1.4219
    8MOL    O62 8476   1.482   6.722   6.275  0.3421  0.4510  0.0088
    8MOL    C63 8477   1.384   6.670   6.366 -0.2632 -0.9037 -1.1343
    8MOL    C64 8478   1.241   6.685   6.309  0.0439  0.1811  0.2858
    8MOL    C65 8479   1.128   6.665   6.419 -0.1075  0.4328  0.4769
    8MOL    C66 8480   1.072   6.521   6.398  0.4498 -0.1013 -0.1571
    8MOL    C67 8481   0.930   6.520   6.458  0.6761 -0.6739 -0.2586
    8MOL    C68 8482   0.874   6.378   6.483 -0.2894 -0.4881 -0.1721
    8MOL    C69 8483   0.746   6.368   6.561 -0.0976  0.0907 -0.3252
    8MOL    C70 8484   0.686   6.225   6.572  0.2316 -0.4273 -0.5673
    8MOL    C71 8485   0.546   6.203   6.636 -0.0576 -0.1901 -0.2582
    8MOL    C72 8486   0.502   6.056   6.624 -0.2333 -0.7229 -0.0285
    8MOL    O73 8487   0.418   6.038   6.510 -0.0823  0.2003  0.7477
    8MOL    C74 8488   0.375   5.925   6.482 -0.3282  0.1982 -0.1973
    8MOL    O75 8489   0.389   5.818   6.547 -0.3772 -0.2202  0.7911
    8MOL    C76 8490   0.289   5.919   6.351 -0.2895  0.2862  0.0540
    8MOL    C77 8491   0.205   5.796   6.330  0.5767  1.0947  0.3287
    8MOL    C78 8492   0.075   5.789   6.410 -0.1222  0.1264 -1.4380
    8MOL    C79 8493   0.011   5.645   6.419 -0.7292 -0.7201  0.2573
    8MOL    C80 8494   7.655   5.640   6.532 -0.8925  0.3315  0.2842
    8MOL    C81 8495   7.571   5.510   6.523 -0.7588 -0.7093 -0.0151
    8MOL    C82 8496   7.451   5.505   6.619 -0.5490  0.3776  0.2235
    8MOL    C83 8497   7.405   5.358   6.658 -0.3657  0.2581 -0.5520
    8MOL    C84 8498   7.287   5.344   6.751  0.1041  0.3803 -0.2817
    8MOL    O85 8499   7.180   5.400   6.732  0.5053  0.1242 -0.7582
    8MOL    H86 8500   1.412   6.567   6.390 -1.5700 -1.2888 -1.2749
    8MOL    H87 8501   1.380   6.729   6.458  0.6453 -0.1215 -1.5875
    8MOL    H88 8502   1.234   6.789   6.277 -0.4609  0.2697  0.6804
    8MOL    H89 8503   1.230   6.634   6.214  1.3231 -1.8923  1.2002
    8MOL    H90 8504   1.166   6.688   6.519  0.7640 -1.2998  0.5714
    8MOL    H91 8505   1.038   6.723   6.398  0.4885  1.0804 -0.3043
    8MOL    H92 8506   1.076   6.504   6.291  0.3164 -0.3392 -0.1221
    8MOL    H93 8507   1.138   6.450   6.449  1.6977  1.7837  0.9658
    8MOL    H94 8508   0.866   6.564   6.382 -0.8067 -0.0929  1.2847
    8MOL    H95 8509   0.919   6.586   6.544 -1.1703  0.2840 -1.2046
    8MOL    H96 8510   0.955   6.328   6.535  0.6153 -0.4558 -1.5374
    8MOL    H97 8511   0.873   6.336   6.383 -1.6784 -1.3454  0.1808
    8MOL    H98 8512   0.672   6.425   6.506 -1.0543 -0.2764  0.5621
    8MOL    H99 8513   0.757   6.415   6.659  0.8952 -1.6654  0.4368
    8MOL   H100 8514   0.751   6.153   6.621  0.2661  1.6026  2.5268
    8MOL   H101 8515   0.682   6.195   6.468  0.4980  2.6656 -1.5135
    8MOL   H102 8516   0.559   6.240   6.738 -1.8739 -4.2085  1.5432
    8MOL   H103 8517   0.470   6.269   6.595  0.4476  0.1484 -0.6571
    8MOL   H104 8518   0.590   5.994   6.642  0.5119  0.6549  1.2275
    8MOL   H105 8519   0.426   6.043   6.702 -1.5588  0.7973 -1.0408
    8MOL   H106 8520   0.361   5.944   6.273  1.3719 -2.1010  0.7709
    8MOL   H107 8521   0.232   6.011   6.351 -2.3591 -0.9718 -0.8490
    8MOL   H108 8522   0.260   5.705   6.356 -0.1137  0.7425  0.5596
    8MOL   H109 8523   0.173   5.782   6.226 -0.5996  2.7215  0.4607
    8MOL   H110 8524   0.002   5.861   6.373 -0.5572 -0.7280 -2.2687
    8MOL   H111 8525   0.086   5.826   6.512 -0.3041  1.9014 -2.0422
    8MOL   H112 8526   0.081   5.574   6.461 -0.8150 -0.8662  0.1526
    8MOL   H113 8527   7.731   5.621   6.319  0.0278  0.6317 -0.3546
    8MOL   H114 8528   7.694   5.654   6.632  0.8424  0.9202 -0.4563
    8MOL   H115 8529   7.586   5.723   6.515 -0.8136  0.5099  0.8402
    8MOL   H116 8530   7.535   5.485   6.423 -2.2097  1.0364  0.0573
    8MOL   H117 8531   7.630   5.424   6.555 -1.5219 -1.4439 -0.5490
    8MOL   H118 8532   7.362   5.551   6.576  0.1377  0.6935 -0.8869
    8MOL   H119 8533   7.479   5.567   6.704  0.1651  0.7426 -0.2667
    8MOL   H120 8534   7.386   5.298   6.569 -3.3895  0.1795  0.1162
    8MOL   H121 8535   7.485   5.305   6.710 -1.3331 -0.1510  0.5384
    8MOL   O122 8536   7.316   5.268   6.860 -0.3118 -0.4377  0.1979
    8MOL   C123 8537   7.226   5.243   6.961 -0.3040 -0.8703  0.6189
    8MOL   C124 8538   7.176   5.100   6.956  0.4282 -0.1539 -0.0695
    8MOL   C125 8539   7.106   5.049   6.832 -0.3163  1.0245  0.5239
    8MOL   C126 8540   7.112   4.889   6.826  1.1157 -0.3079  0.3330
    8MOL   C127 8541   7.056   4.837   6.694 -0.2573 -0.4764 -0.1291
    8MOL   C128 8542   7.120   4.707   6.643  0.1581 -0.2452 -0.1992
    8MOL   C129 8543   7.042   4.652   6.532  0.8745 -0.0196 -0.4057
    8MOL   C130 8544   7.089   4.512   6.477 -0.0602  0.4845 -0.1222
    8MOL   C131 8545   7.033   4.476   6.342 -0.4580  0.1293  0.4967
    8MOL   C132 8546   7.087   4.358   6.266 -0.6809  0.1867  0.5058
    8MOL   O133 8547   7.230   4.374   6.251  0.4512  0.0917 -0.1758
    8MOL   C134 8548   7.277   4.443   6.144 -0.7503 -0.0833 -0.1800
    8MOL   O135 8549   7.210   4.479   6.045 -0.1513  0.5298 -0.2264
    8MOL   C136 8550   7.424   4.468   6.158 -0.2607  0.8193 -0.2173
    8MOL   C137 8551   7.512   4.362   6.088 -0.0745 -0.0036  0.3665
    8MOL   C138 8552   7.504   4.220   6.142  0.4033  0.2536  0.8696
    8MOL   C139 8553   7.542   4.220   6.293  0.0197  0.5795 -0.2122
    8MOL   C140 8554   7.599   4.082   6.342 -0.4633 -0.4631  0.8239
    8MOL   C141 8555   7.641   4.091   6.492  0.7726 -0.2255 -0.9901
    8MOL   C142 8556   7.621   3.952   6.562 -0.0705  0.6736  0.3534
    8MOL   C143 8557   7.675   3.949   6.716 -0.1534 -0.1259 -0.1019
    8MOL   C144 8558   0.066   3.926   6.730 -0.0457  0.2477  0.0530
    8MOL   O145 8559   0.110   3.829   6.789  0.3721 -0.1212  0.2158
    8MOL   H146 8560   7.275   5.279   7.052 -0.7464 -0.4718  0.6972
    8MOL   H147 8561   7.146   5.315   6.951 -0.9779 -1.5297  1.2173
    8MOL   H148 8562   7.258   5.033   6.983 -0.0368 -0.1852  1.2881
    8MOL   H149 8563   7.106   5.084   7.037  0.7841 -0.9305  0.0863
    8MOL   H150 8564   6.998   5.057   6.830 -0.5498 -1.5042  1.1645
    8MOL   H151 8565   7.149   5.098   6.745 -1.4175 -0.2175 -0.7511
    8MOL   H152 8566   7.215   4.852   6.834  1.5722  1.0338  0.6874
    8MOL   H153 8567   7.060   4.845   6.910 -0.1718  1.6808  0.6032
    8MOL   H154 8568   7.088   4.908   6.618 -0.1521  0.8591  1.1317
    8MOL   H155 8569   6.947   4.832   6.692 -0.2657 -0.0941 -0.4808
    8MOL   H156 8570   7.124   4.635   6.725  1.5869 -0.3505 -0.3500
    8MOL   H157 8571   7.225   4.720   6.619  0.7897 -4.0110  0.2378
    8MOL   H158 8572   7.045   4.722   6.448 -4.2518  0.7690 -0.0707
    8MOL   H159 8573   6.942   4.633   6.570  1.2511  0.4091  0.8251
    8MOL   H160 8574   7.087   4.437   6.556  2.0693 -0.8154 -1.2726
    8MOL   H161 8575   7.196   4.521   6.460 -0.4668  2.6464 -1.6046
    8MOL   H162 8576   6.928   4.449   6.357 -0.2478 -0.2329  1.3448
    8MOL   H163 8577   7.036   4.562   6.275 -0.3081 -0.0548  0.2661
    8MOL   H164 8578   7.068   4.276   6.335 -2.0496 -0.7423 -0.9400
    8MOL   H165 8579   7.048   4.336   6.167  1.8362  0.6268 -0.6315
    8MOL   H166 8580   7.449   4.466   6.264 -0.1763 -0.4887 -0.2540
    8MOL   H167 8581   7.440   4.568   6.118 -0.2268  0.8456 -0.1376
    8MOL   H168 8582   7.616   4.394   6.095  0.6645 -1.3538 -3.2387
    8MOL   H169 8583   7.486   4.364   5.982 -0.0524  1.8184  0.3883
    8MOL   H170 8584   7.565   4.145   6.093 -1.7419 -0.3667 -0.9036
    8MOL   H171 8585   7.401   4.186   6.126  0.2492  1.5986 -1.1304
    8MOL   H172 8586   7.449   4.245   6.344  1.0047  0.7544  1.5375
    8MOL   H173 8587   7.612   4.298   6.323 -0.0959 -0.2458  2.3771
    8MOL   H174 8588   7.522   4.007   6.328  1.7534 -3.0944  2.2811
    8MOL   H175 8589   7.689   4.055   6.286 -0.2343  0.0381  0.9470
    8MOL   H176 8590   7.743   4.128   6.500  1.9150 -3.2113 -1.2183
    8MOL   H177 8591   7.580   4.159   6.551 -2.8403 -2.8818 -1.5120
    8MOL   H178 8592   7.655   3.870   6.499  0.5141  0.1928  1.2789
    8MOL   H179 8593   7.518   3.924   6.584 -0.4916  1.4849 -0.5753
    8MOL   H180 8594   7.647   4.045   6.760 -2.2455 -1.2055  0.9847
    8MOL   H181 8595   7.642   3.857   6.763 -0.5381 -0.5137 -1.1178
    8MOL   O182 8596   0.151   4.016   6.668  0.0333 -0.2983 -0.5024
    8MOL   C183 8597   0.292   3.989   6.652 -0.3332 -0.2524  0.1969
    8MOL   C184 8598   0.322   4.011   6.507  0.3808 -0.2468  0.3565
    8MOL   C185 8599   0.243   3.911   6.416 -0.0429  0.2284 -0.6934
    8MOL   C186 8600   0.285   3.923   6.267 -0.2058 -0.0162  0.2702
    8MOL   C187 8601   0.245   4.048   6.190 -0.7362 -0.2956 -0.4478
    8MOL   C188 8602   0.306   4.043   6.046 -0.0109  0.6809  0.3382
    8MOL   C189 8603   0.260   4.167   5.961 -0.4353 -0.0532  0.1468
    8MOL   C190 8604   0.317   4.298   6.008  0.2247  0.1429 -0.5433
    8MOL   C191 8605   0.264   4.414   5.915  0.6467 -0.1638 -0.7692
    8MOL   C192 8606   0.309   4.549   5.960 -0.9075 -0.2900  0.0305
    8MOL   O193 8607   0.265   4.576   6.090  0.2046 -0.2081  0.1415
    8MOL   C194 8608   0.170   4.669   6.108 -0.1291  0.5369 -0.3787
    8MOL   O195 8609   0.131   4.747   6.023 -0.4488  0.1672 -0.2186
    8MOL   C196 8610   0.122   4.675   6.256 -0.1180  0.4798  0.6079
    8MOL   C197 8611   0.012   4.578   6.286  0.0034 -0.2592 -0.5147
    8MOL   C198 8612   7.696   4.584   6.427 -0.0561 -0.3725 -0.3425
    8MOL   C199 8613   0.031   4.617   6.549 -0.9599 -0.1505 -0.7056
    8MOL   C200 8614   0.129   4.493   6.564 -0.1641  0.0103  0.4767
    8MOL   C201 8615   0.231   4.501   6.680  0.9286 -0.2928  0.1792
    8MOL   C202 8616   0.323   4.382   6.693 -0.8154  0.0835 -0.1901
    8MOL   C203 8617   0.433   4.404   6.804 -0.2691 -0.5043 -0.1758
    8MOL   C204 8618   0.528   4.288   6.826 -0.0484 -0.4979  0.1209
    8MOL   O205 8619   0.577   4.269   6.946 -0.2514  0.1680  0.7428
    8MOL   H206 8620   0.347   4.060   6.714  0.2920  0.4847 -1.1774
    8MOL   H207 8621   0.322   3.898   6.703 -0.2391  1.0121  2.4980
    8MOL   H208 8622   0.299   4.117   6.496  0.0586 -0.3069  0.4463
    8MOL   H209 8623   0.427   3.993   6.484  1.2237  2.9118  1.4358
    8MOL   H210 8624   0.260   3.812   6.458  0.7323  0.1849 -1.1183
    8MOL   H211 8625   0.139   3.939   6.437  0.4564  1.9963 -0.5295
    8MOL   H212 8626   0.393   3.918   6.257 -0.0890 -0.4115  1.6330
    8MOL   H213 8627   0.258   3.831   6.215  2.8818 -0.4548 -0.6464
    8MOL   H214 8628   0.290   4.131   6.245 -1.0486 -1.6510  1.9040
    8MOL   H215 8629   0.136   4.051   6.188 -0.7924 -1.3343  0.5612
    8MOL   H216 8630   0.273   3.951   5.998  1.5727 -0.3743  1.2099
    8MOL   H217 8631   0.414   4.056   6.052  0.1438  0.1629 -1.3129
    8MOL   H218 8632   0.151   4.167   5.966 -0.3859  0.1005  1.2267
    8MOL   H219 8633   0.280   4.148   5.855 -1.8173 -0.6923 -0.0104
    8MOL   H220 8634   0.425   4.284   6.008 -0.0618 -2.1549 -0.1944
    8MOL   H221 8635   0.288   4.308   6.113 -1.9127 -0.8129 -1.0135
    8MOL   H222 8636   0.288   4.394   5.810  2.2305 -0.4414 -0.3681
    8MOL   H223 8637   0.155   4.425   5.917  0.7098  0.4868  3.2306
    8MOL   H224 8638   0.418   4.543   5.967 -1.0191 -0.5515  1.5858
    8MOL   H225 8639   0.295   4.631   5.890 -1.6585 -1.7910 -1.6126
    8MOL   H226 8640   0.090   4.778   6.276 -1.8761  0.5378 -2.3068
    8MOL   H227 8641   0.207   4.647   6.319  0.0241 -1.5403 -0.4634
    8MOL   H228 8642   0.059   4.480   6.279 -0.3738 -0.4774 -0.0126
    8MOL   H229 8643   7.693   4.572   6.208 -0.8724 -0.9822  0.3815
    8MOL   H230 8644   7.654   4.484   6.437  1.2064 -0.5925  3.8458
    8MOL   H231 8645   7.611   4.652   6.426 -1.6894 -2.3285  0.6894
    8MOL   H232 8646   7.726   4.630   6.637  0.3078  2.2649 -0.1152
    8MOL   H233 8647   0.090   4.708   6.541  0.7398 -1.3167 -1.9185
    8MOL   H234 8648   0.065   4.405   6.572  0.4086 -0.4182  0.3434
    8MOL   H235 8649   0.189   4.471   6.475  0.6632  0.5870  0.8862
    8MOL   H236 8650   0.293   4.591   6.672  1.0849 -0.5392 -1.5107
    8MOL   H237 8651   0.160   4.513   6.763 -2.5418  0.1641 -2.7514
    8MOL   H238 8652   0.372   4.361   6.598  2.1048  0.0789  1.2327
    8MOL   H239 8653   0.270   4.290   6.718  1.8342 -0.6113  3.3996
    8MOL   H240 8654   0.485   4.498   6.790 -1.0778  0.1790  1.2030
    8MOL   H241 8655   0.384   4.417   6.901 -0.3260 -0.8667 -0.1546
    8MOL   O242 8656   0.567   4.224   6.716  0.4093  0.0851 -0.0638
    8MOL   C243 8657   0.688   4.142   6.715  0.1240  0.1647 -0.0175
    8MOL   C244 8658   0.727   4.091   6.578 -0.9253 -0.3326 -0.5175
    8MOL   C245 8659   0.832   3.978   6.596  0.1830 -0.9603  0.3508
    8MOL   C246 8660   0.895   3.936   6.464  0.3656  0.0286  0.6287
    8MOL   C247 8661   1.005   4.026   6.400 -0.3256  0.1807 -0.1754
    8MOL   C248 8662   1.075   3.944   6.288 -0.3003 -0.4762  0.4022
    8MOL   C249 8663   1.168   4.023   6.191 -0.4376  0.4776 -0.5885
    8MOL   C250 8664   1.244   3.928   6.098  0.0868  0.2037 -0.3833
    8MOL   C251 8665   1.341   4.005   6.005 -0.6372 -0.3915  0.4849
    8MOL   C252 8666   1.274   4.071   5.889  0.4336  0.3565  0.2655
    8MOL   O253 8667   1.189   4.178   5.930  0.2807  0.3741 -0.0515
    8MOL   C254 8668   1.167   4.273   5.837  0.6725  0.1444  0.5272
    8MOL   O255 8669   1.208   4.284   5.722 -0.0640 -0.4842 -0.7838
    8MOL   C256 8670   1.054   4.374   5.878  0.1713 -0.1805  0.0975
    8MOL   C257 8671   1.085   4.451   6.009  0.2175  0.4270 -0.4019
    8MOL   C258 8672   0.958   4.503   6.075  0.3127 -0.0426  0.5147
    8MOL   C259 8673   0.966   4.533   6.230 -0.5605  0.2813 -0.1079
    8MOL   C260 8674   1.039   4.426   6.311 -0.0889  0.2749 -0.3279
    8MOL   C261 8675   1.047   4.449   6.459 -0.3213 -0.5435  0.0384
    8MOL   C262 8676   1.130   4.346   6.533 -0.0395  0.4331 -0.1881
    8MOL   C263 8677   1.283   4.385   6.527  0.4500 -0.2734  0.0327
    8MOL   C264 8678   1.372   4.289   6.603  0.1319  0.5568 -0.2574
    8MOL   O265 8679   1.341   4.182   6.642 -0.5025 -0.1585 -0.3539
    8MOL   H266 8680   0.765   4.203   6.762 -1.8082  3.2850 -0.7657
    8MOL   H267 8681   0.676   4.057   6.782 -0.6877  0.0672 -0.2741
    8MOL   H268 8682   0.636   4.049   6.535 -1.3761 -0.2821  0.3559
    8MOL   H269 8683   0.764   4.175   6.520 -3.7285 -0.5492 -2.7320
    8MOL   H270 8684   0.913   4.001   6.665  1.1340 -1.0219 -0.7393
    8MOL   H271 8685   0.777   3.894   6.638 -1.0937 -0.5721 -0.5214
    8MOL   H272 8686   0.944   3.844   6.496  0.6241  0.5887  1.8709
    8MOL   H273 8687   0.828   3.896   6.388  0.1500  1.3262  0.1293
    8MOL   H274 8688   1.078   4.046   6.479  0.6617 -1.3526 -0.6774
    8MOL   H275 8689   0.958   4.117   6.365 -1.3415 -0.4490 -0.4646
    8MOL   H276 8690   1.003   3.883   6.234  1.2506 -1.3177 -0.7610
    8MOL   H277 8691   1.133   3.872   6.345 -0.7220 -0.6803  0.5776
    8MOL   H278 8692   1.232   4.090   6.249  1.4183 -3.7815  2.6200
    8MOL   H279 8693   1.105   4.088   6.130 -0.3713  0.5080 -0.6250
    8MOL   H280 8694   1.169   3.870   6.045 -2.6631  3.5512 -0.4181
    8MOL   H281 8695   1.303   3.860   6.158 -1.6539 -0.3085  0.7915
    8MOL   H282 8696   1.394   4.080   6.064 -0.4601  0.3318 -0.5877
    8MOL   H283 8697   1.416   3.936   5.967  1.5175  1.6109  0.9561
    8MOL   H284 8698   1.350   4.105   5.818  0.7012 -0.6342  0.0718
    8MOL   H285 8699   1.225   3.993   5.830 -1.4702  1.4181  0.3953
    8MOL   H286 8700   0.977   4.307   5.915 -1.8767  1.0865 -1.7698
    8MOL   H287 8701   1.011   4.439   5.802 -1.5195  1.2947  2.2868
    8MOL   H288 8702   1.161   4.528   5.999  1.3848 -0.7939 -1.1341
    8MOL   H289 8703   1.117   4.370   6.075  0.4329  1.1505  0.4090
    8MOL   H290 8704   0.870   4.438   6.066 -0.2489  0.6780  0.7174
    8MOL   H291 8705   0.935   4.597   6.025 -0.1305 -0.7427 -0.6007
    8MOL   H292 8706   0.861   4.540   6.256 -0.8708 -2.2472 -0.5475
    8MOL   H293 8707   1.010   4.631   6.247  0.7837 -0.3026 -0.1129
    8MOL   H294 8708   1.003   4.326   6.290  0.2439  0.3519 -1.3035
    8MOL   H295 8709   1.143   4.435   6.280 -0.6318  0.3303 -2.2279
    8MOL   H296 8710   1.074   4.549   6.490 -0.6125 -0.1044 -1.1067
    8MOL   H297 8711   0.947   4.449   6.502  0.5381 -2.5532  2.1383
    8MOL   H298 8712   1.116   4.248   6.489 -1.5079  0.6197 -0.1608
    8MOL   H299 8713   1.111   4.331   6.639 -1.4006  0.0038 -0.4861
    8MOL   H300 8714   1.325   4.388   6.427 -0.8453  0.3317 -0.5089
    8MOL   H301 8715   1.293   4.477   6.585 -0.5027  0.4285 -0.8858
    8MOL   O302 8716   1.492   4.342   6.627 -0.1609 -0.4706 -0.1850
    8MOL   C303 8717   1.605   4.265   6.664 -0.2596  0.5465 -0.6997
    8MOL   C304 8718   1.688   4.230   6.536  0.1210  0.3621  0.4571
    8MOL   C305 8719   1.623   4.142   6.426 -0.1630 -0.0024  0.5158
    8MOL   C306 8720   1.715   4.089   6.320  0.3194 -0.0488  0.2197
    8MOL   C307 8721   1.661   3.972   6.233  0.1420  0.1366  0.4269
    8MOL   C308 8722   1.769   3.876   6.180 -0.6276 -0.0400 -0.4709
    8MOL   C309 8723   1.720   3.749   6.118  0.1161 -0.7582 -0.3799
    8MOL   C310 8724   1.841   3.662   6.076 -0.0206 -0.3633  0.3591
    8MOL   C311 8725   1.801   3.527   6.026  0.3031  0.6663 -0.8193
    8MOL   C312 8726   1.917   3.456   5.950 -0.8616  1.0259 -0.3625
    8MOL   O313 8727   1.926   3.526   5.826  0.4792  0.0225 -0.2574
    8MOL   C314 8728   2.041   3.546   5.758 -0.2081 -0.2475 -0.1703
    8MOL   O315 8729   2.150   3.492   5.795  0.1598  0.2442 -0.2966
    8MOL   C316 8730   2.025   3.632   5.635  0.1182 -0.7348  0.9020
    8MOL   C317 8731   2.070   3.780   5.655  0.0860 -0.4414  0.0437
    8MOL   C318 8732   1.958   3.878   5.718 -0.0793 -0.5484 -0.1412
    8MOL   C319 8733   1.851   3.927   5.614 -0.3299  0.0612  0.4895
    8MOL   C320 8734   1.733   3.981   5.686 -0.2246  0.2310  0.0262
    8MOL   C321 8735   1.771   4.119   5.746 -0.5374 -0.1266  0.7753
    8MOL   C322 8736   1.657   4.188   5.813 -0.4028  0.4414 -0.0521
    8MOL   C323 8737   1.693   4.320   5.876  0.8251 -1.5248 -0.6221
    8MOL   C324 8738   1.580   4.378   5.964  1.1141  0.1468 -0.1210
    8MOL   O325 8739   1.522   4.474   5.921 -0.3460  0.0164 -0.4927
    8MOL   H326 8740   1.653   4.334   6.733  0.4361 -0.7712  0.1335
    8MOL   H327 8741   1.573   4.173   6.711 -0.0064  0.5828 -0.4581
    8MOL   H328 8742   1.724   4.329   6.509 -0.0612  0.6445  1.2596
    8MOL   H329 8743   1.772   4.175   6.580 -1.6479 -1.7945  1.1983
    8MOL   H330 8744   1.575   4.061   6.480 -2.0994  0.4346 -0.5143
    8MOL   H331 8745   1.533   4.185   6.383 -1.0304 -3.1591 -0.9886
    8MOL   H332 8746   1.745   4.172   6.256 -2.2346 -1.5280 -3.0136
    8MOL   H333 8747   1.811   4.061   6.363  1.4135  0.7064 -1.6794
    8MOL   H334 8748   1.612   4.021   6.150  1.4910 -0.6537 -0.8533
    8MOL   H335 8749   1.585   3.916   6.287  1.3466 -1.6149  0.3681
    8MOL   H336 8750   1.819   3.844   6.271 -0.7578 -0.0563 -0.4031
    8MOL   H337 8751   1.846   3.934   6.129  0.0739 -0.1869  0.4338
    8MOL   H338 8752   1.652   3.777   6.037  0.1423 -1.4191 -0.6363
    8MOL   H339 8753   1.660   3.694   6.190 -0.4800 -0.6888 -0.8161
    8MOL   H340 8754   1.913   3.648   6.157  0.1347  1.0536  0.4884
    8MOL   H341 8755   1.898   3.711   5.998  0.8371  0.5517  1.5379
    8MOL   H342 8756   1.783   3.463   6.111  3.1431  1.0044  0.0735
    8MOL   H343 8757   1.710   3.536   5.965 -0.1437  2.3941  0.0727
    8MOL   H344 8758   2.012   3.468   6.003 -1.3691  0.3066  0.7336
    8MOL   H345 8759   1.888   3.351   5.941  1.2960  0.3391  0.3609
    8MOL   H346 8760   1.931   3.620   5.580  0.0277  2.0391  0.4241
    8MOL   H347 8761   2.100   3.594   5.566  0.5688 -0.3089  1.1569
    8MOL   H348 8762   2.096   3.818   5.556 -1.0939  1.2926  0.3724
    8MOL   H349 8763   2.160   3.778   5.717  0.2698  0.5083 -0.1774
    8MOL   H350 8764   2.002   3.974   5.745 -0.8619 -0.1302 -0.3410
    8MOL   H351 8765   1.921   3.824   5.805 -0.8399  0.3070  0.0629
    8MOL   H352 8766   1.826   3.845   5.547 -0.5881  1.4895 -1.2192
    8MOL   H353 8767   1.899   4.006   5.557 -0.2563  0.0209  0.4953
    8MOL   H354 8768   1.645   3.976   5.622 -0.0322  1.0509 -0.3089
    8MOL   H355 8769   1.700   3.911   5.763  2.1513 -1.6338 -0.5817
    8MOL   H356 8770   1.850   4.131   5.819 -0.0755  0.6213  0.1586
    8MOL   H357 8771   1.818   4.177   5.667  2.0871 -0.6246  1.9356
    8MOL   H358 8772   1.634   4.116   5.892  2.4304  0.1696  0.5590
    8MOL   H359 8773   1.576   4.185   5.740  0.7900  0.2183 -1.3863
    8MOL   H360 8774   1.773   4.300   5.947  0.1749 -1.7420  0.0586
    8MOL   H361 8775   1.714   4.389   5.794 -0.8837  0.1386  0.2744
    8MOL   O362 8776   1.552   4.319   6.077  0.8574  0.1138 -0.0804
    8MOL   C363 8777   1.431   4.358   6.149  0.3439 -0.1777 -0.6592
    8MOL   C364 8778   1.448   4.495   6.217 -0.0992 -0.0412  0.3173
    8MOL   C365 8779   1.576   4.500   6.293 -0.0906 -0.2948 -0.1934
    8MOL   C366 8780   1.591   4.629   6.388  0.4941 -0.3793 -0.1882
    8MOL   C367 8781   1.726   4.638   6.458  0.6686  0.7333 -0.3121
    8MOL   C368 8782   1.763   4.778   6.513  0.7659  0.2731  0.4578
    8MOL   C369 8783   1.680   4.823   6.632 -0.2573  0.2529  0.3206
    8MOL   C370 8784   1.726   4.949   6.710  0.2155  0.0589 -0.5308
    8MOL   C371 8785   1.633   5.002   6.824  0.4147  0.2554 -0.0424
    8MOL   C372 8786   1.691   5.119   6.910 -0.2697  0.0196 -0.3582
    8MOL   O373 8787   1.800   5.064   6.994  0.2704  0.6303  0.5400
    8MOL   C374 8788   1.834   5.130   7.105  0.4981 -0.4553  0.1551
    8MOL   O375 8789   1.783   5.239   7.140 -0.4553  0.1792 -0.2548
    8MOL   C376 8790   1.907   5.034   7.200 -0.0259 -0.5987 -0.2262
    8MOL   C377 8791   1.928   5.091   7.342 -0.3764  0.4055  0.0151
    8MOL   C378 8792   2.019   5.007   7.423  0.2228 -0.0207 -0.1681
    8MOL   C379 8793   1.971   4.867   7.463  0.7261  1.0035 -0.3423
    8MOL   C380 8794   2.088   4.789   7.532  0.1247  0.3475  0.2139
    8MOL   C381 8795   2.190   4.734   7.430 -0.1551 -0.3464  0.0545
    8MOL   C382 8796   2.160   4.593   7.369  0.3882  0.5328  0.3642
    8MOL   C383 8797   2.273   4.531   7.281  0.2874  0.2030 -0.3734
    8MOL   C384 8798   2.293   4.595   7.142 -0.0585  0.0491  0.6236
    8MOL   O385 8799   2.192   4.632   7.086  0.6899  0.1307  0.3967
    8MOL   H386 8800   1.350   4.353   6.076 -0.2183 -3.0941  0.0923
    8MOL   H387 8801   1.410   4.272   6.214  1.9805 -1.9317 -2.3840
    8MOL   H388 8802   1.451   4.571   6.139  1.5553  0.5559  0.9368
    8MOL   H389 8803   1.358   4.517   6.274 -0.4240 -2.2442  0.6907
    8MOL   H390 8804   1.594   4.411   6.353  0.7251 -1.0834 -1.5821
    8MOL   H391 8805   1.661   4.494   6.224  1.4809  0.8529  1.5955
    8MOL   H392 8806   1.552   4.717   6.336  1.6858 -0.7521 -1.7426
    8MOL   H393 8807   1.521   4.618   6.471  0.5207 -1.2038 -0.2712
    8MOL   H394 8808   1.795   4.616   6.377 -1.6209 -0.1892 -2.0625
    8MOL   H395 8809   1.744   4.555   6.526  2.8732  1.3461 -0.1104
    8MOL   H396 8810   1.758   4.855   6.436 -3.2817  2.4575  2.6951
    8MOL   H397 8811   1.862   4.767   6.557  0.6693 -0.4026  0.5075
    8MOL   H398 8812   1.672   4.741   6.703 -1.1648 -0.4380 -0.5554
    8MOL   H399 8813   1.577   4.839   6.600 -0.2824  0.2985  0.4257
    8MOL   H400 8814   1.757   5.030   6.644  1.7126  0.4058  0.5655
    8MOL   H401 8815   1.819   4.916   6.757 -0.8960 -0.9413  1.0191
    8MOL   H402 8816   1.545   5.039   6.772 -0.6520 -1.4432  0.5034
    8MOL   H403 8817   1.599   4.921   6.889 -2.8936  1.3333 -0.3879
    8MOL   H404 8818   1.728   5.192   6.838  2.4632 -2.2896 -1.4331
    8MOL   H405 8819   1.610   5.167   6.963 -0.8668 -1.4881  0.1259
    8MOL   H406 8820   2.000   5.016   7.146 -0.7943 -0.1284 -1.7157
    8MOL   H407 8821   1.848   4.942   7.205  0.6354 -1.0295 -0.2128
    8MOL   H408 8822   1.830   5.094   7.389 -0.5780 -1.7992 -0.2248
    8MOL   H409 8823   1.964   5.194   7.334  0.7447  0.0080 -0.1898
    8MOL   H410 8824   2.021   5.060   7.518  0.9895  0.8543 -0.6681
    8MOL   H411 8825   2.116   4.997   7.374 -0.2082  1.6775 -1.4093
    8MOL   H412 8826   1.939   4.819   7.371  1.2455 -0.6372  0.3103
    8MOL   H413 8827   1.881   4.868   7.525  0.2052 -1.6287 -0.9846
    8MOL   H414 8828   2.136   4.861   7.598 -0.2443  0.7165  0.0850
    8MOL   H415 8829   2.056   4.709   7.598  0.4463  0.7873  0.9031
    8MOL   H416 8830   2.208   4.805   7.349 -0.2160 -1.4248 -0.9248
    8MOL   H417 8831   2.286   4.739   7.480 -0.2558 -0.1758  0.2292
    8MOL   H418 8832   2.068   4.596   7.310  0.9402  1.1638 -0.4608
    8MOL   H419 8833   2.139   4.524   7.451 -0.7647  1.2681  0.6917
    8MOL   H420 8834   2.369   4.551   7.328  0.4132  0.4514 -0.7341
    8MOL   H421 8835   2.264   4.423   7.273 -0.6496  0.1010  1.6922
    8MOL   O422 8836   2.407   4.567   7.079 -0.3974  1.2566  0.3093
    8MOL   C423 8837   2.421   4.585   6.940 -0.8674  0.0305  0.4843
    8MOL   C424 8838   2.550   4.515   6.897 -0.3527  0.6130  0.4314
    8MOL   C425 8839   2.551   4.363   6.916 -0.1891 -0.2327  0.4315
    8MOL   C426 8840   2.669   4.296   6.861 -0.0663  0.0056  0.5081
    8MOL   C427 8841   2.664   4.144   6.888  0.0357  0.0371 -0.0530
    8MOL   C428 8842   2.797   4.066   6.868 -0.2945  0.1732 -0.2273
    8MOL   C429 8843   2.848   4.087   6.724  0.3187  0.9085 -0.5738
    8MOL   C430 8844   2.987   4.017   6.694 -0.5376  0.3489  0.8340
    8MOL   C431 8845   3.032   4.040   6.553  0.2731  0.0837 -0.2783
    8MOL   C432 8846   3.105   4.176   6.542 -0.0677  0.2321 -0.1319
    8MOL   O433 8847   3.025   4.286   6.544 -0.8030  0.1287 -0.2109
    8MOL   C434 8848   3.070   4.401   6.505 -0.5970 -0.2853 -0.4971
    8MOL   O435 8849   3.191   4.424   6.493  0.2706 -0.1595  0.3932
    8MOL   C436 8850   2.965   4.513   6.490 -0.8323 -0.0515  0.1330
    8MOL   C437 8851   2.895   4.547   6.623 -0.3836  0.1050 -0.4836
    8MOL   C438 8852   2.956   4.663   6.707 -0.0393 -0.2534  0.8861
    8MOL   C439 8853   3.079   4.624   6.786  0.0823 -0.1057 -0.5514
    8MOL   C440 8854   3.062   4.512   6.894  0.1547 -0.0536  0.1000
    8MOL   C441 8855   3.197   4.459   6.938 -0.2486 -0.5331  0.0840
    8MOL   C442 8856   3.183   4.336   7.033 -0.4350  0.0216  0.1290
    8MOL   C443 8857   3.313   4.264   7.063  0.5253  0.6278  0.1227
    8MOL   C444 8858   3.357   4.172   6.950 -0.0275 -0.2032 -0.3257
    8MOL   O445 8859   3.281   4.148   6.855  0.1605 -0.0630  0.4508
    8MOL   H446 8860   2.336   4.551   6.881  1.8528 -3.2386 -1.7321
    8MOL   H447 8861   2.439   4.691   6.920  0.2042 -0.0550  0.9276
    8MOL   H448 8862   2.571   4.538   6.792  0.1837 -2.1001 -0.0873
    8MOL   H449 8863   2.633   4.559   6.952  0.2491  3.2501 -2.3819
    8MOL   H450 8864   2.541   4.342   7.023  1.1404  0.5204  0.7151
    8MOL   H451 8865   2.453   4.346   6.872 -0.1473  0.8345 -0.0832
    8MOL   H452 8866   2.672   4.324   6.756  0.6941  2.4303  1.1539
    8MOL   H453 8867   2.750   4.337   6.921  1.5499 -1.2462 -0.7725
    8MOL   H454 8868   2.591   4.097   6.823  1.0538 -2.6490  0.7040
    8MOL   H455 8869   2.631   4.119   6.989 -1.7380  0.1262 -0.5925
    8MOL   H456 8870   2.780   3.961   6.890 -0.5999  0.1489 -0.5805
    8MOL   H457 8871   2.875   4.100   6.936 -0.2411 -0.6709  0.1303
    8MOL   H458 8872   2.840   4.193   6.702 -2.0420  1.1980  1.4480
    8MOL   H459 8873   2.775   4.032   6.665  1.4481  0.4321 -1.5661
    8MOL   H460 8874   2.968   3.912   6.715 -0.5048 -0.0030 -0.8412
    8MOL   H461 8875   3.059   4.055   6.767 -0.1401 -2.8219  2.1739
    8MOL   H462 8876   3.105   3.960   6.536 -0.1001 -1.0745  3.1974
    8MOL   H463 8877   2.955   4.038   6.476 -0.1275  1.9479  0.0704
    8MOL   H464 8878   3.185   4.179   6.617 -2.8377 -2.2083  3.0841
    8MOL   H465 8879   3.162   4.160   6.451 -1.0836 -2.8898 -0.2752
    8MOL   H466 8880   2.891   4.470   6.421  1.0261 -1.0497 -1.2765
    8MOL   H467 8881   3.003   4.602   6.440 -0.4354 -0.3490 -0.1037
    8MOL   H468 8882   2.886   4.463   6.691 -2.3897  0.8508  0.2010
    8MOL   H469 8883   2.791   4.569   6.599 -0.2796  0.7372 -0.3720
    8MOL   H470 8884   2.882   4.703   6.777 -0.9921  0.0383 -0.2631
    8MOL   H471 8885   2.987   4.742   6.638 -0.6731 -1.9619 -1.4170
    8MOL   H472 8886   3.110   4.719   6.830 -0.4125 -0.5091  0.6950
    8MOL   H473 8887   3.160   4.604   6.716 -0.5316 -1.7698 -0.8184
    8MOL   H474 8888   3.014   4.559   6.980  1.2996 -1.7485  1.6974
    8MOL   H475 8889   3.002   4.430   6.856 -0.9257  1.3022 -1.1984
    8MOL   H476 8890   3.254   4.419   6.854 -0.1312  0.6588 -0.4227
    8MOL   H477 8891   3.251   4.536   6.994 -1.6963  0.5491  0.0108
    8MOL   H478 8892   3.105   4.267   7.002 -1.4244  0.6119  1.2544
    8MOL   H479 8893   3.151   4.367   7.133 -0.3934 -1.2085  0.5333
    8MOL   H480 8894   3.399   4.328   7.084  1.1681  0.4684 -1.8849
    8MOL   H481 8895   3.287   4.204   7.150  0.1119 -0.5430 -0.8042
    8MOL   O482 8896   3.465   4.104   6.980  0.1235 -0.1702  0.2640
    8MOL   C483 8897   3.526   4.025   6.876 -0.1231  0.4639 -0.1702
    8MOL   C484 8898   3.638   3.935   6.933  0.2632  0.0897 -1.1391
    8MOL   C485 8899   3.731   3.861   6.831  0.1373  0.5348  0.2957
    8MOL   C486 8900   3.827   3.762   6.893  0.4997  0.8747  0.0547
    8MOL   C487 8901   3.925   3.717   6.784  0.4704 -0.8223  0.1448
    8MOL   C488 8902   4.015   3.598   6.831 -0.4436 -0.1096 -0.6091
    8MOL   C489 8903   4.129   3.575   6.726  0.3505 -0.0733  0.0811
    8MOL   C490 8904   4.223   3.466   6.772  0.3806  0.4756  0.6379
    8MOL   C491 8905   4.332   3.517   6.867  0.1673  0.6001  0.0358
    8MOL   C492 8906   4.417   3.400   6.928  0.4612 -0.0705 -0.3796
    8MOL   O493 8907   4.340   3.358   7.042  0.0229  0.4555 -0.4894
    8MOL   C494 8908   4.393   3.278   7.134 -0.2717 -0.6618 -1.0012
    8MOL   O495 8909   4.510   3.238   7.131  0.2064 -0.3366 -0.0616
    8MOL   C496 8910   4.294   3.243   7.249  0.1333 -0.5519  0.7595
    8MOL   C497 8911   4.151   3.202   7.210 -0.4119  0.7547 -0.3950
    8MOL   C498 8912   4.121   3.049   7.199  0.2413  0.1005  0.8161
    8MOL   C499 8913   4.169   2.992   7.062  0.3131  0.0216 -0.2010
    8MOL   C500 8914   4.213   2.847   7.065 -0.2722  0.6102  0.5070
    8MOL   C501 8915   4.354   2.825   7.119 -0.6544  0.2563 -0.4561
    8MOL   C502 8916   4.389   2.673   7.149 -0.2856 -0.2741 -0.1061
    8MOL   C503 8917   4.505   2.656   7.246 -0.2711  0.5965 -0.6333
    8MOL   C504 8918   4.548   2.511   7.288  0.8820  0.7177 -0.5736
    8MOL   O505 8919   4.668   2.474   7.289 -0.3184 -0.6760  1.2338
    8MOL   H506 8920   3.454   3.955   6.832 -2.8069  2.2450  1.2584
    8MOL   H507 8921   3.567   4.087   6.796 -1.3438  2.9030  1.0221
    8MOL   H508 8922   3.709   3.987   6.998  1.3362 -0.5992 -1.7384
    8MOL   H509 8923   3.598   3.865   7.006 -0.2115  0.9226 -0.5798
    8MOL   H510 8924   3.672   3.802   6.761  1.5797 -0.9691  0.3161
    8MOL   H511 8925   3.776   3.942   6.773 -1.7694  2.7604  1.8577
    8MOL   H512 8926   3.876   3.809   6.978 -1.4799 -0.0881  1.7642
    8MOL   H513 8927   3.771   3.675   6.928 -0.9620  1.0237 -1.8171
    8MOL   H514 8928   3.998   3.795   6.762 -0.5733 -0.1933 -1.1816
    8MOL   H515 8929   3.876   3.689   6.691 -0.1571  1.3028 -0.1805
    8MOL   H516 8930   3.956   3.511   6.862  1.1317 -1.5183 -1.4832
    8MOL   H517 8931   4.070   3.641   6.914 -1.6065 -0.9550  0.6359
    8MOL   H518 8932   4.185   3.665   6.701  0.0140  0.5614  1.5487
    8MOL   H519 8933   4.084   3.538   6.634 -0.6165 -0.5383  0.7381
    8MOL   H520 8934   4.273   3.422   6.686  1.7584  1.5651  0.8598
    8MOL   H521 8935   4.163   3.389   6.821 -0.4806  1.9604  1.9705
    8MOL   H522 8936   4.395   3.584   6.809  1.5878 -1.0624 -0.3899
    8MOL   H523 8937   4.296   3.582   6.947  0.2153  0.6123  0.0484
    8MOL   H524 8938   4.448   3.328   6.853  1.5675  0.9662 -0.9471
    8MOL   H525 8939   4.519   3.433   6.948  1.0594 -1.3085 -1.3073
    8MOL   H526 8940   4.284   3.335   7.307 -0.0549  0.7506 -1.3043
    8MOL   H527 8941   4.334   3.163   7.311  0.1238 -0.2294  1.1896
    8MOL   H528 8942   4.111   3.260   7.127 -2.5650 -1.3869 -0.9083
    8MOL   H529 8943   4.085   3.218   7.295  2.1765 -0.1536  1.8567
    8MOL   H530 8944   4.015   3.021   7.204  0.6923 -2.0266 -0.8611
    8MOL   H531 8945   4.163   2.983   7.275 -0.7186  1.2738  2.4130
    8MOL   H532 8946   4.256   3.044   7.020  0.3177  0.4143  0.2816
    8MOL   H533 8947   4.101   3.014   6.980  0.1758 -1.3322 -0.4463
    8MOL   H534 8948   4.137   2.793   7.122  0.1505 -0.7875 -0.2231
    8MOL   H535 8949   4.195   2.810   6.964 -0.9320 -1.0213  1.2054
    8MOL   H536 8950   4.428   2.863   7.048 -0.9168  1.2527 -0.1978
    8MOL   H537 8951   4.378   2.889   7.203  0.2559  2.3169 -2.2415
    8MOL   H538 8952   4.420   2.622   7.058 -3.5679  0.5680 -1.7893
    8MOL   H539 8953   4.295   2.636   7.191 -0.6838  1.0269  0.1859
    8MOL   H540 8954   4.582   2.716   7.198  0.0382 -0.5802 -1.6291
    8MOL   H541 8955   4.471   2.710   7.335  0.3618  0.2567 -0.1781
    8MOL   O542 8956   4.442   2.424   7.323 -0.2425 -0.7402 -0.3094
    8MOL   C543 8957   4.474   2.288   7.354 -0.7192 -0.1792 -0.1834
    8MOL   C544 8958   4.455   2.264   7.505  0.1782 -0.2783 -0.0026
    8MOL   C545 8959   4.304   2.274   7.555  0.2687 -0.2258 -0.5980
    8MOL   C546 8960   4.275   2.228   7.697 -0.1477 -0.0698 -0.1866
    8MOL   C547 8961   4.127   2.258   7.746  0.4619 -0.3180 -0.0636
    8MOL   C548 8962   4.108   2.390   0.062 -0.3315  0.2367 -0.4083
    8MOL   C549 8963   3.963   2.394   0.117  0.4102  0.2879 -0.1743
    8MOL   C550 8964   3.926   2.520   0.187  0.0719 -0.1590 -0.6230
    8MOL   C551 8965   3.928   2.647   0.102  0.2234  0.0443  0.6814
    8MOL   C552 8966   3.875   2.768   0.185  0.2904  0.1970 -0.5984
    8MOL   O553 8967   3.959   2.811   0.291  0.9396  0.9998 -0.3112
    8MOL   C554 8968   4.073   2.874   0.274 -0.5140 -0.2067 -0.0836
    8MOL   O555 8969   4.132   2.897   0.168 -0.1207  0.8161 -0.1513
    8MOL   C556 8970   4.140   2.924   0.403 -0.2998  0.0585  0.3726
    8MOL   C557 8971   4.081   3.053   0.469  0.1608  0.1856 -0.6558
    8MOL   C558 8972   3.950   3.021   0.538  0.4059  0.3462  0.3765
    8MOL   C559 8973   3.893   3.137   0.616  0.1201 -0.2833  0.2070
    8MOL   C560 8974   3.754   3.099   0.666 -0.2638  0.3897 -0.3747
    8MOL   C561 8975   3.692   3.172   0.792  0.0646 -0.3364 -0.1339
    8MOL   C562 8976   3.545   3.119   0.816  0.2144  0.1349  0.1573
    8MOL   C563 8977   3.493   3.152   0.964 -0.3005 -0.0617  0.1912
    8MOL   C564 8978   3.551   3.061   1.076 -0.8848 -0.1015 -0.1784
    8MOL   O565 8979   3.640   3.095   1.157 -0.5633 -0.4123  0.2568
    8MOL   H566 8980   4.403   2.225   7.300  0.3169 -1.0191 -0.5814
    8MOL   H567 8981   4.572   2.250   7.327 -0.3737 -0.0785  0.9101
    8MOL   H568 8982   4.484   2.161   7.524  0.1718 -0.1415  0.7663
    8MOL   H569 8983   4.521   2.328   7.563  0.1883  0.4510 -0.7993
    8MOL   H570 8984   4.281   2.379   7.539  1.1953  0.5645  2.9675
    8MOL   H571 8985   4.240   2.220   7.485 -0.7831 -0.8626  0.8301
    8MOL   H572 8986   4.292   2.120   7.693  0.2343 -0.0586  0.7919
    8MOL   H573 8987   4.346   2.266   0.014  0.3209 -0.2815 -0.5266
    8MOL   H574 8988   4.110   2.170   0.052 -0.7328 -0.8006 -1.0581
    8MOL   H575 8989   4.052   2.239   7.670  0.8866 -0.5300 -0.4341
    8MOL   H576 8990   4.125   2.474   7.751  0.2861  0.2397 -0.2528
    8MOL   H577 8991   4.173   2.398   0.149 -0.8835  0.0084  0.0334
    8MOL   H578 8992   3.949   2.305   0.178  1.2564 -0.2892 -0.8244
    8MOL   H579 8993   3.901   2.381   0.028  2.5976 -0.1595 -1.6515
    8MOL   H580 8994   3.997   2.533   0.270 -0.6560 -1.0050  0.1415
    8MOL   H581 8995   3.837   2.514   0.250  0.3578 -2.0881 -0.3816
    8MOL   H582 8996   4.027   2.671   0.065 -0.2277  1.9934  0.7023
    8MOL   H583 8997   3.865   2.630   0.014 -0.0328 -2.1705  1.2451
    8MOL   H584 8998   3.863   2.856   0.123  0.3081 -0.4925 -1.5917
    8MOL   H585 8999   3.778   2.748   0.231  0.0459  0.8651 -0.8202
    8MOL   H586 9000   4.242   2.951   0.376 -1.0771  1.4928 -1.2849
    8MOL   H587 9001   4.132   2.837   0.468 -0.0504  0.1248  0.4915
    8MOL   H588 9002   4.078   3.131   0.393  2.6655 -1.0119 -2.0555
    8MOL   H589 9003   4.150   3.093   0.544  0.7043 -0.7281 -0.6560
    8MOL   H590 9004   3.952   2.922   0.584 -1.6269  0.1534  0.0769
    8MOL   H591 9005   3.871   3.004   0.465  0.0395 -1.3968  1.1529
    8MOL   H592 9006   3.890   3.227   0.554  1.9391  0.3301  0.9701
    8MOL   H593 9007   3.961   3.163   0.696  1.3603 -0.9987 -0.6043
    8MOL   H594 9008   3.690   3.113   0.578  1.4541  2.2827 -1.3780
    8MOL   H595 9009   3.754   2.992   0.683 -2.8264  0.4680  0.4004
    8MOL   H596 9010   3.754   3.163   0.881 -4.4845  0.7946  3.3195
    8MOL   H597 9011   3.687   3.279   0.771  0.3227  0.0448  1.6439
    8MOL   H598 9012   3.533   3.013   0.796 -2.1047  0.4998 -0.5586
    8MOL   H599 9013   3.473   3.167   0.749 -0.8324  0.5934  1.5750
    8MOL   H600 9014   3.520   3.250   1.005  2.9886 -1.3824  1.3322
    8MOL   H601 9015   3.385   3.145   0.975 -0.3043 -1.4851 -0.6735
    8MOL   O602 9016   3.499   2.942   1.067 -0.3691 -0.0347  0.7651
    8MOL   C603 9017   3.519   2.862   1.183  0.4124  0.5762 -0.3298
    8MOL   C604 9018   3.473   2.723   1.162 -0.3154 -0.3311 -0.0304
    8MOL   C605 9019   3.327   2.725   1.115 -0.3759 -0.0053 -0.5444
    8MOL   C606 9020   3.272   2.580   1.131  0.1310  0.0731 -0.4793
    8MOL   C607 9021   3.129   2.566   1.088 -0.4697 -0.0633  0.1377
    8MOL   C608 9022   3.071   2.423   1.103  0.4099 -0.9514 -0.1342
    8MOL   C609 9023   3.083   2.368   1.249  0.5649  0.7017 -0.2610
    8MOL   C610 9024   3.018   2.457   1.358 -0.0869 -0.4130 -0.6570
    8MOL   C611 9025   3.005   2.386   1.493  0.7591  0.0963  0.2584
    8MOL   C612 9026   2.891   2.434   1.584  0.2758  0.4436  0.1554
    8MOL   O613 9027   2.888   2.349   1.701  0.4593  0.1730  0.2294
    8MOL   C614 9028   2.795   2.367   1.801 -0.7075 -0.8720  0.4782
    8MOL   O615 9029   2.707   2.450   1.793 -0.7087 -0.1426  0.7659
    8MOL   C616 9030   2.791   2.254   1.904  0.9660 -0.4697  0.4930
    8MOL   C617 9031   2.886   2.264   2.029 -0.1125  0.4679 -0.7993
    8MOL   C618 9032   3.029   2.315   1.993  0.2803 -0.0980  0.9727
    8MOL   C619 9033   3.124   2.331   2.115  0.0492  0.1432  0.0405
    8MOL   C620 9034   3.263   2.390   2.082  0.2954  0.0943  0.0364
    8MOL   C621 9035   3.353   2.392   2.206 -0.4986  0.4017 -0.7725
    8MOL   C622 9036   3.500   2.436   2.182 -0.5505 -0.2897  0.5576
    8MOL   C623 9037   3.592   2.335   2.108  0.5683  0.1040 -0.5278
    8MOL   C624 9038   3.611   2.204   2.180  0.2627 -0.2302  0.5242
    8MOL   O625 9039   3.639   2.200   2.296 -0.1303 -0.5668 -0.2780
    8MOL   H626 9040   3.620   2.858   1.223 -0.1225  3.2473  1.4345
    8MOL   H627 9041   3.446   2.907   1.251 -1.2912 -1.7948 -0.5396
    8MOL   H628 9042   3.545   2.678   1.094 -0.5811  0.7256 -1.0412
    8MOL   H629 9043   3.474   2.668   1.256 -1.6171  2.3812  1.6339
    8MOL   H630 9044   3.258   2.783   1.176  0.0060  2.1576 -2.1259
    8MOL   H631 9045   3.320   2.755   1.010 -1.3089 -0.4250 -0.6098
    8MOL   H632 9046   3.327   2.505   1.074  0.5490  0.7064 -0.9205
    8MOL   H633 9047   3.280   2.553   1.236  4.6421  3.5115  0.2296
    8MOL   H634 9048   3.113   2.609   0.990 -2.0552  2.1336  1.3021
    8MOL   H635 9049   3.074   2.635   1.153 -0.2942 -1.4255  1.7664
    8MOL   H636 9050   3.116   2.353   1.033  1.9837  0.6424 -0.7625
    8MOL   H637 9051   2.965   2.417   1.077  0.0930 -1.5951  1.2842
    8MOL   H638 9052   3.186   2.350   1.279  0.3181  1.9363  1.4082
    8MOL   H639 9053   3.041   2.267   1.251  0.9387  0.5260 -1.1939
    8MOL   H640 9054   2.916   2.472   1.324  0.0418  0.1989 -0.7677
    8MOL   H641 9055   3.064   2.554   1.373  0.1592 -0.5219 -0.7015
    8MOL   H642 9056   2.992   2.279   1.482 -1.2141  0.4707 -1.4253
    8MOL   H643 9057   3.096   2.395   1.552  0.5835 -0.8303  0.6766
    8MOL   H644 9058   2.909   2.535   1.621 -1.2337  0.6679  0.3262
    8MOL   H645 9059   2.797   2.450   1.532  0.7481  1.7945 -0.3032
    8MOL   H646 9060   2.807   2.154   1.863 -1.3176 -0.9220  0.6598
    8MOL   H647 9061   2.684   2.248   1.923  0.5051  1.1753 -1.3118
    8MOL   H648 9062   2.896   2.166   2.074  3.0515  1.9888  2.0238
    8MOL   H649 9063   2.845   2.324   2.111 -0.4727  2.8836 -2.7049
    8MOL   H650 9064   3.035   2.403   1.930 -0.7910 -0.9031 -0.2892
    8MOL   H651 9065   3.072   2.235   1.932 -1.1264 -0.1380  0.0005
    8MOL   H652 9066   3.123   2.236   2.168 -2.1050 -0.2563 -0.6988
    8MOL   H653 9067   3.077   2.409   2.175  0.6446  0.1529  0.5014
    8MOL   H654 9068   3.312   2.320   2.013  0.8339  0.8720 -0.3828
    8MOL   H655 9069   3.259   2.491   2.040 -0.8325  0.4469  0.9865
    8MOL   H656 9070   3.316   2.459   2.285 -0.4134  0.3726 -0.7089
    8MOL   H657 9071   3.341   2.290   2.242  0.8236 -0.3801 -2.4947
    8MOL   H658 9072   3.552   2.470   2.272 -0.6207  2.8453 -0.5295
    8MOL   H659 9073   3.515   2.531   2.131 -0.5370 -1.0212 -0.8354
    8MOL   H660 9074   3.561   2.315   2.006  2.1064  1.2254 -1.2417
    8MOL   H661 9075   3.695   2.370   2.096  1.2147 -1.6410 -0.3241
    8MOL   O662 9076   3.592   2.095   2.101 -0.3049  0.0168 -0.1526
    8MOL   C663 9077   3.600   1.958   2.151 -0.2314 -0.0321  0.6225
    8MOL   C664 9078   3.478   1.887   2.097  0.3182  0.1219 -0.2662
    8MOL   C665 9079   3.347   1.949   2.146  0.8655  0.9341 -0.6803
    8MOL   C666 9080   3.227   1.853   2.111 -0.3802 -0.9716 -0.0105
    8MOL   C667 9081   3.115   1.931   2.035  0.0230 -0.0661 -0.2006
    8MOL   C668 9082   3.025   1.828   1.965  0.7726  0.2237  0.1753
    8MOL   C669 9083   2.923   1.890   1.867  0.2612  0.0765 -0.4314
    8MOL   C670 9084   2.827   1.781   1.812  0.1328 -0.3026  0.5459
    8MOL   C671 9085   2.687   1.833   1.807 -0.7339 -0.1213 -0.0026
    8MOL   C672 9086   2.583   1.722   1.759 -0.3463 -0.4532 -0.4160
    8MOL   O673 9087   2.453   1.757   1.810 -0.1913  0.5245  0.1805
    8MOL   C674 9088   2.386   1.679   1.909  0.5309  0.1134  0.1444
    8MOL   O675 9089   2.422   1.575   1.952 -0.2624 -0.7272  0.7166
    8MOL   C676 9090   2.254   1.734   1.955  0.1227  0.3927 -0.4073
    8MOL   C677 9091   2.130   1.704   1.863  0.1611 -0.5157  0.0974
    8MOL   C678 9092   2.004   1.775   1.906  0.1651 -0.3542  0.0343
    8MOL   C679 9093   1.965   1.754   2.051 -0.2198 -0.8594  0.2187
    8MOL   C680 9094   1.828   1.810   2.081 -0.2971  0.5816  0.7972
    8MOL   C681 9095   1.800   1.780   2.226  0.1724 -0.0889 -0.0820
    8MOL   C682 9096   1.653   1.797   2.256  0.2684 -0.1372  0.2023
    8MOL   C683 9097   1.608   1.732   2.385  0.3830  0.5090  0.2661
    8MOL   C684 9098   1.504   1.805   2.466  0.3190 -0.6125 -0.0602
    8MOL   O685 9099   1.395   1.750   2.486 -0.0157  0.1407  0.4125
    8MOL   H686 9100   3.690   1.911   2.112  0.7402  1.5418  0.9305
    8MOL   H687 9101   3.603   1.960   2.259 -1.3138  1.5637  0.6433
    8MOL   H688 9102   3.493   1.893   1.989  0.6833  0.3446 -0.2064
    8MOL   H689 9103   3.469   1.786   2.137 -1.7578  0.2345 -0.4185
    8MOL   H690 9104   3.342   1.962   2.254 -1.2817 -0.6321 -0.5646
    8MOL   H691 9105   3.331   2.049   2.106  2.0145  1.3411 -0.1618
    8MOL   H692 9106   3.273   1.777   2.048  0.0068 -0.5997 -0.1838
    8MOL   H693 9107   3.196   1.799   2.200  0.7424  0.2976  1.1877
    8MOL   H694 9108   3.165   1.990   1.958  0.1013  0.0544 -0.0571
    8MOL   H695 9109   3.063   1.997   2.104 -0.8882 -0.0731 -0.8632
    8MOL   H696 9110   2.978   1.763   2.039  1.5953  0.5822  1.0168
    8MOL   H697 9111   3.101   1.770   1.912 -1.7842 -0.5709 -2.7450
    8MOL   H698 9112   2.986   1.927   1.786  0.5931 -1.8266 -1.0698
    8MOL   H699 9113   2.864   1.969   1.913  0.4961  0.3372 -0.5779
    8MOL   H700 9114   2.826   1.691   1.875  2.0751 -0.6405  0.1225
    8MOL   H701 9115   2.871   1.744   1.719  0.9436  1.1450  0.3370
    8MOL   H702 9116   2.680   1.862   1.912 -0.2019  2.8594 -0.7600
    8MOL   H703 9117   2.681   1.918   1.739 -0.8216  0.2098  0.4146
    8MOL   H704 9118   2.585   1.711   1.650 -0.2375 -2.2425 -0.2429
    8MOL   H705 9119   2.620   1.631   1.806 -1.5410  0.1636  1.7547
    8MOL   H706 9120   2.268   1.841   1.971 -1.6488  0.5778  0.0526
    8MOL   H707 9121   2.243   1.707   2.060  1.0629 -1.3597 -0.7284
    8MOL   H708 9122   2.123   1.597   1.844  2.3721 -1.0198  1.8614
    8MOL   H709 9123   2.158   1.747   1.767 -1.1317 -0.4284 -0.2388
    8MOL   H710 9124   1.925   1.748   1.837  1.4639 -1.9150 -0.8587
    8MOL   H711 9125   2.030   1.881   1.908 -1.3116  0.0796 -1.8833
    8MOL   H712 9126   2.042   1.794   2.116 -0.1044 -0.5638 -0.0944
    8MOL   H713 9127   1.970   1.646   2.063  0.2003 -0.7126  1.4248
    8MOL   H714 9128   1.827   1.916   2.057  0.7063  0.8290  1.8085
    8MOL   H715 9129   1.752   1.760   2.020 -1.5361  0.7244  2.1937
    8MOL   H716 9130   1.829   1.676   2.240 -2.1060 -1.1456 -2.8251
    8MOL   H717 9131   1.854   1.834   2.304  1.3677 -1.5277  0.1016
    8MOL   H718 9132   1.592   1.755   2.176 -1.7903 -1.1677  2.2693
    8MOL   H719 9133   1.632   1.903   2.246  0.9830 -0.2048 -2.4356
    8MOL   H720 9134   1.579   1.630   2.359  2.0445  0.1447 -0.2805
    8MOL   H721 9135   1.691   1.722   2.455 -1.0202 -0.2919  1.8503
    8MOL   O722 9136   1.543   1.928   2.512 -0.4004 -0.5044  0.5739
    8MOL   C723 9137   1.468   1.984   2.616 -0.3330 -0.2931 -0.3883
    8MOL   C724 9138   1.552   2.048   2.731 -0.0862  0.3670  0.7104
    8MOL   C725 9139   1.667   1.940   2.767  0.0480  1.0505  0.1661
    8MOL   C726 9140   1.758   1.985   2.882  0.9134 -0.2759 -0.1546
    8MOL   C727 9141   1.859   1.887   2.935  0.1281 -0.5954 -0.0501
    8MOL   C728 9142   1.978   1.843   2.849  0.8529 -0.2247 -0.2517
    8MOL   C729 9143   2.063   1.742   2.928  0.8294 -0.5681  0.3718
    8MOL   C730 9144   2.169   1.689   2.838  0.1795 -0.8532  0.1060
    8MOL   C731 9145   2.254   1.593   2.918  0.5688 -0.1253 -0.4395
    8MOL   C732 9146   2.380   1.662   2.988  0.2389 -0.3259 -0.0375
    8MOL   O733 9147   2.343   1.775   3.061 -0.2484 -0.1408  0.5008
    8MOL   C734 9148   2.327   1.776   3.199 -0.3329  0.5316  1.0264
    8MOL   O735 9149   2.299   1.682   3.272  0.4867 -0.0992 -0.3089
    8MOL   C736 9150   2.318   1.915   3.261  0.0802  0.3421  0.7411
    8MOL   C737 9151   2.173   1.951   3.292 -0.3456 -0.5468 -0.0225
    8MOL   C738 9152   2.174   2.100   3.328 -0.1346 -0.4001 -0.3279
    8MOL   C739 9153   2.033   2.143   3.385  0.1668 -0.8900  0.3640
    8MOL   C740 9154   1.913   2.125   3.285 -0.0770 -0.1896  0.4903
    8MOL   C741 9155   1.773   2.152   3.342  0.3422 -0.0686  0.6501
    8MOL   C742 9156   1.707   2.035   3.411 -0.1973 -0.2077  0.2128
    8MOL   C743 9157   1.568   2.073   3.456  0.0203 -0.4227 -0.2785
    8MOL   C744 9158   1.500   1.960   3.522  0.1649  0.5341 -0.1639
    8MOL   O745 9159   1.570   1.891   3.592  0.1401  0.0290  0.5961
    8MOL   H746 9160   1.396   2.061   2.590 -0.6674  0.2403  2.0303
    8MOL   H747 9161   1.415   1.902   2.665  1.9592 -2.2100 -0.9730
    8MOL   H748 9162   1.600   2.138   2.692  0.0621  0.1210  0.3212
    8MOL   H749 9163   1.495   2.068   2.821  0.8989  0.3906  1.3376
    8MOL   H750 9164   1.623   1.840   2.766 -0.8435  1.4450 -1.5578
    8MOL   H751 9165   1.725   1.946   2.675 -2.3922  0.4354 -1.4804
    8MOL   H752 9166   1.787   2.086   2.854 -3.7435  1.5838  1.2279
    8MOL   H753 9167   1.685   2.009   2.960 -0.5935  1.2159 -1.9554
    8MOL   H754 9168   1.812   1.794   2.967  1.4624 -1.0724  0.5145
    8MOL   H755 9169   1.893   1.932   3.028  0.8978 -1.5165  0.1200
    8MOL   H756 9170   2.031   1.936   2.830  1.1854  0.1273  2.2223
    8MOL   H757 9171   1.931   1.802   2.759 -2.0353  0.9063  0.6912
    8MOL   H758 9172   1.992   1.665   2.956  0.6293 -0.4220  0.2699
    8MOL   H759 9173   2.114   1.791   3.011  1.8088 -0.1781 -0.4494
    8MOL   H760 9174   2.216   1.772   2.787  2.6953 -1.7479  0.9141
    8MOL   H761 9175   2.106   1.627   2.774  2.8508 -2.5450 -0.9434
    8MOL   H762 9176   2.194   1.543   2.993 -0.6794  1.4620 -0.3447
    8MOL   H763 9177   2.299   1.521   2.850  0.0836 -1.2089  0.3815
    8MOL   H764 9178   2.417   1.585   3.056 -1.2575  1.6653  3.1817
    8MOL   H765 9179   2.445   1.687   2.904  0.3893  3.3878  1.1018
    8MOL   H766 9180   2.357   1.980   3.182 -0.3752 -0.5581 -0.2437
    8MOL   H767 9181   2.381   1.928   3.349  1.0670  0.9110 -0.0382
    8MOL   H768 9182   2.152   1.892   3.381 -0.3759 -0.5093 -0.0046
    8MOL   H769 9183   2.110   1.936   3.204  1.1526  0.6637 -1.3324
    8MOL   H770 9184   2.185   2.151   3.232 -0.5524 -0.0121 -0.1734
    8MOL   H771 9185   2.254   2.119   3.399 -0.9615 -0.8205  0.7283
    8MOL   H772 9186   2.034   2.243   3.428 -0.3546  0.3123 -2.3305
    8MOL   H773 9187   2.018   2.078   3.471  1.1074 -1.5449  0.0354
    8MOL   H774 9188   1.938   2.193   3.204 -0.7322 -0.7289 -0.1727
    8MOL   H775 9189   1.908   2.027   3.238  1.0636  0.5631 -1.2243
    8MOL   H776 9190   1.777   2.226   3.423  0.5393 -1.8297  2.2810
    8MOL   H777 9191   1.719   2.189   3.256  2.4669 -0.0904 -0.7350
    8MOL   H778 9192   1.776   1.997   3.486  0.9801 -1.1886 -1.3264
    8MOL   H779 9193   1.696   1.960   3.332 -0.1445 -1.6372  1.5397
    8MOL   H780 9194   1.557   2.153   3.530 -1.6291  0.4377 -1.4088
    8MOL   H781 9195   1.513   2.106   3.368 -0.7387  0.2240  0.4185
    8MOL   O782 9196   1.379   1.941   3.486  0.1912  0.3459 -0.1226
    8MOL   C783 9197   1.302   1.837   3.534 -0.4874 -0.1668  0.0885
    8MOL   C784 9198   1.151   1.875   3.532  0.2513  0.3460 -0.4359
    8MOL   C785 9199   1.114   1.977   3.642 -0.3012  0.4853  0.2585
    8MOL   C786 9200   0.977   2.042   3.622 -0.2010  0.3420 -0.4582
    8MOL   C787 9201   0.925   2.142   3.727 -0.0436 -0.9606  0.1621
    8MOL   C788 9202   0.830   2.245   3.666  0.1342  0.4868 -0.4339
    8MOL   C789 9203   0.731   2.316   3.753 -0.1632  0.3854 -0.0744
    8MOL   C790 9204   0.780   2.374   3.885  0.5414  0.2887 -0.4304
    8MOL   C791 9205   0.668   2.452   3.947  0.1684  0.6726  0.7396
    8MOL   C792 9206   0.686   2.490   4.085  0.6895 -0.4840 -0.4864
    8MOL   O793 9207   0.578   2.553   4.143 -0.8781 -0.2588 -0.2102
    8MOL   C794 9208   0.599   2.643   4.246 -0.2521 -0.2881  0.1794
    8MOL   O795 9209   0.708   2.667   4.301 -0.0260  0.6721  0.1176
    8MOL   C796 9210   0.471   2.708   4.288 -0.2709 -0.2739 -0.2192
    8MOL   C797 9211   0.463   2.757   4.428 -0.4077  0.0483  0.1335
    8MOL   C798 9212   0.472   2.635   4.527 -0.2369  0.1942 -0.6954
    8MOL   C799 9213   0.463   2.668   4.675 -0.4689  0.4227 -0.3903
    8MOL   C800 9214   0.579   2.751   4.727 -0.0401  0.4881  0.5770
    8MOL   C801 9215   0.566   2.792   4.878  0.1018 -0.2646 -0.0188
    8MOL   C802 9216   0.673   2.888   4.933 -0.3856  0.3681  0.1381
    8MOL   C803 9217   0.665   2.913   5.085 -0.0484 -0.0178 -0.3955
    8MOL   C804 9218   0.545   3.001   5.126  0.1111  0.6565 -1.1510
    8MOL   O805 9219   0.449   2.951   5.190  0.0999 -0.1759 -0.1558
    8MOL   H806 9220   1.329   1.750   3.473 -0.8912 -1.2218  1.3853
    8MOL   H807 9221   1.337   1.810   3.634 -2.1263 -0.3591  0.6383
    8MOL   H808 9222   1.117   1.904   3.432 -0.4818 -0.5126 -0.4442
    8MOL   H809 9223   1.087   1.789   3.552  1.5217 -0.5848 -0.2802
    8MOL   H810 9224   1.134   1.938   3.741 -0.5541  0.7362  0.4084
    8MOL   H811 9225   1.182   2.058   3.614  0.7629 -0.5924 -0.3552
    8MOL   H812 9226   0.969   2.089   3.524  0.2001 -1.6690 -1.4878
    8MOL   H813 9227   0.914   1.953   3.627  2.8086 -1.8118  0.1915
    8MOL   H814 9228   1.011   2.201   3.756  0.8089 -1.5290 -1.1638
    8MOL   H815 9229   0.877   2.104   3.817 -1.5443 -0.9601 -0.6157
    8MOL   H816 9230   0.781   2.203   3.578  0.7256 -1.2508  0.0358
    8MOL   H817 9231   0.884   2.326   3.618  0.8056  1.1464  1.4026
    8MOL   H818 9232   0.656   2.241   3.779  0.7698 -0.1931  1.0103
    8MOL   H819 9233   0.684   2.399   3.701  1.5854  1.9806  0.8726
    8MOL   H820 9234   0.859   2.441   3.851  0.4603 -0.9239 -3.1402
    8MOL   H821 9235   0.803   2.291   3.951  0.1894 -0.5132 -1.3057
    8MOL   H822 9236   0.647   2.544   3.893 -0.4336 -0.5398 -1.1210
    8MOL   H823 9237   0.572   2.401   3.947 -0.8705  2.5821  0.4533
    8MOL   H824 9238   0.695   2.399   4.145 -1.4690  1.6047  3.2767
    8MOL   H825 9239   0.777   2.547   4.099  1.1398 -0.9453 -1.5053
    8MOL   H826 9240   0.386   2.647   4.257  1.1802 -1.4319 -2.0589
    8MOL   H827 9241   0.458   2.800   4.231 -0.9974 -0.4053 -0.2722
    8MOL   H828 9242   0.372   2.812   4.451 -0.4041  0.3211 -0.4690
    8MOL   H829 9243   0.540   2.831   4.449  0.5758 -1.4513  1.8811
    8MOL   H830 9244   0.565   2.579   4.519 -0.4049 -0.0963 -0.6300
    8MOL   H831 9245   0.396   2.563   4.496  0.9051 -0.7337 -1.3952
    8MOL   H832 9246   0.467   2.580   4.739  1.1901 -0.9749 -2.3611
    8MOL   H833 9247   0.369   2.720   4.694  0.2233  0.8544  2.1953
    8MOL   H834 9248   0.672   2.703   4.696 -1.4056 -0.8646 -1.6033
    8MOL   H835 9249   0.590   2.840   4.664  0.0374  0.7482  0.9608
    8MOL   H836 9250   0.461   2.820   4.888 -0.0825 -0.9069 -0.1529
    8MOL   H837 9251   0.566   2.697   4.931  0.9227 -1.1429 -1.5494
    8MOL   H838 9252   0.654   2.976   4.872 -0.2999  0.5257  0.3405
    8MOL   H839 9253   0.772   2.851   4.905 -0.3661  0.7171 -0.2490
    8MOL   H840 9254   0.649   2.816   5.131 -0.6648 -0.8815 -2.3967
    8MOL   H841 9255   0.769   2.944   5.100 -0.7063  3.0790 -1.8532
    8MOL   O842 9256   0.561   3.127   5.085  0.4546 -0.1585 -0.5868
    8MOL   C843 9257   0.444   3.213   5.086  0.0991  0.2928 -0.1670
    8MOL   C844 9258   0.394   3.240   4.940 -0.2351 -0.0234 -0.9709
    8MOL   C845 9259   0.337   3.112   4.868 -0.4125  0.3981 -0.2396
    8MOL   C846 9260   0.263   3.128   4.733  0.0855  0.1988  0.8705
    8MOL   C847 9261   0.208   3.007   4.665  0.0547 -0.1754 -0.2033
    8MOL   C848 9262   0.113   3.034   4.550  0.2108  0.2623 -0.3113
    8MOL   C849 9263   0.091   2.917   4.455  0.4621  1.0335  0.3674
    8MOL   C850 9264   0.060   2.780   4.520  0.0849  0.6309  0.1909
    8MOL   C851 9265   0.065   2.667   4.417  0.0902 -0.0664  0.4743
    8MOL   C852 9266   0.060   2.529   4.482 -0.0279 -0.6330  1.0825
    8MOL   O853 9267   7.755   2.432   4.402  0.2431 -0.2778  0.0874
    8MOL   C854 9268   7.727   2.312   4.459 -0.3435 -0.1830  0.6289
    8MOL   O855 9269   0.003   2.274   4.570 -0.3320 -0.5209  0.2806
    8MOL   C856 9270   7.638   2.229   4.361  0.3412  0.4656 -0.5373
    8MOL   C857 9271   7.586   2.091   4.400  0.0658  0.6511  0.0751
    8MOL   C858 9272   7.460   2.057   4.316  0.4387  0.0389 -0.1648
    8MOL   C859 9273   7.334   2.120   4.379  0.0291 -0.0788 -0.7501
    8MOL   C860 9274   7.202   2.070   4.326  0.4795 -0.6148  0.2448
    8MOL   C861 9275   7.088   2.139   4.407 -0.3596  1.4522  0.5766
    8MOL   C862 9276   6.958   2.054   4.386 -0.5600  0.4927 -0.0612
    8MOL   C863 9277   6.830   2.096   4.465 -0.5045 -0.5024  0.6607
    8MOL   C864 9278   6.756   2.209   4.390 -0.4861  0.3416  0.3812
    8MOL   O865 9279   6.677   2.186   4.301  0.1869 -1.1549 -0.4194
    8MOL   H866 9280   0.356   3.165   5.128 -0.0808  0.3666 -0.4578
    8MOL   H867 9281   0.463   3.304   5.143 -0.6798  0.4016 -0.0732
    8MOL   H868 9282   0.310   3.309   4.954  1.2199  1.8864 -1.5006
    8MOL   H869 9283   0.461   3.296   4.875 -1.1495  1.1232 -0.9455
    8MOL   H870 9284   0.415   3.036   4.853  1.0744  1.7272  0.6534
    8MOL   H871 9285   0.271   3.057   4.935  0.6202  1.7457  1.9540
    8MOL   H872 9286   0.181   3.195   4.762 -0.1923 -0.1557  0.9054
    8MOL   H873 9287   0.322   3.189   4.665  0.3223  2.1591  2.7612
    8MOL   H874 9288   0.162   2.940   4.738 -0.3605 -1.7306 -1.8535
    8MOL   H875 9289   0.297   2.956   4.629  1.5063  2.6712 -0.7848
    8MOL   H876 9290   0.159   3.120   4.501  0.9289  1.6058  2.6294
    8MOL   H877 9291   0.014   3.050   4.593 -1.0074  0.4076 -3.0473
    8MOL   H878 9292   0.177   2.903   4.390  0.2665 -1.2100  0.5602
    8MOL   H879 9293   0.004   2.943   4.394  0.0479  0.2638  0.6262
    8MOL   H880 9294   7.724   2.778   4.577 -1.6856  2.5282 -2.4698
    8MOL   H881 9295   0.141   2.762   4.591 -1.4860  0.3580  1.9642
    8MOL   H882 9296   7.740   2.673   4.344  0.6907  0.0353 -0.1912
    8MOL   H883 9297   0.155   2.672   4.356 -1.3549  1.1137 -1.6809
    8MOL   H884 9298   0.159   2.488   4.505 -0.0421 -2.0416 -1.1972
    8MOL   H885 9299   0.006   2.538   4.577  0.1176 -1.6552  1.2659
    8MOL   H886 9300   7.702   2.204   4.276 -0.5515 -0.1749 -1.0248
    8MOL   H887 9301   7.557   2.290   4.323 -1.7312 -1.1935  1.0638
    8MOL   H888 9302   7.564   2.077   4.506 -2.6638  1.9941 -0.2648
    8MOL   H889 9303   7.664   2.015   4.393 -1.0035 -0.6116  1.3679
    8MOL   H890 9304   7.437   1.950   4.307  3.1029 -0.6467  0.6453
    8MOL   H891 9305   7.464   2.104   4.218  1.1231  0.3449  0.0072
    8MOL   H892 9306   7.324   2.228   4.372  0.1737 -0.0124  0.0093
    8MOL   H893 9307   7.334   2.106   4.487  0.1718 -0.9647 -0.8578
    8MOL   H894 9308   7.195   2.087   4.219  0.9058  1.7316  0.5507
    8MOL   H895 9309   7.195   1.961   4.325 -2.2495 -0.4676 -1.3966
    8MOL   H896 9310   7.121   2.148   4.510 -0.2511  4.0173  0.3574
    8MOL   H897 9311   7.059   2.239   4.375 -1.1749  1.0535  0.0470
    8MOL   H898 9312   6.982   1.957   4.428 -0.9224  0.2338 -0.4506
    8MOL   H899 9313   6.926   2.032   4.284  0.3212 -0.6235 -0.1014
    8MOL   H900 9314   6.759   2.013   4.466 -0.9194 -0.1846 -0.9601
    8MOL   H901 9315   6.825   2.113   4.572 -0.9247 -1.1672  0.7524
    8MOL   O902 9316   6.800   2.318   4.435  0.3825 -0.4033  0.1418
    8MOL   C903 9317   6.749   2.444   4.399  0.4606  0.1956 -0.4683
    8MOL   C904 9318   6.860   2.535   4.336  0.2002 -0.3322 -0.8907
    8MOL   C905 9319   6.813   2.672   4.313  0.4619 -0.3568 -0.6551
    8MOL   C906 9320   6.909   2.763   4.234 -0.2465  0.1541  0.1170
    8MOL   C907 9321   7.050   2.779   4.294  0.4090  0.4440  0.1454
    8MOL   C908 9322   7.051   2.836   4.437  0.2004 -0.2763  0.2860
    8MOL   C909 9323   7.011   2.984   4.441  0.4230  0.6140  0.5842
    8MOL   C910 9324   7.010   3.056   4.572  0.7994  0.4826  0.2872
    8MOL   C911 9325   6.893   3.003   4.662 -0.1541 -0.1633 -0.1010
    8MOL   C912 9326   6.867   3.110   4.773  0.2842  0.7259 -0.3347
    8MOL   O913 9327   6.972   3.094   4.868 -0.3521 -0.3127  0.0537
    8MOL   C914 9328   6.960   3.181   4.973 -0.3523  0.2575  0.4219
    8MOL   O915 9329   6.868   3.267   4.991  0.0023 -0.4686  0.1493
    8MOL   C916 9330   7.078   3.167   5.066 -0.3688 -0.3239  0.4079
    8MOL   C917 9331   7.075   3.042   5.145 -0.0882 -0.2277 -0.6630
    8MOL   C918 9332   7.203   3.005   5.228  0.7628  0.3491  0.4194
    8MOL   C919 9333   7.177   2.918   5.349 -0.0065  0.2667  0.0634
    8MOL   C920 9334   7.301   2.863   5.417 -0.5728 -0.0919  0.9697
    8MOL   C921 9335   7.263   2.786   5.546 -0.0833 -0.4869  0.0590
    8MOL   C922 9336   7.252   2.637   5.527 -0.0801  0.6522 -0.5631
    8MOL   C923 9337   7.256   2.553   5.663 -0.5858 -0.0556  0.0529
    8MOL   C924 9338   7.124   2.535   5.740 -0.3482 -0.7088  0.3467
    8MOL   O925 9339   7.112   2.588   5.850 -0.1028 -0.5732  0.0688
    8MOL   H926 9340   6.660   2.434   4.338 -1.0234 -0.1414  1.6733
    8MOL   H927 9341   6.709   2.501   4.483  0.1937  0.5531 -0.8397
    8MOL   H928 9342   6.941   2.539   4.410  0.3568  0.2291 -1.0910
    8MOL   H929 9343   6.897   2.485   4.247 -1.0905  0.6061 -1.9666
    8MOL   H930 9344   6.725   2.662   4.250  0.5317 -1.3296 -0.6149
    8MOL   H931 9345   6.784   2.721   4.406  1.0874  1.1208 -1.2269
    8MOL   H932 9346   6.918   2.714   4.137 -1.2195 -1.7216  0.9461
    8MOL   H933 9347   6.847   2.852   4.224  0.6140  0.8784  1.0656
    8MOL   H934 9348   7.106   2.844   4.227 -0.5611 -0.1769 -1.2866
    8MOL   H935 9349   7.099   2.682   4.286 -0.1724  0.2345 -1.0100
    8MOL   H936 9350   7.149   2.810   4.479  0.5643 -0.0568 -0.4181
    8MOL   H937 9351   6.983   2.782   4.503  0.6223  1.4904  2.2195
    8MOL   H938 9352   6.911   3.006   4.404  1.0896 -2.7093 -3.5580
    8MOL   H939 9353   7.081   3.043   4.382  0.8482 -1.8656 -1.4734
    8MOL   H940 9354   6.975   3.156   4.547  0.0655  0.6655  1.9905
    8MOL   H941 9355   7.102   3.046   4.630  1.8693 -0.2363 -1.4772
    8MOL   H942 9356   6.798   2.989   4.609 -0.1361  0.3636 -0.2705
    8MOL   H943 9357   6.918   2.906   4.705  1.1205 -1.3311 -3.3080
    8MOL   H944 9358   6.867   3.213   4.737 -2.9896  0.6115 -0.8143
    8MOL   H945 9359   6.775   3.093   4.830  0.7751  0.8453  0.5147
    8MOL   H946 9360   7.069   3.251   5.135  2.2066 -0.8972  1.5260
    8MOL   H947 9361   7.172   3.172   5.011 -0.6923 -1.8083 -0.3266
    8MOL   H948 9362   7.037   2.960   5.085  1.2006 -0.5264 -1.0957
    8MOL   H949 9363   6.995   3.062   5.217  1.2896  0.7777  0.6298
    8MOL   H950 9364   7.257   3.094   5.260 -1.8596  0.7575  3.9657
    8MOL   H951 9365   7.274   2.951   5.166  1.0709 -1.8360  2.6171
    8MOL   H952 9366   7.102   2.846   5.316  0.9614  0.1910 -2.0448
    8MOL   H953 9367   7.130   2.983   5.423 -1.1064 -2.2044  1.5904
    8MOL   H954 9368   7.356   2.805   5.343  3.8301  3.7501  1.0031
    8MOL   H955 9369   7.377   2.934   5.450 -0.4939  0.5744 -0.6417
    8MOL   H956 9370   7.342   2.799   5.620  1.5773  0.1579 -1.7679
    8MOL   H957 9371   7.166   2.820   5.583 -0.0490 -0.6295  0.2836
    8MOL   H958 9372   7.315   2.585   5.455  1.5776  0.4709  1.0000
    8MOL   H959 9373   7.152   2.626   5.485  0.3508 -3.7375 -0.7077
    8MOL   H960 9374   7.279   2.451   5.632 -0.8033  0.7155 -2.7962
    8MOL   H961 9375   7.339   2.601   5.715 -1.8979  2.0714  0.2320
    8MOL   O962 9376   7.042   2.453   5.682 -0.2681  0.5933  0.2330
    8MOL   C963 9377   6.927   2.422   5.753 -0.4945  1.0257  0.4342
    8MOL   C964 9378   6.956   2.287   5.820  0.3945  0.4418 -0.0797
    8MOL   C965 9379   6.983   2.174   5.722 -0.1826 -0.6553  0.1579
    8MOL   C966 9380   6.978   2.030   5.766 -0.6068 -0.5045 -0.0381
    8MOL   C967 9381   7.079   1.989   5.878  1.1541  0.1144  0.2057
    8MOL   C968 9382   7.059   1.852   5.933 -0.7754  0.5949  1.0205
    8MOL   C969 9383   7.124   1.741   5.852 -0.3937 -0.6827 -0.2009
    8MOL   C970 9384   7.078   1.604   5.908  0.7856 -0.1164  0.0567
    8MOL   C971 9385   7.163   1.478   5.876 -0.3020  0.5695  0.8278
    8MOL   C972 9386   7.106   1.357   5.938 -0.1142  0.2394 -0.5799
    8MOL   O973 9387   6.983   1.338   5.874 -0.0135  0.0367 -0.0145
    8MOL   C974 9388   6.873   1.311   5.943  0.6998  0.3646  0.0457
    8MOL   O975 9389   6.863   1.298   6.063 -0.6560  0.1434  0.2237
    8MOL   C976 9390   6.751   1.297   5.849  0.7763 -0.6298  0.1902
    8MOL   C977 9391   6.724   1.427   5.768  0.0753 -0.8509  0.0801
    8MOL   C978 9392   6.680   1.546   5.858  0.1932 -0.1353 -0.0886
    8MOL   C979 9393   6.640   1.670   5.777 -0.6552  0.3899 -0.1022
    8MOL   C980 9394   6.639   1.794   5.870  0.3500 -0.1180  0.6324
    8MOL   C981 9395   6.589   1.920   5.800 -0.7067  0.0890 -0.4162
    8MOL   C982 9396   6.570   2.041   5.893  0.2918 -0.3653  0.2257
    8MOL   C983 9397   6.491   2.165   5.835  0.3331  0.5544 -0.1183
    8MOL   C984 9398   6.536   2.290   5.910  0.3033  0.9231 -0.2089
    8MOL   O985 9399   6.621   2.363   5.867  0.0983 -0.4764 -0.0123
    8MOL   H986 9400   6.911   2.486   5.840  0.8810  2.0959 -0.0923
    8MOL   H987 9401   6.833   2.421   5.697  0.7290 -3.4559 -1.7743
    8MOL   H988 9402   7.027   2.310   5.898 -1.3360  3.0874  0.7506
    8MOL   H989 9403   6.871   2.252   5.878 -0.3739 -1.0655 -2.0515
    8MOL   H990 9404   6.918   2.187   5.636 -1.5806  0.4277  1.3555
    8MOL   H991 9405   7.083   2.192   5.684  0.1859 -0.1912  1.3112
    8MOL   H992 9406   6.877   1.996   5.791 -0.8508  1.9005  2.4224
    8MOL   H993 9407   7.001   1.958   5.687  0.5258  0.5267 -0.6548
    8MOL   H994 9408   7.082   2.062   5.958 -1.3111  1.9632 -1.3131
    8MOL   H995 9409   7.183   1.998   5.847  0.8486  1.0801 -0.5695
    8MOL   H996 9410   6.951   1.835   5.934 -1.3160  3.0294 -3.5068
    8MOL   H997 9411   7.099   1.845   6.034  0.9934  2.2045  0.4500
    8MOL   H998 9412   7.233   1.742   5.855 -0.3849 -0.1034 -0.6706
    8MOL   H999 9413   7.108   1.753   5.745  1.4481  0.4212 -0.3926
    8MOL     H1 9414   6.976   1.590   5.874  0.5702 -0.7565  0.9673
    8MOL     H2 9415   7.061   1.612   6.016 -3.2590  1.1097 -0.5995
    8MOL     H3 9416   7.182   1.468   5.769  0.5618  2.6434  0.7542
    8MOL     H4 9417   7.258   1.495   5.927 -0.0657  1.1614  0.2149
    8MOL     H5 9418   7.171   1.271   5.920  1.1013  1.1273 -0.4648
    8MOL     H6 9419   7.091   1.382   6.043  1.4133  1.2006 -0.5804
    8MOL     H7 9420   6.661   1.280   5.909  0.0906  2.2884  0.1154
    8MOL     H8 9421   6.760   1.216   5.778 -0.3758 -0.7008  0.1071
    8MOL     H9 9422   6.655   1.409   5.686  0.2092  2.4835 -0.8298
    8MOL    H10 9423   6.821   1.444   5.721 -0.5085  0.0724 -0.7854
    8MOL    H11 9424   6.761   1.569   5.928  1.7387 -2.9031 -0.8571
    8MOL    H12 9425   6.595   1.518   5.920 -0.0475 -3.3464 -1.7424
    8MOL    H13 9426   6.543   1.644   5.736  0.0013  0.5872 -1.8281
    8MOL    H14 9427   6.714   1.680   5.698 -0.1974  0.0956  0.2839
    8MOL    H15 9428   6.569   1.763   5.947  1.3314 -4.1053  0.0315
    8MOL    H16 9429   6.734   1.815   5.920  0.1131  1.1554  0.5682
    8MOL    H17 9430   6.661   1.938   5.720  0.5096 -0.2805  0.5915
    8MOL    H18 9431   6.489   1.890   5.767 -1.9817  0.7833  2.7277
    8MOL    H19 9432   6.665   2.075   5.934  0.5061  0.7762 -1.1780
    8MOL    H20 9433   6.522   2.017   5.988 -1.9249  2.2813 -0.1591
    8MOL    H21 9434   6.510   2.172   5.728  0.4760  0.9732 -0.0651
    8MOL    H22 9435   6.382   2.167   5.846  0.3294 -0.3151 -0.0142
    8MOL    O23 9436   6.471   2.309   6.024  0.1179 -0.2779  0.3865
    8MOL    C24 9437   6.511   2.406   6.120  0.0325  0.4009 -0.2058
    8MOL    C25 9438   6.601   2.344   6.231 -0.2903  0.6407  0.6992
    8MOL    C26 9439   6.746   2.295   6.190  0.9535 -0.4244 -0.2531
    8MOL    C27 9440   6.849   2.296   6.303  0.3090 -0.1587  0.3703
    8MOL    C28 9441   6.984   2.239   6.269 -0.5328 -0.3621  0.5018
    8MOL    C29 9442   7.089   2.239   6.384  0.3293  0.0134  0.7480
    8MOL    C30 9443   7.223   2.180   6.342 -0.1572  0.0383 -0.2526
    8MOL    C31 9444   7.214   2.032   6.312  0.0820 -0.2492 -1.1902
    8MOL    C32 9445   7.345   1.979   6.250  0.9195 -0.2638 -0.4957
    8MOL    C33 9446   7.338   1.821   6.268 -1.0723 -0.7794  0.9337
    8MOL    O34 9447   7.416   1.760   6.173  0.2447  0.1921 -0.0133
    8MOL    C35 9448   7.409   1.629   6.148  0.4978 -0.2783 -0.5183
    8MOL    O36 9449   7.321   1.554   6.197  0.0137 -0.2725  0.4145
    8MOL    C37 9450   7.511   1.589   6.047 -0.4867 -0.6210 -0.6484
    8MOL    C38 9451   7.660   1.624   6.081  0.5170  0.2356  0.0031
    8MOL    C39 9452   7.716   1.584   6.225  0.6571 -0.1513 -0.3703
    8MOL    C40 9453   0.095   1.644   6.253 -0.4932  0.4440 -0.3462
    8MOL    C41 9454   0.214   1.588   6.178 -0.0911  0.2432  0.2845
    8MOL    C42 9455   0.252   1.445   6.222  0.2723  0.2930 -0.0784
    8MOL    C43 9456   0.387   1.416   6.154 -0.9472  0.1368 -0.4328
    8MOL    C44 9457   0.445   1.277   6.203  0.9778  0.4539 -0.0156
    8MOL    C45 9458   0.377   1.153   6.141 -0.5111 -0.2719 -0.7601
    8MOL    O46 9459   0.394   1.043   6.194 -0.3801  0.1390 -0.1263
    8MOL    H47 9460   6.546   2.495   6.068 -0.8812  0.4922 -0.6785
    8MOL    H48 9461   6.417   2.443   6.160  0.7039 -0.6562  2.3953
    8MOL    H49 9462   6.611   2.417   6.311  0.8320  0.8616  0.3609
    8MOL    H50 9463   6.548   2.267   6.286  0.2380 -1.0306 -1.0633
    8MOL    H51 9464   6.730   2.204   6.132 -1.2172 -0.7717  0.8576
    8MOL    H52 9465   6.780   2.367   6.115  1.0419  1.5531  1.6314
    8MOL    H53 9466   6.855   2.399   6.337 -0.5723  0.1668 -0.4447
    8MOL    H54 9467   6.810   2.236   6.385 -0.5254 -0.6982 -0.4136
    8MOL    H55 9468   7.025   2.299   6.187  0.2782 -2.3625 -0.5818
    8MOL    H56 9469   6.973   2.140   6.226  2.0483 -0.1244 -0.7838
    8MOL    H57 9470   7.042   2.182   6.464 -0.8008 -0.6563 -0.3727
    8MOL    H58 9471   7.096   2.344   6.415 -1.2682  0.0288  1.1307
    8MOL    H59 9472   7.300   2.189   6.418  0.0471 -1.6194 -0.2390
    8MOL    H60 9473   7.270   2.233   6.259 -0.0661 -1.2712 -1.0490
    8MOL    H61 9474   7.132   2.011   6.243 -0.7527  1.8746 -0.8835
    8MOL    H62 9475   7.192   1.976   6.403  2.7066 -0.2248 -0.5090
    8MOL    H63 9476   7.348   1.997   6.142  0.7375 -1.6527 -0.7340
    8MOL    H64 9477   7.438   2.020   6.289  1.6456 -2.4810  0.1460
    8MOL    H65 9478   7.367   1.794   6.370 -2.6271 -2.2195  1.0336
    8MOL    H66 9479   7.235   1.786   6.255 -0.4233 -2.3822 -0.1448
    8MOL    H67 9480   7.480   1.637   5.954 -1.9406 -0.8707 -0.3083
    8MOL    H68 9481   7.499   1.483   6.020  0.1521 -0.5146 -1.3936
    8MOL    H69 9482   7.681   1.731   6.076 -0.1153  0.3149 -1.0942
    8MOL    H70 9483   7.725   1.572   6.011  2.1473 -0.7845  2.2102
    8MOL    H71 9484   7.717   1.476   6.234 -2.6063 -0.3228 -1.3415
    8MOL    H72 9485   7.655   1.633   6.301  0.2291  0.0388 -0.8353
    8MOL    H73 9486   0.106   1.631   6.360 -0.6113  1.2104 -0.2363
    8MOL    H74 9487   0.095   1.753   6.243 -0.2688  0.3665 -1.2742
    8MOL    H75 9488   0.201   1.585   6.070 -2.4807 -0.4388  0.5681
    8MOL    H76 9489   0.292   1.661   6.201 -1.1092  1.7753 -1.0133
    8MOL    H77 9490   0.268   1.438   6.330  0.6389 -0.3259 -0.1726
    8MOL    H78 9491   0.177   1.369   6.199 -0.2273  1.3273 -1.9332
    8MOL    H79 9492   0.470   1.481   6.182 -2.6423  2.4399 -0.5962
    8MOL    H80 9493   0.374   1.416   6.046 -1.4507 -0.9295 -0.3864
    8MOL    H81 9494   0.551   1.275   6.175  0.7516 -0.2999 -0.8494
    8MOL    H82 9495   0.447   1.262   6.311 -2.9664 -1.1701 -0.1044
    8MOL    O83 9496   0.298   1.172   6.037 -0.2283  0.0388 -0.0994
    8MOL    C84 9497   0.219   1.062   5.995 -0.3032  0.0338 -0.2362
    8MOL    C85 9498   0.132   1.123   5.887  0.8646 -0.2710  0.7974
    8MOL    C86 9499   0.002   1.190   5.942  0.4800  0.0905  0.4658
    8MOL    C87 9500   7.662   1.078   5.985 -0.1496  0.0868 -0.4556
    8MOL    C88 9501   7.520   1.129   6.018  0.3448 -0.7786 -0.1977
    8MOL    C89 9502   7.435   1.032   6.093  0.5592 -0.0871 -0.0666
    8MOL    C90 9503   7.288   1.083   6.120 -0.7807 -0.4932 -0.3804
    8MOL    C91 9504   7.202   1.009   6.221 -0.3613 -0.7089 -0.5040
    8MOL    C92 9505   7.059   1.061   6.210  0.2344  0.3189  0.0007
    8MOL    C93 9506   6.975   0.996   6.328 -0.5522 -0.6553  0.2405
    8MOL    O94 9507   6.842   1.044   6.331  0.0091  0.0582  0.5765
    8MOL    C95 9508   6.752   0.995   6.254  1.3512  1.2349  0.1662
    8MOL    O96 9509   6.766   0.905   6.167 -0.8218  0.2727  0.2914
    8MOL    C97 9510   6.610   1.042   6.292  0.5645 -0.4068  0.8013
    8MOL    C98 9511   6.493   0.956   6.250 -0.0632 -0.0956  0.3539
    8MOL    C99 9512   6.363   1.025   6.264  0.2488 -0.3445 -0.2421
    8MOL   C100 9513   6.247   0.934   6.231 -0.8568  0.2055  0.1968
    8MOL   C101 9514   6.117   1.006   6.193 -0.5571 -0.1653  0.0283
    8MOL   C102 9515   5.996   0.915   6.226  0.5957 -0.0193  0.2862
    8MOL   C103 9516   5.961   0.887   6.376 -1.1204 -0.1169  0.2499
    8MOL   C104 9517   5.869   0.764   6.393 -0.3435 -0.7184  0.0118
    8MOL   C105 9518   5.830   0.736   6.540  0.3708  0.4531 -0.1719
    8MOL   O106 9519   5.815   0.619   6.574 -0.7617 -0.8776 -0.2704
    8MOL   H107 9520   0.275   0.980   5.951  1.5111  1.7278 -1.2017
    8MOL   H108 9521   0.160   1.032   6.081  0.4402  1.7979  0.9049
    8MOL   H109 9522   0.181   1.199   5.825  0.9300 -0.7455  0.2656
    8MOL   H110 9523   0.095   1.049   5.817 -0.6437  0.5795  0.6892
    8MOL   H111 9524   0.022   1.254   6.029  0.1726  0.9920 -0.1222
    8MOL   H112 9525   7.710   1.252   5.867  0.6104 -0.2900  0.0699
    8MOL   H113 9526   7.658   1.009   5.900  1.7774  0.2622 -0.7228
    8MOL   H114 9527   7.705   1.024   6.069 -0.8844  1.1408  0.6092
    8MOL   H115 9528   7.478   1.160   5.923  0.6043 -0.6015 -0.2558
    8MOL   H116 9529   7.530   1.228   6.065 -0.8392 -0.4905 -0.5422
    8MOL   H117 9530   7.487   1.019   6.188  0.8256  1.5092  0.0287
    8MOL   H118 9531   7.439   0.938   6.039 -0.7832  1.0290 -2.1723
    8MOL   H119 9532   7.229   1.074   6.029 -0.1680 -2.0711 -0.6367
    8MOL   H120 9533   7.296   1.188   6.150  1.1568 -0.2920 -1.4600
    8MOL   H121 9534   7.246   1.023   6.320 -0.5909 -0.5429 -0.4251
    8MOL   H122 9535   7.217   0.901   6.213  2.1986 -0.5237  1.0604
    8MOL   H123 9536   7.047   1.168   6.230 -0.1908  0.0059  1.4454
    8MOL   H124 9537   7.021   1.032   6.112  0.0603 -2.9186  0.9666
    8MOL   H125 9538   6.986   0.888   6.326  2.8821 -0.3675  0.3614
    8MOL   H126 9539   7.019   1.025   6.424 -0.8906 -2.8241  1.0923
    8MOL   H127 9540   6.587   1.140   6.252  2.6375 -0.6536 -1.1048
    8MOL   H128 9541   6.605   1.053   6.401  1.0323 -0.1641  0.7963
    8MOL   H129 9542   6.507   0.864   6.308  1.3688  1.0514  1.8577
    8MOL   H130 9543   6.502   0.927   6.145  1.9210 -1.1092  0.7647
    8MOL   H131 9544   6.367   1.116   6.204  0.2858 -1.2439 -1.6200
    8MOL   H132 9545   6.361   1.061   6.367  1.8936 -0.1303 -0.2554
    8MOL   H133 9546   6.232   0.866   6.315  1.2563 -0.5830 -0.0549
    8MOL   H134 9547   6.279   0.874   6.146 -0.8205  0.6876 -0.1362
    8MOL   H135 9548   6.114   1.110   6.224  0.0125  1.3913 -4.6375
    8MOL   H136 9549   6.120   1.012   6.084  0.1437 -1.4368 -0.0350
    8MOL   H137 9550   5.916   0.954   6.163  0.0079  2.5675  2.5352
    8MOL   H138 9551   6.011   0.813   6.191 -0.3746 -0.9009  2.3599
    8MOL   H139 9552   5.923   0.984   6.406 -0.8096 -0.0759  0.5123
    8MOL   H140 9553   6.054   0.867   6.429 -1.6647 -1.7370  0.6273
    8MOL   H141 9554   5.777   0.768   6.334 -0.3112 -0.6515 -0.0337
    8MOL   H142 9555   5.902   0.673   6.342 -3.4209 -0.4759 -2.5567
    8MOL   O143 9556   5.789   0.850   6.605 -0.0753 -0.1698  0.3918
    8MOL   C144 9557   5.698   0.835   6.712  0.0369  0.1050  0.2663
    8MOL   C145 9558   5.657   0.966   6.777  0.2571  0.3354 -0.2837
    8MOL   C146 9559   5.592   1.048   6.671  0.5759  0.6429 -0.6155
    8MOL   C147 9560   5.512   1.168   6.705  0.2813  0.2244 -0.5583
    8MOL   C148 9561   5.442   1.239   6.586 -1.2337  0.0303 -0.0447
    8MOL   C149 9562   5.387   1.371   6.615 -0.7270  0.7252  0.1584
    8MOL   C150 9563   5.354   1.452   6.486  0.0848 -0.3280  0.4888
    8MOL   C151 9564   5.470   1.542   6.436  0.1578 -0.5691  0.1571
    8MOL   C152 9565   5.496   1.670   6.526 -0.5076  0.1874 -0.0965
    8MOL   C153 9566   5.381   1.763   6.535 -0.2975  0.2348  0.3586
    8MOL   O154 9567   5.421   1.862   6.627  0.1199  0.3340 -0.2736
    8MOL   C155 9568   5.475   1.978   6.581 -0.9259  0.3282 -0.8426
    8MOL   O156 9569   5.487   2.012   6.465  0.1610 -0.1836  0.1906
    8MOL   C157 9570   5.513   2.079   6.684  0.4720  0.0927 -0.0878
    8MOL   C158 9571   5.447   2.057   6.823 -0.0751 -0.2818  0.5497
    8MOL   C159 9572   5.290   2.065   6.824 -0.6659  0.6883  0.6542
    8MOL   C160 9573   5.243   2.206   6.789  0.8425 -0.7021 -0.0058
    8MOL   C161 9574   5.092   2.220   6.798 -0.3083 -0.7240  0.1509
    8MOL   C162 9575   5.026   2.188   6.933 -0.3577 -0.3775 -0.3555
    8MOL   C163 9576   4.876   2.234   6.929  0.2356  0.3136 -1.4714
    8MOL   C164 9577   4.806   2.248   7.073 -0.2638  0.4830 -0.1064
    8MOL   C165 9578   4.806   2.125   7.160  0.2943  0.2273 -0.2847
    8MOL   O166 9579   4.816   2.015   7.114 -0.3134 -0.0749 -0.1661
    8MOL   H167 9580   5.611   0.775   6.688  1.4783 -1.4333 -1.3168
    8MOL   H168 9581   5.752   0.768   6.779  0.6724  0.5058  0.1632
    8MOL   H169 9582   5.590   0.947   6.861  1.9537 -2.8028  0.4236
    8MOL   H170 9583   5.742   1.019   6.820 -1.1507  2.0063  0.5477
    8MOL   H171 9584   5.668   1.070   6.596 -0.0753  2.2969 -0.8105
    8MOL   H172 9585   5.511   0.990   6.626  2.1960 -1.2811 -1.0676
    8MOL   H173 9586   5.432   1.140   6.773  0.6782  0.9386  0.2159
    8MOL   H174 9587   5.578   1.233   6.762 -0.3618  1.7224 -1.4814
    8MOL   H175 9588   5.372   1.168   6.543 -0.8519 -1.0227  1.0266
    8MOL   H176 9589   5.525   1.253   6.517 -1.5218  0.0791 -0.3804
    8MOL   H177 9590   5.458   1.428   6.674 -2.8491  1.3007  2.2536
    8MOL   H178 9591   5.293   1.353   6.668 -0.7378 -0.8877 -0.3838
    8MOL   H179 9592   5.263   1.510   6.502  0.1675 -0.3373  1.0044
    8MOL   H180 9593   5.333   1.382   6.405 -0.7038 -2.4298  2.4590
    8MOL   H181 9594   5.429   1.581   6.343 -1.2633 -1.4251  0.3976
    8MOL   H182 9595   5.557   1.482   6.411  0.8128  0.9959 -1.3773
    8MOL   H183 9596   5.525   1.625   6.621 -0.1932  1.4409  0.4028
    8MOL   H184 9597   5.591   1.712   6.494  0.1640 -1.8900 -0.9430
    8MOL   H185 9598   5.359   1.798   6.434 -0.6118 -2.0080 -0.3882
    8MOL   H186 9599   5.291   1.714   6.573 -0.8488  1.2811  0.4092
    8MOL   H187 9600   5.473   2.170   6.637  2.4796  0.3850 -1.3090
    8MOL   H188 9601   5.621   2.094   6.692  0.3479  0.0354  1.7699
    8MOL   H189 9602   5.483   2.123   6.902 -2.1593  0.2817  1.0620
    8MOL   H190 9603   5.479   1.958   6.856  2.1971 -0.1150 -1.1032
    8MOL   H191 9604   5.269   2.042   6.928  2.7717 -1.6578  0.9024
    8MOL   H192 9605   5.246   1.989   6.761 -1.1829  0.5628  1.1579
    8MOL   H193 9606   5.272   2.230   6.687  1.2416 -1.0487  0.0253
    8MOL   H194 9607   5.293   2.279   6.853 -0.3018  0.2326 -0.1514
    8MOL   H195 9608   5.054   2.315   6.762 -0.8603 -1.0524 -0.1446
    8MOL   H196 9609   5.039   2.150   6.732  1.2989 -2.7525  0.9592
    8MOL   H197 9610   5.028   2.085   6.969  1.5855  0.1507  1.1532
    8MOL   H198 9611   5.068   2.259   7.005  0.6457  1.3327 -2.5686
    8MOL   H199 9612   4.821   2.156   6.876 -1.0455 -0.3885  0.7902
    8MOL   H200 9613   4.873   2.326   6.870  0.8624  0.7901 -0.7621
    8MOL   H201 9614   4.841   2.335   7.129  1.2636 -1.2589  1.7552
    8MOL   H202 9615   4.701   2.264   7.052 -0.8670 -1.7458  1.0240
    8MOL   H203 9616   4.789   2.142   7.267  0.1016 -0.1859 -0.2497
    9MOL     O1 9617   3.818   3.268   2.312 -0.5196 -0.0084 -0.5845
    9MOL     C2 9618   3.817   3.245   2.451  0.7574  0.0190 -0.8649
    9MOL     C3 9619   3.963   3.243   2.499 -0.0252 -0.2704  0.6369
    9MOL     C4 9620   4.026   3.100   2.494 -0.0972 -0.0175 -0.5107
    9MOL     C5 9621   4.154   3.074   2.575 -0.6982 -0.4947 -0.3062
    9MOL     C6 9622   4.201   2.930   2.557 -0.1124 -0.1837 -0.0931
    9MOL     C7 9623   4.320   2.881   2.647  0.2523  0.0659  0.1753
    9MOL     C8 9624   4.263   2.870   2.790  0.0224 -0.6903  0.6690
    9MOL     C9 9625   4.374   2.823   2.879 -0.0647  0.0092  0.3178
    9MOL    C10 9626   4.338   2.854   3.025  0.0221  0.5844  0.1382
    9MOL    C11 9627   4.450   2.822   3.123 -0.8199 -0.5591 -0.6184
    9MOL    O12 9628   4.571   2.893   3.092  0.0263  0.3148  0.0558
    9MOL    C13 9629   4.634   2.960   3.199  0.0052  0.2451  0.5955
    9MOL    O14 9630   4.597   2.978   3.315 -0.6867 -0.0426  0.0968
    9MOL    C15 9631   4.767   3.022   3.141 -0.3729 -0.4424 -0.0204
    9MOL    C16 9632   4.754   3.169   3.090  0.8255  0.4171 -0.1834
    9MOL    C17 9633   4.617   3.218   3.030 -0.3992  0.7130  0.0885
    9MOL    C18 9634   4.551   3.330   3.110  0.0267  0.0979  0.1691
    9MOL    C19 9635   4.424   3.396   3.045  0.2593  0.3041  0.1255
    9MOL    C20 9636   4.357   3.505   3.137 -0.4424 -0.3624  0.4537
    9MOL    C21 9637   4.236   3.566   3.072 -0.5166 -0.4045  0.5510
    9MOL    C22 9638   4.180   3.689   3.148  0.6110  1.0907  0.4902
    9MOL    C23 9639   4.039   3.732   3.089 -0.2689  0.3911  0.5842
    9MOL    O24 9640   4.006   3.703   2.980  0.4710 -0.3546 -0.7897
    9MOL    H25 9641   3.760   3.328   2.491  2.4642  0.1063  1.4410
    9MOL    H26 9642   3.760   3.155   2.478  0.5012  0.7261  0.9591
    9MOL    H27 9643   4.025   3.307   2.436 -0.4163  0.4712  0.9901
    9MOL    H28 9644   3.963   3.297   2.594  1.9221 -0.6021  0.8281
    9MOL    H29 9645   3.956   3.019   2.510 -0.4648  0.8715  2.7167
    9MOL    H30 9646   4.045   3.093   2.386 -2.6762 -1.9614 -0.8849
    9MOL    H31 9647   4.233   3.141   2.539 -0.3294 -1.6133 -1.6125
    9MOL    H32 9648   4.135   3.105   2.678 -0.4519 -0.6400 -0.2164
    9MOL    H33 9649   4.238   2.912   2.456 -1.7335 -1.8176 -0.4202
    9MOL    H34 9650   4.124   2.856   2.578 -0.0369 -0.2125  0.0893
    9MOL    H35 9651   4.397   2.959   2.644 -0.0120  0.4382  2.1895
    9MOL    H36 9652   4.370   2.789   2.617  1.5088  0.7774  0.0671
    9MOL    H37 9653   4.178   2.803   2.790 -1.5578  1.2521 -0.4659
    9MOL    H38 9654   4.218   2.965   2.818 -1.5755 -0.8904 -1.1240
    9MOL    H39 9655   4.468   2.866   2.846  0.0775 -1.3278 -1.0532
    9MOL    H40 9656   4.398   2.718   2.865 -1.6328 -0.5746  1.8269
    9MOL    H41 9657   4.343   2.963   3.033  1.5505  0.2755  4.4096
    9MOL    H42 9658   4.245   2.807   3.058 -0.1908  0.3635 -0.7545
    9MOL    H43 9659   4.412   2.835   3.225 -2.9312  3.8079 -1.8630
    9MOL    H44 9660   4.482   2.718   3.127  1.1551  0.0743  0.4434
    9MOL    H45 9661   4.801   2.958   3.060 -1.8547 -0.4540 -0.6448
    9MOL    H46 9662   4.835   3.022   3.226  0.5597  0.0518 -0.7534
    9MOL    H47 9663   4.831   3.189   3.015 -0.1676  0.5046 -1.1862
    9MOL    H48 9664   4.784   3.232   3.174  0.9441  1.8678 -1.2984
    9MOL    H49 9665   4.545   3.144   2.992 -0.0704  0.6804 -0.4693
    9MOL    H50 9666   4.648   3.264   2.937  0.6730  0.2361  0.2012
    9MOL    H51 9667   4.615   3.414   3.136 -0.9619  1.2083 -0.9235
    9MOL    H52 9668   4.534   3.295   3.212  0.9041 -1.6930 -0.2895
    9MOL    H53 9669   4.455   3.450   2.956 -1.9059 -0.1722 -0.9416
    9MOL    H54 9670   4.358   3.317   3.011 -0.5420  0.6099  0.9394
    9MOL    H55 9671   4.333   3.461   3.234 -1.8257 -0.4741  0.0652
    9MOL    H56 9672   4.424   3.588   3.162 -1.5266  0.6151  0.1317
    9MOL    H57 9673   4.160   3.489   3.062  0.2064 -0.7156 -3.3603
    9MOL    H58 9674   4.256   3.599   2.970 -0.8786  0.2863  0.7042
    9MOL    H59 9675   4.160   3.668   3.253 -0.9861  0.4872  0.0778
    9MOL    H60 9676   4.247   3.771   3.122  2.5204  0.5507  3.4750
    9MOL    H61 9677   3.859   3.352   2.296  1.7117 -1.1499 -0.9456
    9MOL    O62 9678   3.966   3.799   3.179 -0.7911  0.6177 -0.2113
    9MOL    C63 9679   3.838   3.854   3.151 -0.0819 -0.0851 -0.3181
    9MOL    C64 9680   3.855   4.000   3.107 -0.1393 -0.4326 -0.9253
    9MOL    C65 9681   3.729   4.081   3.099  0.1350 -0.0600  0.3736
    9MOL    C66 9682   3.774   4.223   3.045 -0.7263  0.0824 -0.0450
    9MOL    C67 9683   3.687   4.340   3.094 -0.3574 -0.0287  0.2807
    9MOL    C68 9684   3.539   4.323   3.054 -0.2425  0.6390  0.3342
    9MOL    C69 9685   3.498   4.365   2.910  0.3639  0.4125 -0.3779
    9MOL    C70 9686   3.349   4.357   2.899  0.4571  0.0475  0.2123
    9MOL    C71 9687   3.294   4.215   2.880 -0.6469 -0.3544 -0.3742
    9MOL    C72 9688   3.141   4.218   2.840 -0.8711 -0.8773  0.4446
    9MOL    O73 9689   3.114   4.114   2.751  0.3398  0.4563  0.4240
    9MOL    C74 9690   3.121   4.144   2.623  0.0927  0.2937 -0.2492
    9MOL    O75 9691   3.139   4.253   2.564 -0.0345  0.4143 -0.2293
    9MOL    C76 9692   3.112   4.015   2.535 -0.2294  0.0058  0.5445
    9MOL    C77 9693   3.198   4.022   2.408 -0.5579 -0.2871 -0.0412
    9MOL    C78 9694   3.195   3.882   2.340 -0.0779 -0.1566 -0.4856
    9MOL    C79 9695   3.266   3.887   2.206 -0.0844 -0.2263 -0.2692
    9MOL    C80 9696   3.186   3.954   2.095  0.3934  0.3240 -0.5348
    9MOL    C81 9697   3.141   3.849   1.987  0.1254 -0.6144  0.0030
    9MOL    C82 9698   3.075   3.902   1.865 -0.6849  0.1663 -0.4652
    9MOL    C83 9699   3.023   3.798   1.769 -0.2767 -0.1126  0.4880
    9MOL    C84 9700   2.904   3.842   1.686  0.0931 -0.0772  0.2583
    9MOL    O85 9701   2.917   3.848   1.563 -0.3600  0.1803 -0.4874
    9MOL    H86 9702   3.785   3.798   3.074  0.4902 -0.8468 -0.1732
    9MOL    H87 9703   3.777   3.861   3.241  1.1929 -2.2903  0.7789
    9MOL    H88 9704   3.915   4.056   3.179  1.1669 -1.8081 -0.9106
    9MOL    H89 9705   3.922   4.006   3.021  1.3033 -0.2126  0.1804
    9MOL    H90 9706   3.664   4.050   3.018 -0.9750  0.6822  0.9616
    9MOL    H91 9707   3.677   4.080   3.195 -0.9845  1.4863 -0.1943
    9MOL    H92 9708   3.872   4.246   3.085  0.2079 -0.6495 -1.8711
    9MOL    H93 9709   3.784   4.229   2.937 -1.0253 -0.0141 -0.0780
    9MOL    H94 9710   3.715   4.437   3.054  0.1548 -0.7307 -1.0858
    9MOL    H95 9711   3.688   4.352   3.202 -0.4615  0.6984  0.2029
    9MOL    H96 9712   3.492   4.393   3.123 -1.9688 -0.3136  0.1603
    9MOL    H97 9713   3.503   4.226   3.089  0.5327 -0.4777 -1.8981
    9MOL    H98 9714   3.554   4.303   2.840 -0.4246  0.1165 -0.7466
    9MOL    H99 9715   3.535   4.466   2.893  0.2816  0.1184 -2.4208
    9MOL   H100 9716   3.325   4.411   2.806  0.8720  1.2344  0.7844
    9MOL   H101 9717   3.304   4.410   2.983 -2.1917 -1.6599 -0.0788
    9MOL   H102 9718   3.346   4.141   2.818 -0.0751 -1.0769  0.9345
    9MOL   H103 9719   3.285   4.173   2.980 -3.3286  1.1912  0.0636
    9MOL   H104 9720   3.089   4.199   2.934 -0.0413  0.7809  1.2521
    9MOL   H105 9721   3.105   4.311   2.796  3.0327 -0.0661 -1.2565
    9MOL   H106 9722   3.008   3.987   2.515 -0.0307 -1.2632  1.2744
    9MOL   H107 9723   3.137   3.927   2.593 -1.3904 -0.6455  0.0852
    9MOL   H108 9724   3.295   4.049   2.449 -0.0545  0.4665 -1.6811
    9MOL   H109 9725   3.172   4.105   2.343 -0.9178  0.6082  1.2235
    9MOL   H110 9726   3.094   3.842   2.340 -1.1021  2.1822  2.3840
    9MOL   H111 9727   3.248   3.813   2.406  0.2996  2.4956  2.1285
    9MOL   H112 9728   3.292   3.788   2.169  2.0208 -0.5059  1.8231
    9MOL   H113 9729   3.364   3.930   2.226  0.7229 -1.1355 -2.1177
    9MOL   H114 9730   3.106   4.019   2.131 -0.5923  0.4094 -2.8385
    9MOL   H115 9731   3.249   4.023   2.038  1.5921  0.3840  0.8466
    9MOL   H116 9732   3.218   3.775   1.967 -0.2637 -1.4299  1.4320
    9MOL   H117 9733   3.065   3.784   2.031 -1.5406  0.9431 -0.5126
    9MOL   H118 9734   3.143   3.966   1.809  0.6833 -0.7051  0.1732
    9MOL   H119 9735   2.987   3.957   1.899  0.1297  0.8876  0.5082
    9MOL   H120 9736   3.104   3.762   1.706  0.4593  2.1530  0.0619
    9MOL   H121 9737   2.992   3.711   1.826  1.3830 -1.0656 -0.0384
    9MOL   O122 9738   2.793   3.857   1.756 -0.1345 -0.3712  0.1594
    9MOL   C123 9739   2.687   3.927   1.689 -0.6875  0.3057 -0.4348
    9MOL   C124 9740   2.595   3.979   1.794 -0.8288 -0.3496  0.3102
    9MOL   C125 9741   2.652   4.092   1.877 -0.1164  0.5609  0.0096
    9MOL   C126 9742   2.577   4.120   1.998  0.6513  0.0042  0.2654
    9MOL   C127 9743   2.650   4.199   2.112 -0.4538 -0.7388 -0.7533
    9MOL   C128 9744   2.771   4.122   2.182 -0.3418 -0.1067 -0.2230
    9MOL   C129 9745   2.826   4.188   2.305  0.0507 -0.4420 -0.0925
    9MOL   C130 9746   2.745   4.167   2.437  0.1177  0.3046  0.2274
    9MOL   C131 9747   2.760   4.274   2.543 -0.0140  0.2194  0.0670
    9MOL   C132 9748   2.703   4.236   2.672 -0.7178 -0.4004  0.3604
    9MOL   O133 9749   2.762   4.120   2.716  0.2339  0.0833  0.0524
    9MOL   C134 9750   2.758   4.094   2.853 -0.4447 -0.6770 -0.1362
    9MOL   O135 9751   2.707   4.155   2.943  0.3249 -0.2923 -0.2182
    9MOL   C136 9752   2.831   3.963   2.868 -0.9303  0.2922  0.6624
    9MOL   C137 9753   2.786   3.885   2.986  0.2253 -0.6618 -0.3958
    9MOL   C138 9754   2.642   3.823   2.994  0.0428 -0.3831  0.5007
    9MOL   C139 9755   2.631   3.728   3.117  0.5114  0.4528 -0.0294
    9MOL   C140 9756   2.487   3.678   3.145 -0.3762  0.2495  0.4998
    9MOL   C141 9757   2.377   3.778   3.166 -0.0910  0.1321 -0.4467
    9MOL   C142 9758   2.241   3.711   3.193 -0.5591  0.4211  0.3572
    9MOL   C143 9759   2.122   3.766   3.112  0.1078  0.0587  0.4531
    9MOL   C144 9760   2.070   3.896   3.166 -0.3760  0.3701  0.8632
    9MOL   O145 9761   2.055   3.990   3.090  0.0778  0.2736  0.0491
    9MOL   H146 9762   2.731   4.010   1.634 -0.7194  0.3866 -0.3385
    9MOL   H147 9763   2.650   3.852   1.620  0.3458 -1.5688  0.9754
    9MOL   H148 9764   2.511   4.023   1.740  0.3739 -0.5780 -1.8094
    9MOL   H149 9765   2.564   3.896   1.857  0.3274 -0.2630  1.0170
    9MOL   H150 9766   2.755   4.078   1.909 -0.0397 -1.7112 -1.1043
    9MOL   H151 9767   2.656   4.187   1.824 -1.9147  1.6403  1.7278
    9MOL   H152 9768   2.497   4.185   1.962  0.8256 -0.3994 -0.8606
    9MOL   H153 9769   2.531   4.037   2.051 -0.6948  1.0207  0.7333
    9MOL   H154 9770   2.573   4.227   2.184  0.5031 -1.7867  0.7175
    9MOL   H155 9771   2.690   4.294   2.079  1.0147 -1.8385 -2.2091
    9MOL   H156 9772   2.851   4.110   2.109  0.6041 -2.2914  1.1452
    9MOL   H157 9773   2.739   4.021   2.208  3.0703 -1.6730 -1.8062
    9MOL   H158 9774   2.829   4.294   2.279  1.4741 -0.7249 -1.1891
    9MOL   H159 9775   2.931   4.160   2.318 -0.0932 -0.7212  0.4653
    9MOL   H160 9776   2.777   4.066   2.464 -1.3764 -0.8214 -2.0878
    9MOL   H161 9777   2.642   4.153   2.405  0.1691 -1.6109  0.8299
    9MOL   H162 9778   2.868   4.287   2.551  0.1001 -0.3954 -0.4173
    9MOL   H163 9779   2.715   4.369   2.514 -0.6014  0.5619  1.9620
    9MOL   H164 9780   2.725   4.327   2.729 -0.0073  0.2910 -0.9771
    9MOL   H165 9781   2.595   4.229   2.661 -0.5941 -1.8188 -0.0291
    9MOL   H166 9782   2.933   3.993   2.894 -0.6972  0.4562 -0.3969
    9MOL   H167 9783   2.849   3.912   2.774  3.2783 -1.0994  2.0953
    9MOL   H168 9784   2.792   3.945   3.077  2.0047  0.1498 -1.0381
    9MOL   H169 9785   2.860   3.806   2.995  1.6833  0.4939 -2.0812
    9MOL   H170 9786   2.616   3.780   2.898 -1.5189 -1.7565  1.5183
    9MOL   H171 9787   2.564   3.898   3.004 -0.8564 -1.3679  0.9252
    9MOL   H172 9788   2.682   3.764   3.206  0.4142 -0.2001  0.2906
    9MOL   H173 9789   2.699   3.648   3.089 -1.7282 -0.7645 -2.2249
    9MOL   H174 9790   2.470   3.612   3.060  1.1815  2.5374 -1.6384
    9MOL   H175 9791   2.496   3.611   3.231  1.1378  0.8253  0.8093
    9MOL   H176 9792   2.390   3.839   3.256 -2.0576  2.2342 -1.5264
    9MOL   H177 9793   2.367   3.840   3.077  1.0823  0.2074 -0.5278
    9MOL   H178 9794   2.218   3.729   3.298  0.3823  2.5768  0.2036
    9MOL   H179 9795   2.247   3.602   3.187  0.1278  0.5206 -0.8282
    9MOL   H180 9796   2.163   3.770   3.011  0.3729 -1.4681  0.4927
    9MOL   H181 9797   2.036   3.700   3.108  0.5120 -0.4169 -0.5932
    9MOL   O182 9798   2.039   3.899   3.294 -0.1151 -0.1859 -0.6081
    9MOL   C183 9799   1.984   4.017   3.365  0.3996  0.1446  0.0862
    9MOL   C184 9800   1.835   3.991   3.386  0.0945 -0.7768  0.1108
    9MOL   C185 9801   1.758   4.088   3.473 -0.1823  0.6349 -0.5614
    9MOL   C186 9802   1.595   4.068   3.482 -0.0359 -0.1975  0.3726
    9MOL   C187 9803   1.524   4.145   3.595 -0.4957 -0.1685 -0.2255
    9MOL   C188 9804   1.373   4.138   3.591  0.1056 -0.1530  0.3161
    9MOL   C189 9805   1.309   4.276   3.622  0.1004 -0.4973  0.3906
    9MOL   C190 9806   1.158   4.280   3.635 -0.4026  0.1461 -0.0490
    9MOL   C191 9807   1.102   4.420   3.664 -0.8234 -0.7007  0.9595
    9MOL   C192 9808   0.956   4.415   3.706  0.5670  0.1688 -0.6980
    9MOL   O193 9809   0.900   4.543   3.701  0.1396  0.4512 -0.0614
    9MOL   C194 9810   0.910   4.621   3.809 -0.2250 -1.2406 -0.0629
    9MOL   O195 9811   0.990   4.605   3.901 -0.6859  0.0810 -0.1820
    9MOL   C196 9812   0.799   4.734   3.800  0.0021  0.5783 -0.1763
    9MOL   C197 9813   0.855   4.870   3.743  0.4557 -0.5869 -0.0209
    9MOL   C198 9814   0.847   4.868   3.588 -0.1095 -0.7412 -0.1177
    9MOL   C199 9815   0.957   4.948   3.522 -0.1963 -0.2493 -1.1043
    9MOL   C200 9816   0.956   4.940   3.373  0.0601 -0.5662 -0.3948
    9MOL   C201 9817   1.078   5.012   3.313 -0.1680  0.2604 -0.2464
    9MOL   C202 9818   1.077   5.019   3.152  0.1255 -0.1176 -0.1353
    9MOL   C203 9819   1.178   5.108   3.075 -0.0056 -0.3077  0.5387
    9MOL   C204 9820   1.172   5.094   2.925  0.0563 -0.6695  0.1647
    9MOL   O205 9821   1.255   5.029   2.866 -0.1007 -0.0723  0.0716
    9MOL   H206 9822   2.025   4.031   3.465  1.2285  1.9953 -0.4984
    9MOL   H207 9823   2.008   4.110   3.313  2.3983  0.2361  1.1196
    9MOL   H208 9824   1.792   3.975   3.288 -0.8533 -0.0493  0.4029
    9MOL   H209 9825   1.831   3.893   3.433 -0.7584 -0.8421 -0.0955
    9MOL   H210 9826   1.791   4.084   3.577 -0.7969 -1.1695 -0.4205
    9MOL   H211 9827   1.780   4.190   3.440  0.5807  0.5962 -0.1947
    9MOL   H212 9828   1.533   4.089   3.396 -1.3836  3.9430  2.2192
    9MOL   H213 9829   1.575   3.962   3.497 -0.6670 -0.2273 -0.6981
    9MOL   H214 9830   1.551   4.250   3.593  0.7774 -0.4855 -0.5503
    9MOL   H215 9831   1.562   4.107   3.690  0.3640 -0.4058 -0.6617
    9MOL   H216 9832   1.354   4.066   3.670  0.9143  1.3917  1.9543
    9MOL   H217 9833   1.343   4.104   3.492  2.4936  0.1145 -0.5371
    9MOL   H218 9834   1.336   4.332   3.532 -0.6662 -1.1151 -0.2349
    9MOL   H219 9835   1.356   4.328   3.705  1.6534 -2.3707  0.7219
    9MOL   H220 9836   1.126   4.206   3.709  2.4072 -0.3687  0.7141
    9MOL   H221 9837   1.121   4.249   3.537 -1.3691  4.8669 -1.3195
    9MOL   H222 9838   1.157   4.454   3.751  0.9359 -2.8731  0.7407
    9MOL   H223 9839   1.124   4.480   3.576  0.5798 -2.0838  0.3371
    9MOL   H224 9840   0.901   4.350   3.638  2.6145 -1.5026 -0.8173
    9MOL   H225 9841   0.968   4.371   3.805 -0.3252  4.0061  1.2078
    9MOL   H226 9842   0.762   4.762   3.898 -3.1024 -0.6333 -0.9549
    9MOL   H227 9843   0.715   4.697   3.741  0.9906 -1.1516 -0.5425
    9MOL   H228 9844   0.952   4.893   3.787  1.0850 -0.1202 -1.6156
    9MOL   H229 9845   0.782   4.940   3.783 -0.3687 -0.4200 -1.7667
    9MOL   H230 9846   0.749   4.900   3.551 -1.3109 -2.4892  1.4381
    9MOL   H231 9847   0.853   4.766   3.550 -4.5558 -0.3987 -2.0321
    9MOL   H232 9848   1.050   4.906   3.563  0.3301  2.2425  0.3862
    9MOL   H233 9849   0.952   5.050   3.562  1.4321  1.4402 -5.0158
    9MOL   H234 9850   0.959   4.834   3.349  0.7814 -0.8008  0.6889
    9MOL   H235 9851   0.859   4.973   3.337 -0.2452 -0.5943  0.3964
    9MOL   H236 9852   1.069   5.112   3.355 -3.9095  0.0238 -0.2915
    9MOL   H237 9853   1.171   4.963   3.342 -2.2721 -3.9972 -0.3509
    9MOL   H238 9854   0.980   5.062   3.125 -0.7187 -0.6467  1.9366
    9MOL   H239 9855   1.082   4.919   3.110  2.5705 -0.2466  0.4237
    9MOL   H240 9856   1.164   5.213   3.099 -0.8070 -0.2911  0.0176
    9MOL   H241 9857   1.280   5.102   3.112 -0.3980  0.2828  1.7817
    9MOL   O242 9858   1.069   5.169   2.874  0.2105 -0.3172  0.2276
    9MOL   C243 9859   1.070   5.186   2.735  0.3705 -0.1706  0.0664
    9MOL   C244 9860   0.984   5.316   2.712 -0.0445 -0.0782  0.1248
    9MOL   C245 9861   1.017   5.361   2.574  0.2727 -0.2845 -0.4110
    9MOL   C246 9862   0.942   5.492   2.537  0.4161 -0.4677 -0.6165
    9MOL   C247 9863   0.941   5.525   2.384  0.9751  0.2442 -0.1971
    9MOL   C248 9864   1.073   5.590   2.334  0.2095 -0.3505  0.0419
    9MOL   C249 9865   1.072   5.647   2.185 -0.3360  0.0684  0.3544
    9MOL   C250 9866   1.045   5.549   2.067 -0.0927 -0.2728 -0.0099
    9MOL   C251 9867   1.013   5.618   1.928  0.2989  0.2473  0.0455
    9MOL   C252 9868   0.988   5.509   1.821 -0.2041  0.3610 -0.2724
    9MOL   O253 9869   1.104   5.433   1.798 -0.3471 -0.0524 -0.0061
    9MOL   C254 9870   1.100   5.319   1.734  0.1770  0.2307 -0.1787
    9MOL   O255 9871   1.011   5.291   1.655 -0.3795 -0.5644  0.8663
    9MOL   C256 9872   1.231   5.241   1.751 -0.2949  0.4671 -0.1371
    9MOL   C257 9873   1.303   5.216   1.616 -0.3737 -0.1688 -0.3894
    9MOL   C258 9874   1.222   5.118   1.520 -1.0806  0.9098 -0.1480
    9MOL   C259 9875   1.321   5.069   1.407 -1.0470  0.4966  0.1531
    9MOL   C260 9876   1.258   4.954   1.329  0.3095 -0.1014  0.2844
    9MOL   C261 9877   1.346   4.895   1.217 -0.1021  0.1363  0.3148
    9MOL   C262 9878   1.272   4.817   1.109 -0.4207 -0.5989  0.2226
    9MOL   C263 9879   1.189   4.697   1.148 -0.5411  0.7574 -0.2324
    9MOL   C264 9880   1.055   4.681   1.070 -0.0813 -0.2289 -0.7336
    9MOL   O265 9881   0.949   4.725   1.123 -0.3442 -0.3408 -0.6965
    9MOL   H266 9882   1.169   5.197   2.692 -0.2803  0.9361 -1.2209
    9MOL   H267 9883   1.019   5.099   2.695  0.2267  0.7056 -1.7415
    9MOL   H268 9884   0.880   5.283   2.724 -0.4176 -0.6323 -3.9408
    9MOL   H269 9885   1.001   5.387   2.793 -0.5516 -0.5114  0.6197
    9MOL   H270 9886   1.122   5.391   2.580 -0.7116  3.0125  1.2998
    9MOL   H271 9887   0.995   5.287   2.497  0.5600 -1.7690  0.9157
    9MOL   H272 9888   0.837   5.502   2.567  0.8241  0.8922  0.4399
    9MOL   H273 9889   0.989   5.578   2.585 -0.3126 -0.1180 -0.5248
    9MOL   H274 9890   0.867   5.603   2.368  0.3267 -0.6250 -1.5533
    9MOL   H275 9891   0.913   5.436   2.327  0.8474  0.1849 -0.0437
    9MOL   H276 9892   1.161   5.526   2.340 -0.6354 -1.5288  0.3097
    9MOL   H277 9893   1.100   5.673   2.399 -4.0202 -0.6483  2.4155
    9MOL   H278 9894   1.172   5.687   2.170  0.0291 -0.5612  1.0725
    9MOL   H279 9895   1.007   5.732   2.163  1.4056  1.9875  2.4014
    9MOL   H280 9896   0.956   5.491   2.092 -0.9493  0.2742 -1.7201
    9MOL   H281 9897   1.133   5.486   2.063  0.3116  0.2921 -0.1011
    9MOL   H282 9898   0.922   5.677   1.935  0.6003  1.0097 -2.1043
    9MOL   H283 9899   1.103   5.677   1.909 -0.4047  0.7052 -1.9475
    9MOL   H284 9900   0.902   5.448   1.844 -0.9141  1.7810  0.9554
    9MOL   H285 9901   0.952   5.563   1.733  0.5725  0.3222 -0.6254
    9MOL   H286 9902   1.198   5.146   1.794 -1.7885  1.2938  0.5427
    9MOL   H287 9903   1.297   5.290   1.822  0.1697 -0.4304  0.0709
    9MOL   H288 9904   1.398   5.166   1.633  0.1100  1.3210  1.5187
    9MOL   H289 9905   1.327   5.311   1.569 -1.5922 -1.3132 -3.4475
    9MOL   H290 9906   1.122   5.147   1.485 -0.9434 -1.2860 -2.4485
    9MOL   H291 9907   1.213   5.028   1.580  0.1439  0.5236 -0.5299
    9MOL   H292 9908   1.419   5.037   1.442 -0.1180  3.0900  0.0883
    9MOL   H293 9909   1.347   5.155   1.345 -2.1269  0.5441 -0.2440
    9MOL   H294 9910   1.236   4.873   1.398  0.7613 -0.6815 -0.2451
    9MOL   H295 9911   1.170   4.995   1.279 -0.1675 -0.9455  0.4256
    9MOL   H296 9912   1.400   4.976   1.169 -0.2788  0.0738  0.0088
    9MOL   H297 9913   1.412   4.828   1.272 -0.5489 -1.9577 -1.6200
    9MOL   H298 9914   1.332   4.801   1.020 -3.4460 -0.3158 -1.9229
    9MOL   H299 9915   1.208   4.900   1.079  0.9399  0.3670 -0.0354
    9MOL   H300 9916   1.245   4.606   1.130 -0.9461  0.7354 -1.4243
    9MOL   H301 9917   1.157   4.707   1.252 -1.1793 -1.0831 -0.2310
    9MOL   O302 9918   1.068   4.623   0.948 -0.4359 -0.1382 -0.1879
    9MOL   C303 9919   0.955   4.612   0.871 -0.5210 -0.8433 -0.3388
    9MOL   C304 9920   0.994   4.541   0.744  0.2244 -0.0385 -0.3061
    9MOL   C305 9921   1.078   4.620   0.641  0.9103 -0.2172 -0.2993
    9MOL   C306 9922   1.139   4.534   0.526  0.2868  0.6986 -0.6683
    9MOL   C307 9923   1.245   4.441   0.574 -0.6274 -0.2929  0.7258
    9MOL   C308 9924   1.347   4.491   0.685  0.1335  0.2604  0.2893
    9MOL   C309 9925   1.464   4.393   0.716  0.1715 -0.6650  0.0078
    9MOL   C310 9926   1.565   4.452   0.811 -0.6141 -0.3160  0.1853
    9MOL   C311 9927   1.506   4.458   0.957 -0.8360  0.0053  0.2181
    9MOL   C312 9928   1.607   4.515   1.055  0.2370  0.5865  0.2617
    9MOL   O313 9929   1.614   4.655   1.039  0.0044  0.2391  0.9113
    9MOL   C314 9930   1.737   4.710   1.000  0.1094  0.0190 -0.4112
    9MOL   O315 9931   1.835   4.646   0.962 -0.0724  0.4419 -0.1457
    9MOL   C316 9932   1.726   4.862   0.988 -0.3422  0.4689 -0.0324
    9MOL   C317 9933   1.716   4.929   1.126 -0.4790 -0.2207 -0.6343
    9MOL   C318 9934   1.692   5.078   1.113 -0.2792  0.2485  0.5324
    9MOL   C319 9935   1.675   5.143   1.251  0.2569 -0.0132 -0.2038
    9MOL   C320 9936   1.678   5.293   1.266 -0.5975  0.4363  0.1142
    9MOL   C321 9937   1.651   5.339   1.414  0.0355  1.1006  1.1701
    9MOL   C322 9938   1.646   5.488   1.434 -0.1298 -0.3318 -0.1323
    9MOL   C323 9939   1.639   5.529   1.577  0.1450  0.3900  0.0973
    9MOL   C324 9940   1.597   5.673   1.602  0.4646 -0.2600  0.3457
    9MOL   O325 9941   1.479   5.705   1.618 -0.0068  0.1936  0.1272
    9MOL   H326 9942   0.869   4.562   0.915 -1.0450  1.1514  0.9303
    9MOL   H327 9943   0.908   4.706   0.842  1.9052  0.1490 -1.1928
    9MOL   H328 9944   1.036   4.441   0.751  0.8563  0.4364  4.0147
    9MOL   H329 9945   0.899   4.522   0.694 -1.9192  2.8429  2.4880
    9MOL   H330 9946   1.014   4.696   0.597  1.6127  0.8451  0.4775
    9MOL   H331 9947   1.154   4.684   0.684 -0.8855  1.7947 -0.0644
    9MOL   H332 9948   1.078   4.491   0.446  1.0813  1.3675 -1.6503
    9MOL   H333 9949   1.188   4.616   0.473  1.5978  0.0699 -0.4524
    9MOL   H334 9950   1.307   4.417   0.488 -0.4718 -1.0018  1.0256
    9MOL   H335 9951   1.203   4.343   0.597 -2.3470  0.6401  1.6895
    9MOL   H336 9952   1.294   4.515   0.777  0.6368 -0.6157  0.8157
    9MOL   H337 9953   1.378   4.592   0.660 -1.6466  0.7407 -0.0156
    9MOL   H338 9954   1.515   4.361   0.625 -1.9366  0.5518 -1.6574
    9MOL   H339 9955   1.421   4.299   0.750 -2.9803  0.1192 -1.5274
    9MOL   H340 9956   1.597   4.551   0.778  0.4025 -0.8133 -0.3259
    9MOL   H341 9957   1.655   4.392   0.807 -0.6875 -0.3541 -1.0147
    9MOL   H342 9958   1.418   4.521   0.962 -0.3162  0.6818  0.9727
    9MOL   H343 9959   1.465   4.362   0.990  1.3941 -0.8615  0.5452
    9MOL   H344 9960   1.560   4.495   1.151 -1.3177 -0.1769 -0.6459
    9MOL   H345 9961   1.702   4.461   1.054 -0.3942 -0.5380 -0.6926
    9MOL   H346 9962   1.627   4.882   0.948 -0.5574 -0.9524 -0.2506
    9MOL   H347 9963   1.811   4.901   0.933  0.9936 -1.6001  0.5221
    9MOL   H348 9964   1.806   4.920   1.187 -2.4496  0.5098  2.5288
    9MOL   H349 9965   1.628   4.887   1.175  0.2516 -0.2396  0.6848
    9MOL   H350 9966   1.608   5.100   1.047  1.5758  0.6676 -1.7575
    9MOL   H351 9967   1.785   5.108   1.064 -0.2662  0.4934  0.7070
    9MOL   H352 9968   1.768   5.114   1.299 -0.2895 -0.0372  0.8527
    9MOL   H353 9969   1.591   5.100   1.306  2.0413  0.7019  3.2019
    9MOL   H354 9970   1.775   5.331   1.234 -0.4541 -0.0689 -0.0574
    9MOL   H355 9971   1.600   5.332   1.201 -1.8697 -2.9105 -0.5032
    9MOL   H356 9972   1.553   5.294   1.427  0.9090 -1.3757 -0.4748
    9MOL   H357 9973   1.720   5.297   1.487  1.0502  0.0540 -0.3685
    9MOL   H358 9974   1.580   5.551   1.374 -0.7274 -1.4961 -0.7010
    9MOL   H359 9975   1.743   5.529   1.406  0.1609 -0.1661  1.0798
    9MOL   H360 9976   1.558   5.465   1.612 -0.5298  1.3468  0.2965
    9MOL   H361 9977   1.726   5.495   1.633  0.5103  0.3550 -0.4857
    9MOL   O362 9978   1.704   5.760   1.592  0.0036 -0.1376  0.0191
    9MOL   C363 9979   1.695   5.900   1.597 -0.2641  0.1133 -0.0274
    9MOL   C364 9980   1.794   5.955   1.704 -0.6885  0.8733  0.2114
    9MOL   C365 9981   1.764   6.093   1.755  0.0761  0.1949  0.5538
    9MOL   C366 9982   1.874   6.143   1.856 -0.0706 -0.0642 -0.2357
    9MOL   C367 9983   1.829   6.282   1.896 -0.0982 -0.1823  0.1559
    9MOL   C368 9984   1.942   6.365   1.969 -0.4436 -0.1676  0.3473
    9MOL   C369 9985   1.914   6.515   1.990  0.0678  0.1059  0.1906
    9MOL   C370 9986   2.049   6.589   2.018 -0.0813  0.0178  0.3459
    9MOL   C371 9987   2.136   6.526   2.129  0.7055 -0.3655  0.6294
    9MOL   C372 9988   2.226   6.635   2.177 -0.0135 -0.2109  0.1904
    9MOL   O373 9989   2.312   6.670   2.066 -0.2800 -0.5818  0.2462
    9MOL   C374 9990   2.405   6.763   2.096  0.2200  0.2483  0.7396
    9MOL   O375 9991   2.410   6.829   2.199  0.2888 -0.3561 -0.1843
    9MOL   C376 9992   2.509   6.782   1.987  0.1624  0.8376  0.3098
    9MOL   C377 9993   2.592   6.650   1.942 -0.1860  0.0540 -0.3898
    9MOL   C378 9994   2.700   6.606   2.044  0.2312  0.7555 -0.0103
    9MOL   C379 9995   2.752   6.466   2.022  0.1566 -0.3164  0.3120
    9MOL   C380 9996   2.826   6.437   1.892 -0.5534  0.7082 -0.0401
    9MOL   C381 9997   2.871   6.292   1.888  0.4305 -0.3877  0.4632
    9MOL   C382 9998   2.997   6.280   1.801 -0.0895  0.0882 -0.1362
    9MOL   C383 9999   3.072   6.136   1.807 -0.2702 -0.4105  0.0977
    9MOL   C38410000   3.163   6.118   1.934 -0.1538  0.1305 -0.6640
    9MOL   O38510001   3.135   6.042   2.031 -0.0529  0.0705  0.4263
    9MOL   H38610002   1.724   5.947   1.503  0.3705  1.9032  1.0368
    9MOL   H38710003   1.595   5.935   1.624 -0.3593 -1.6941  2.0794
    9MOL   H38810004   1.810   5.888   1.789 -1.0855  1.6100  0.8667
    9MOL   H38910005   1.897   5.958   1.668 -1.2994  0.0056 -1.6248
    9MOL   H39010006   1.751   6.161   1.671 -0.2099 -0.2318  0.2561
    9MOL   H39110007   1.675   6.095   1.818 -0.2974  3.5667  0.0114
    9MOL   H39210008   1.887   6.085   1.947  0.2923  1.8729  0.9666
    9MOL   H39310009   1.974   6.152   1.813  0.2081  0.6461  0.5643
    9MOL   H39410010   1.748   6.267   1.968 -1.2983  1.1616 -0.8978
    9MOL   H39510011   1.780   6.329   1.811  1.7827 -0.1160 -0.9356
    9MOL   H39610012   2.028   6.345   1.906  1.1492 -1.6659  2.9094
    9MOL   H39710013   1.958   6.314   2.064 -2.7433 -1.4611  0.0886
    9MOL   H39810014   1.833   6.528   2.062 -0.2085  1.3444 -0.3192
    9MOL   H39910015   1.867   6.552   1.899  0.0977 -1.2909 -0.3968
    9MOL   H40010016   2.020   6.691   2.043 -1.2331 -0.7273  2.0942
    9MOL   H40110017   2.107   6.591   1.926 -1.1745  0.1411 -0.3478
    9MOL   H40210018   2.075   6.511   2.219  1.0487 -1.9405  0.6214
    9MOL   H40310019   2.193   6.435   2.113  2.1637  0.7185 -0.4241
    9MOL   H40410020   2.178   6.729   2.205  2.6239 -0.1434  5.0951
    9MOL   H40510021   2.289   6.602   2.260 -0.0415  1.3537  0.8580
    9MOL   H40610022   2.574   6.862   2.024  1.2522 -0.0158  0.2545
    9MOL   H40710023   2.464   6.830   1.900  0.3256  2.1746  0.9439
    9MOL   H40810024   2.643   6.658   1.846  0.5403  0.2394  0.0092
    9MOL   H40910025   2.523   6.565   1.944 -0.9274  0.6218 -1.6286
    9MOL   H41010026   2.669   6.613   2.148  1.1467 -0.4587  0.3443
    9MOL   H41110027   2.791   6.666   2.037  0.3764  0.6486  0.8811
    9MOL   H41210028   2.677   6.391   2.048  1.7445 -1.6379  1.2089
    9MOL   H41310029   2.829   6.456   2.098  0.9626 -0.8905 -0.5641
    9MOL   H41410030   2.764   6.461   1.806 -2.3347 -1.6850  0.5490
    9MOL   H41510031   2.910   6.505   1.879 -0.3757 -0.1914 -4.1245
    9MOL   H41610032   2.890   6.249   1.986 -1.9021  1.4105  1.7337
    9MOL   H41710033   2.790   6.229   1.852  0.4725  0.1322 -0.5590
    9MOL   H41810034   3.072   6.350   1.836  0.6393 -0.8684  0.2289
    9MOL   H41910035   2.967   6.310   1.700 -1.3329  1.2999  0.5646
    9MOL   H42010036   2.996   6.058   1.813 -1.2967  0.5575 -0.1673
    9MOL   H42110037   3.140   6.100   1.730 -2.4152  0.1349 -2.1247
    9MOL   O42210038   3.270   6.195   1.938 -0.1542  0.2777  0.2946
    9MOL   C42310039   3.370   6.174   2.045  0.6474 -0.5551 -0.0646
    9MOL   C42410040   3.502   6.214   1.995 -0.3458 -0.1383  0.6390
    9MOL   C42510041   3.509   6.368   1.984 -0.2752  0.2800 -0.1662
    9MOL   C42610042   3.648   6.419   1.929  0.4830 -0.0034 -0.0195
    9MOL   C42710043   3.641   6.576   1.937 -0.6288  0.0811  0.5731
    9MOL   C42810044   3.770   6.638   1.900  0.0550 -0.4225 -0.4289
    9MOL   C42910045   3.814   6.643   1.746  0.1623  0.3552  0.2870
    9MOL   C43010046   3.963   6.618   1.741 -0.7743  0.0698  0.3210
    9MOL   C43110047   4.015   6.606   1.598 -0.1714  0.8054  0.3306
    9MOL   C43210048   4.012   6.733   1.508 -0.2693 -0.4091  0.2033
    9MOL   O43310049   4.088   6.835   1.566  0.2346  0.0212  0.7253
    9MOL   C43410050   4.182   6.903   1.494  0.6551  0.4368  0.0490
    9MOL   O43510051   4.221   6.869   1.384  0.4663 -0.3126 -0.5149
    9MOL   C43610052   4.236   7.027   1.564 -0.6455 -0.0867 -0.7673
    9MOL   C43710053   4.290   6.994   1.707  0.5673 -0.1321  0.6223
    9MOL   C43810054   4.441   6.972   1.716  0.0138 -0.3410 -0.2080
    9MOL   C43910055   4.488   6.840   1.663  0.2529 -0.1190  0.2341
    9MOL   C44010056   4.442   6.731   1.769 -1.0271 -0.2429  0.3885
    9MOL   C44110057   4.505   6.590   1.729  0.2198 -0.1118 -0.1262
    9MOL   C44210058   4.432   6.518   1.616 -0.1358 -0.0257  0.1894
    9MOL   C44310059   4.513   6.420   1.533 -0.1941 -0.5479 -0.5449
    9MOL   C44410060   4.602   6.318   1.605 -0.0283  0.5457  0.2779
    9MOL   O44510061   4.722   6.317   1.587 -0.1507 -0.1274 -0.1955
    9MOL   H44610062   3.344   6.247   2.122 -0.3018 -1.0693  0.1005
    9MOL   H44710063   3.375   6.077   2.095 -1.0344 -0.0392  1.1556
    9MOL   H44810064   3.576   6.190   2.071  0.8348  1.7784  0.1338
    9MOL   H44910065   3.538   6.171   1.901  0.2854 -2.0814  1.7333
    9MOL   H45010066   3.428   6.400   1.918  0.0498 -0.8516 -1.1257
    9MOL   H45110067   3.479   6.421   2.074 -0.0534 -0.6471  0.4578
    9MOL   H45210068   3.725   6.385   1.997  0.0832  0.5047  0.6958
    9MOL   H45310069   3.679   6.377   1.833 -2.1086 -4.2256  0.8831
    9MOL   H45410070   3.608   6.613   2.034  0.2994 -0.1057  0.9616
    9MOL   H45510071   3.558   6.605   1.872 -0.1213 -1.7182 -0.9322
    9MOL   H45610072   3.843   6.591   1.966 -2.0070 -1.7359  0.9719
    9MOL   H45710073   3.774   6.741   1.938 -0.6002 -0.4359 -0.3046
    9MOL   H45810074   3.784   6.733   1.691  1.5129  0.8455  0.3179
    9MOL   H45910075   3.760   6.561   1.698 -3.1551  3.1370 -0.9966
    9MOL   H46010076   3.995   6.533   1.801 -1.0864  0.4758  1.0664
    9MOL   H46110077   4.014   6.702   1.788 -1.1558  1.1391 -1.1098
    9MOL   H46210078   4.119   6.574   1.605  0.6673  3.0030 -1.3059
    9MOL   H46310079   3.952   6.529   1.554  2.7139 -1.0078 -0.7525
    9MOL   H46410080   4.049   6.718   1.407  1.5764  0.6753  0.7000
    9MOL   H46510081   3.912   6.776   1.498  0.8814  2.5021  0.8510
    9MOL   H46610082   4.162   7.107   1.561 -0.6933 -0.0737  0.4388
    9MOL   H46710083   4.319   7.061   1.502  0.3777  0.7668  1.0354
    9MOL   H46810084   4.232   6.924   1.767  0.5945 -1.5147 -0.9324
    9MOL   H46910085   4.274   7.084   1.766  0.3545  0.9813 -1.0942
    9MOL   H47010086   4.470   6.999   1.817 -0.6208  0.9952 -0.3711
    9MOL   H47110087   4.484   7.063   1.676  0.0956 -0.3207 -0.0735
    9MOL   H47210088   4.597   6.838   1.656  0.1206 -2.3909 -1.5822
    9MOL   H47310089   4.438   6.819   1.569 -1.9951  0.5865  1.2452
    9MOL   H47410090   4.495   6.764   1.858 -0.1918  0.3843 -0.3406
    9MOL   H47510091   4.336   6.739   1.795 -1.0990 -0.1792  0.0731
    9MOL   H47610092   4.611   6.599   1.706 -0.1905  0.3900 -1.8984
    9MOL   H47710093   4.492   6.528   1.818  2.7579 -1.8977 -0.9712
    9MOL   H47810094   4.399   6.602   1.556  1.5566  1.8415  1.7854
    9MOL   H47910095   4.352   6.464   1.668 -1.1568  0.0532 -1.2828
    9MOL   H48010096   4.461   6.357   1.460 -2.0921  0.5600 -0.1824
    9MOL   H48110097   4.584   6.481   1.478 -2.0096  1.1722 -1.0491
    9MOL   O48210098   4.528   6.229   1.682 -0.0724  0.4797  0.3884
    9MOL   C48310099   4.590   6.115   1.743 -0.0034 -0.1237 -0.2651
    9MOL   C48410100   4.545   5.986   1.683  0.5952 -0.5579  0.2530
    9MOL   C48510101   4.394   5.960   1.709  0.0860 -0.3805  0.9901
    9MOL   C48610102   4.351   5.812   1.672 -0.2815 -0.0835  0.0949
    9MOL   C48710103   4.195   5.792   1.681 -0.4654  0.0446 -0.1292
    9MOL   C48810104   4.145   5.737   1.815 -0.2785  0.0762  0.3637
    9MOL   C48910105   4.198   5.818   1.937 -0.0202 -0.0875  0.3866
    9MOL   C49010106   4.139   5.775   2.075 -0.4141 -0.0020 -0.4232
    9MOL   C49110107   4.129   5.882   2.183  1.1745  0.2605 -0.5101
    9MOL   C49210108   4.042   5.835   2.301 -0.4823 -0.7451  0.2413
    9MOL   O49310109   3.905   5.818   2.267 -0.3889 -0.0719  0.1885
    9MOL   C49410110   3.823   5.726   2.338  0.3610 -0.2724  0.4484
    9MOL   O49510111   3.852   5.656   2.433 -0.3514  0.0855  0.1145
    9MOL   C49610112   3.684   5.730   2.288 -0.0287 -0.2869  0.2337
    9MOL   C49710113   3.587   5.801   2.381 -0.2345  0.2870 -0.0626
    9MOL   C49810114   3.442   5.785   2.332 -0.5748 -0.4840  0.2092
    9MOL   C49910115   3.341   5.876   2.401  0.3030  0.0038 -0.3012
    9MOL   C50010116   3.200   5.859   2.335  0.7451 -0.5017 -0.2134
    9MOL   C50110117   3.096   5.965   2.373 -0.5039  1.0645  0.1809
    9MOL   C50210118   2.966   5.932   2.314 -0.4712 -0.2432 -0.1940
    9MOL   C50310119   2.882   6.058   2.304 -0.5547 -0.1913  0.9136
    9MOL   C50410120   2.746   6.022   2.253 -0.5559  0.3984  0.8346
    9MOL   O50510121   2.668   5.950   2.317 -0.5928  0.0633 -0.0985
    9MOL   H50610122   4.698   6.126   1.738 -0.0341  1.2976  1.5612
    9MOL   H50710123   4.563   6.129   1.848 -1.0973  2.3736 -0.8518
    9MOL   H50810124   4.575   5.974   1.579 -1.0563 -0.8299 -0.2028
    9MOL   H50910125   4.594   5.899   1.727 -1.7727 -1.3992  1.2997
    9MOL   H51010126   4.376   5.977   1.815 -0.9381  0.7706  0.6336
    9MOL   H51110127   4.331   6.040   1.671 -0.9371 -1.8840 -0.5251
    9MOL   H51210128   4.377   5.780   1.571  0.7404 -1.8005  0.8791
    9MOL   H51310129   4.399   5.745   1.744 -0.6769 -0.0108  0.4304
    9MOL   H51410130   4.165   5.730   1.597 -0.0179 -0.0095 -0.2475
    9MOL   H51510131   4.147   5.888   1.660 -2.0177 -0.6355  0.2361
    9MOL   H51610132   4.185   5.636   1.824 -3.4598 -1.5345 -2.5108
    9MOL   H51710133   4.036   5.735   1.810 -0.2472 -0.5039 -0.1852
    9MOL   H51810134   4.172   5.920   1.908  2.7024  0.1221 -1.5614
    9MOL   H51910135   4.307   5.820   1.931 -0.0640  1.8474  0.0769
    9MOL   H52010136   4.179   5.683   2.117  1.2583  1.4816  1.3364
    9MOL   H52110137   4.038   5.737   2.059 -1.0533  1.4599  0.0107
    9MOL   H52210138   4.229   5.898   2.222  1.7843 -1.2839 -1.3745
    9MOL   H52310139   4.072   5.966   2.144 -1.2345 -0.6613  0.9601
    9MOL   H52410140   4.076   5.741   2.344  0.8414  0.6009  2.2413
    9MOL   H52510141   4.051   5.915   2.375 -1.8022 -0.2340 -0.1497
    9MOL   H52610142   3.646   5.631   2.262  3.0106 -1.3526 -0.3577
    9MOL   H52710143   3.686   5.779   2.191 -1.4383 -1.2252 -0.2905
    9MOL   H52810144   3.615   5.907   2.380 -0.7138  0.4672  2.5630
    9MOL   H52910145   3.602   5.768   2.484 -1.7867 -0.4403 -0.0581
    9MOL   H53010146   3.405   5.682   2.322  1.6634 -1.0489 -3.0341
    9MOL   H53110147   3.445   5.828   2.232  0.5958  0.5409  0.6776
    9MOL   H53210148   3.389   5.973   2.388 -0.8666  0.3340 -2.3626
    9MOL   H53310149   3.346   5.867   2.510  0.3579  3.0547  0.0054
    9MOL   H53410150   3.211   5.865   2.227  1.5831  0.6022 -0.0689
    9MOL   H53510151   3.162   5.760   2.363 -0.9469 -0.3015 -1.7026
    9MOL   H53610152   3.095   5.989   2.480 -2.2599  3.1562 -0.2650
    9MOL   H53710153   3.121   6.063   2.332  1.1451  0.2828 -0.7297
    9MOL   H53810154   2.936   5.838   2.361 -1.7973  0.1827 -0.1589
    9MOL   H53910155   2.982   5.898   2.212  1.5626 -0.5039  0.1889
    9MOL   H54010156   2.879   6.103   2.403 -1.2123 -0.1544  0.8751
    9MOL   H54110157   2.930   6.124   2.232 -0.0514 -0.4702  0.9907
    9MOL   O54210158   2.711   6.079   2.136  0.5922  0.4721 -0.1123
    9MOL   C54310159   2.579   6.062   2.087 -0.0417  0.4510 -0.4086
    9MOL   C54410160   2.598   6.021   1.939  0.5021  0.4046 -0.1610
    9MOL   C54510161   2.704   5.909   1.910  0.3051 -0.1253 -0.1743
    9MOL   C54610162   2.704   5.882   1.762  0.2922  0.5047  0.7656
    9MOL   C54710163   2.808   5.774   1.731 -0.0323 -0.4234 -0.3421
    9MOL   C54810164   2.822   5.750   1.583 -0.1739 -0.1566  0.0263
    9MOL   C54910165   2.889   5.622   1.554  0.9678 -0.0732  0.3195
    9MOL   C55010166   2.926   5.602   1.411 -0.1473 -0.4987  0.7952
    9MOL   C55110167   2.950   5.449   1.380 -0.1980  0.0666  0.6588
    9MOL   C55210168   3.002   5.418   1.245  0.2804  0.2099 -0.4487
    9MOL   O55310169   3.126   5.491   1.219  0.0588 -0.6063 -0.2280
    9MOL   C55410170   3.205   5.456   1.120  0.1806 -0.1691  0.2348
    9MOL   O55510171   3.183   5.364   1.043 -0.0189  0.2815  0.1590
    9MOL   C55610172   3.332   5.548   1.109 -0.3727 -0.3908 -0.3484
    9MOL   C55710173   3.385   5.557   0.971 -0.0987 -0.6613  0.5252
    9MOL   C55810174   3.527   5.604   0.986 -0.0586  0.1722  0.6450
    9MOL   C55910175   3.592   5.624   0.847 -0.5722 -0.7462 -0.5991
    9MOL   C56010176   3.723   5.701   0.847 -0.1606  0.6616 -0.0154
    9MOL   C56110177   3.781   5.726   0.713 -0.0845 -0.1056  0.3825
    9MOL   C56210178   3.838   5.597   0.652  0.5837  0.1197 -0.5063
    9MOL   C56310179   3.903   5.633   0.517 -0.8206  0.1026  0.1568
    9MOL   C56410180   3.824   5.650   0.388  0.3021  0.0041  0.4566
    9MOL   O56510181   3.793   5.760   0.342 -0.3536  0.2594  0.2037
    9MOL   H56610182   2.540   5.967   2.123 -0.5075  1.1028  0.8104
    9MOL   H56710183   2.524   6.154   2.106  2.0298  1.6085  0.2053
    9MOL   H56810184   2.502   5.985   1.901  0.6281 -0.1806  0.0727
    9MOL   H56910185   2.604   6.109   1.875 -0.6206 -0.2574 -1.1922
    9MOL   H57010186   2.801   5.944   1.945 -0.9781  2.7890  0.6674
    9MOL   H57110187   2.688   5.822   1.973  1.3659 -1.0473 -1.1688
    9MOL   H57210188   2.612   5.842   1.720  1.3104 -1.5751  0.4695
    9MOL   H57310189   2.722   5.972   1.702 -1.3408 -0.8886 -1.8853
    9MOL   H57410190   2.785   5.684   1.788 -0.0125 -0.5392 -0.5159
    9MOL   H57510191   2.901   5.811   1.774 -1.7527  1.5511  1.8750
    9MOL   H57610192   2.876   5.836   1.544 -1.0953 -0.5749 -2.2455
    9MOL   H57710193   2.728   5.753   1.529 -0.4747 -0.1241  0.5512
    9MOL   H57810194   2.818   5.541   1.570 -0.7871  1.0937 -1.3177
    9MOL   H57910195   2.971   5.614   1.625  1.5713 -0.2844 -0.3944
    9MOL   H58010196   3.004   5.670   1.379 -2.5608  2.0507  0.1431
    9MOL   H58110197   2.849   5.638   1.342  1.2823 -1.8837 -1.5837
    9MOL   H58210198   3.006   5.396   1.457 -0.0837  0.0804  0.5841
    9MOL   H58310199   2.849   5.407   1.376  1.1549 -3.4211  1.3142
    9MOL   H58410200   3.017   5.311   1.238 -2.1449 -0.2969  1.4820
    9MOL   H58510201   2.934   5.442   1.163 -0.5800 -0.8836 -0.0613
    9MOL   H58610202   3.411   5.506   1.172  2.0599  4.6512  0.2550
    9MOL   H58710203   3.306   5.643   1.157  2.6092 -0.5330  1.6984
    9MOL   H58810204   3.314   5.618   0.915  0.2002 -1.0451 -0.2734
    9MOL   H58910205   3.396   5.467   0.911  0.7967  0.9005 -1.7296
    9MOL   H59010206   3.589   5.526   1.029 -0.4903 -1.1138 -0.9908
    9MOL   H59110207   3.526   5.705   1.028 -1.2949  0.3607  0.1984
    9MOL   H59210208   3.519   5.666   0.778  0.4442 -1.3316 -2.0650
    9MOL   H59310209   3.616   5.526   0.804  0.3037 -1.8401  2.2823
    9MOL   H59410210   3.715   5.793   0.905 -0.9758  0.8550 -0.4337
    9MOL   H59510211   3.789   5.631   0.899 -0.3553 -0.7958 -1.6974
    9MOL   H59610212   3.713   5.777   0.644  0.7625 -0.3784 -0.6644
    9MOL   H59710213   3.854   5.807   0.712  0.0086 -0.1589 -3.2845
    9MOL   H59810214   3.768   5.514   0.638 -0.6152  0.9702  0.3290
    9MOL   H59910215   3.914   5.547   0.711  0.3912  0.0145 -0.3468
    9MOL   H60010216   3.956   5.726   0.533 -0.1338 -0.2563  0.0026
    9MOL   H60110217   3.981   5.561   0.489 -0.6869  0.8231 -1.3699
    9MOL   O60210218   3.780   5.530   0.339 -0.0099 -0.0770 -0.3040
    9MOL   C60310219   3.673   5.532   0.239  0.0126 -0.3366 -0.8175
    9MOL   C60410220   3.573   5.425   0.295 -0.6883 -0.2468 -0.5668
    9MOL   C60510221   3.532   5.423   0.445 -0.1148  0.0895  0.3144
    9MOL   C60610222   3.460   5.297   0.484 -0.0215 -0.6758  0.1492
    9MOL   C60710223   3.418   5.296   0.632 -0.2417 -0.1932  0.3770
    9MOL   C60810224   3.364   5.172   0.684 -0.1674 -0.5240  0.6547
    9MOL   C60910225   3.458   5.053   0.665 -0.1393 -0.4292  0.0586
    9MOL   C61010226   3.416   4.935   0.761 -0.2690  0.2515  0.0110
    9MOL   C61110227   3.283   4.869   0.711 -0.7653  0.6174  0.1363
    9MOL   C61210228   3.251   4.744   0.797  0.3528  0.4136  0.2816
    9MOL   O61310229   3.108   4.727   0.796 -0.7463  0.0474  0.9374
    9MOL   C61410230   3.050   4.608   0.799 -0.1098  0.2922 -0.3519
    9MOL   O61510231   3.103   4.500   0.774 -0.1226 -0.3191  0.8248
    9MOL   C61610232   2.907   4.629   0.847 -0.1224  0.2546  0.1852
    9MOL   C61710233   2.804   4.651   0.731 -0.4056 -0.2507 -0.5544
    9MOL   C61810234   2.661   4.593   0.762 -0.1277 -0.4533 -0.3073
    9MOL   C61910235   2.582   4.560   0.636  0.4885  0.4564 -0.8721
    9MOL   C62010236   2.439   4.507   0.672  0.2322 -0.0168  0.3577
    9MOL   C62110237   2.358   4.462   0.552  0.0700 -0.6044  0.8334
    9MOL   C62210238   2.403   4.326   0.503  0.3439  0.1722  0.3153
    9MOL   C62310239   2.320   4.285   0.384  0.1619  0.6165 -0.2495
    9MOL   C62410240   2.319   4.133   0.358 -0.0883 -0.1277  0.7741
    9MOL   O62510241   2.220   4.060   0.365  0.0517 -0.6906  0.1002
    9MOL   H62610242   3.620   5.627   0.246  1.3020  0.3169  0.2098
    9MOL   H62710243   3.716   5.526   0.139 -1.2300  2.5755 -1.5829
    9MOL   H62810244   3.490   5.408   0.227 -0.2572 -0.6610 -0.9929
    9MOL   H62910245   3.618   5.329   0.266  2.2697  0.5686  1.1055
    9MOL   H63010246   3.617   5.436   0.511 -1.2054  0.3342  1.6957
    9MOL   H63110247   3.484   5.520   0.458 -2.2747 -0.2873 -3.9467
    9MOL   H63210248   3.373   5.274   0.422  0.4586 -0.9662 -0.4241
    9MOL   H63310249   3.530   5.218   0.457 -0.1698 -1.0043  0.7130
    9MOL   H63410250   3.353   5.379   0.658  0.2131 -0.4418  2.4300
    9MOL   H63510251   3.505   5.325   0.692 -0.8405  1.1872  0.5984
    9MOL   H63610252   3.270   5.145   0.637  0.6497 -1.8394 -0.2860
    9MOL   H63710253   3.346   5.197   0.788 -1.0730  1.7557 -0.0072
    9MOL   H63810254   3.561   5.077   0.689 -0.0054 -0.7548 -0.1926
    9MOL   H63910255   3.451   5.029   0.559  0.7189 -2.4269  0.4439
    9MOL   H64010256   3.419   4.948   0.869  0.7249 -1.6060  0.2395
    9MOL   H64110257   3.492   4.857   0.757  1.4245  1.9203 -1.1667
    9MOL   H64210258   3.204   4.943   0.718 -0.8886  0.5798 -0.7464
    9MOL   H64310259   3.289   4.835   0.607 -3.2276 -0.7718  0.3952
    9MOL   H64410260   3.308   4.655   0.770 -2.2186 -0.9610 -0.8053
    9MOL   H64510261   3.277   4.755   0.902 -1.7169 -0.4776  0.9162
    9MOL   H64610262   2.904   4.715   0.914 -1.7558 -0.4309  1.0296
    9MOL   H64710263   2.875   4.547   0.911  2.6117 -1.7293 -0.9109
    9MOL   H64810264   2.843   4.593   0.647 -2.7381 -1.1388 -1.0643
    9MOL   H64910265   2.809   4.758   0.711 -1.3499  0.3362  2.1319
    9MOL   H65010266   2.611   4.671   0.820  1.4197  0.9916 -0.8645
    9MOL   H65110267   2.668   4.505   0.826  0.1840 -0.5386 -0.4552
    9MOL   H65210268   2.632   4.486   0.573 -0.0308 -0.7639  0.1254
    9MOL   H65310269   2.578   4.646   0.570  1.4496  1.9357  0.9785
    9MOL   H65410270   2.438   4.429   0.748  0.2157  0.7021  1.0979
    9MOL   H65510271   2.386   4.592   0.714 -1.7679 -0.4493 -1.2387
    9MOL   H65610272   2.252   4.463   0.577  0.0037  0.6419  0.5208
    9MOL   H65710273   2.356   4.533   0.469  2.0707 -0.7646  0.6125
    9MOL   H65810274   2.387   4.251   0.580 -0.9767  1.2111  1.0791
    9MOL   H65910275   2.510   4.322   0.484  0.4657  0.1660  1.0027
    9MOL   H66010276   2.222   4.326   0.406 -0.3362 -1.2905  1.2102
    9MOL   H66110277   2.362   4.334   0.295  2.9318  0.8673  1.1559
    9MOL   O66210278   2.441   4.083   0.340 -0.1324  0.0355  0.6550
    9MOL   C66310279   2.464   3.946   0.320  0.5543  0.4768  0.2874
    9MOL   C66410280   2.464   3.867   0.453  0.1987  0.5519  0.1640
    9MOL   C66510281   2.608   3.852   0.505 -0.4359 -0.2961 -0.2876
    9MOL   C66610282   2.615   3.751   0.619 -0.1927 -0.8418 -0.4050
    9MOL   C66710283   2.754   3.737   0.690 -0.3683  1.0853 -0.7584
    9MOL   C66810284   2.775   3.631   0.803  0.0950  0.1646  0.2699
    9MOL   C66910285   2.915   3.621   0.871  0.0905  0.6896  1.1502
    9MOL   C67010286   2.988   3.500   0.825  0.5152 -0.3606 -0.3926
    9MOL   C67110287   3.133   3.504   0.862 -0.4596 -0.0793  0.6562
    9MOL   C67210288   3.208   3.381   0.806  0.0237 -0.0030  0.8534
    9MOL   O67310289   3.181   3.357   0.667 -0.0800  0.2014  0.4556
    9MOL   C67410290   3.279   3.380   0.582 -0.1345 -0.5414  0.0243
    9MOL   O67510291   3.396   3.407   0.606 -0.4036  0.6538 -0.1725
    9MOL   C67610292   3.238   3.374   0.436 -0.1074  0.2188 -0.1408
    9MOL   C67710293   3.245   3.511   0.371 -0.0244 -0.7355 -0.0199
    9MOL   C67810294   3.131   3.608   0.417 -0.1859  0.1176  0.9417
    9MOL   C67910295   3.112   3.727   0.319  0.5854 -0.2445  0.7217
    9MOL   C68010296   2.974   3.794   0.330  0.1755 -0.7310 -0.1471
    9MOL   C68110297   2.926   3.861   0.205 -0.2715 -0.2195  0.3348
    9MOL   C68210298   3.018   3.972   0.161  0.9055 -0.6095  0.3075
    9MOL   C68310299   2.958   4.084   0.073  0.0575  0.6108 -0.5592
    9MOL   C68410300   2.878   4.188   0.150  0.0486  0.4330  0.2738
    9MOL   O68510301   2.763   4.215   0.114  0.0212 -0.6269  0.1644
    9MOL   H68610302   2.384   3.895   0.266  0.8317  1.6659 -1.2828
    9MOL   H68710303   2.553   3.930   0.259 -0.2761 -2.8032 -0.1765
    9MOL   H68810304   2.403   3.900   0.537 -0.6636  2.4078 -1.1502
    9MOL   H68910305   2.424   3.767   0.439  0.6520  0.2639  0.8576
    9MOL   H69010306   2.664   3.820   0.417  1.6286 -1.5574  1.4285
    9MOL   H69110307   2.649   3.951   0.527  1.6079 -1.1022 -0.3070
    9MOL   H69210308   2.546   3.789   0.694 -2.6838 -3.0924 -1.4665
    9MOL   H69310309   2.576   3.653   0.593 -1.1768 -0.1429 -1.6635
    9MOL   H69410310   2.788   3.836   0.719 -0.0225  0.6732  0.2565
    9MOL   H69510311   2.821   3.706   0.610 -1.9077 -1.3686 -1.1656
    9MOL   H69610312   2.761   3.534   0.756  1.7159  0.1524 -0.2170
    9MOL   H69710313   2.696   3.643   0.878  0.3464  0.4543  0.4889
    9MOL   H69810314   2.898   3.617   0.978  1.4825  1.2241  1.3955
    9MOL   H69910315   2.975   3.706   0.839  0.6099 -0.2551 -0.4807
    9MOL   H70010316   2.986   3.493   0.717 -1.6360 -1.5502 -0.2857
    9MOL   H70110317   2.945   3.407   0.862  0.6526 -0.9797 -1.7591
    9MOL   H70210318   3.172   3.592   0.812  0.2068  0.0843  1.4696
    9MOL   H70310319   3.156   3.508   0.968 -0.7010 -0.8292  0.7434
    9MOL   H70410320   3.312   3.381   0.841  0.5045  0.9502 -0.5313
    9MOL   H70510321   3.162   3.293   0.851  0.7976 -0.4290  0.8280
    9MOL   H70610322   3.142   3.323   0.423 -0.7922  0.6503  2.7873
    9MOL   H70710323   3.311   3.307   0.390 -2.8463 -1.6794 -1.8949
    9MOL   H70810324   3.233   3.503   0.263  0.5370 -0.1245 -0.1296
    9MOL   H70910325   3.345   3.553   0.372 -0.8887  1.4597 -1.7042
    9MOL   H71010326   3.145   3.642   0.520 -1.6695 -1.7802  1.7888
    9MOL   H71110327   3.038   3.551   0.410 -0.1109  0.1258 -0.1682
    9MOL   H71210328   3.114   3.679   0.221  0.7407 -0.4261  0.8147
    9MOL   H71310329   3.194   3.798   0.328  0.4322  0.2291 -1.3274
    9MOL   H71410330   2.891   3.734   0.367  1.4584 -3.2163 -1.1998
    9MOL   H71510331   2.987   3.864   0.413  3.0992 -1.6364  0.2026
    9MOL   H71610332   2.905   3.788   0.128 -2.0010  1.9065 -1.2795
    9MOL   H71710333   2.827   3.901   0.226  0.4077  1.2656  0.8260
    9MOL   H71810334   3.105   3.939   0.105 -1.0140 -0.0890 -3.1580
    9MOL   H71910335   3.070   4.014   0.247  0.8397  0.5791 -0.2127
    9MOL   H72010336   3.044   4.138   0.032  0.8884  0.7683  1.3420
    9MOL   H72110337   2.907   4.045   7.742  0.3852  1.9658 -1.3780
    9MOL   O72210338   2.939   4.238   0.253  0.1523 -0.2365  0.4061
    9MOL   C72310339   2.873   4.345   0.327 -0.0021  0.1104 -0.3205
    9MOL   C72410340   2.920   4.486   0.272 -0.1569 -0.3962 -0.7349
    9MOL   C72510341   2.879   4.526   0.123 -1.0263  0.2953 -0.7648
    9MOL   C72610342   2.940   4.664   0.081 -0.7017  0.0109 -0.5999
    9MOL   C72710343   2.962   4.686   7.686 -0.6785  0.0617  0.7688
    9MOL   C72810344   2.978   4.825   7.632  0.1441  0.0197  0.6912
    9MOL   C72910345   2.846   4.911   7.636 -0.9170 -0.0052  0.2015
    9MOL   C73010346   2.865   5.065   7.625  0.2002  0.3301  0.4537
    9MOL   C73110347   2.730   5.140   7.623  0.2026 -0.7115 -0.0383
    9MOL   C73210348   2.745   5.288   7.653  0.4927  0.5856 -0.5980
    9MOL   O73310349   2.773   5.285   0.035 -0.1704 -0.3816  0.6074
    9MOL   C73410350   2.787   5.402   0.100  0.6874 -0.4005  0.1182
    9MOL   O73510351   2.783   5.514   0.051  0.1120 -0.4777  0.7896
    9MOL   C73610352   2.816   5.386   0.250 -0.2163 -0.5603 -0.7970
    9MOL   C73710353   2.708   5.333   0.349  0.2352  0.3542  0.9291
    9MOL   C73810354   2.609   5.436   0.389 -0.1224  1.2270  0.0299
    9MOL   C73910355   2.504   5.376   0.489  0.8796 -0.4948 -0.2968
    9MOL   C74010356   2.377   5.453   0.519 -0.5236  0.7572 -0.0073
    9MOL   C74110357   2.306   5.388   0.639 -0.0942 -0.2775 -0.1385
    9MOL   C74210358   2.172   5.443   0.678 -0.0617 -0.2005  0.5579
    9MOL   C74310359   2.170   5.589   0.735 -0.5876 -0.0655  0.2038
    9MOL   C74410360   2.029   5.641   0.763 -0.2543  0.0522 -0.0499
    9MOL   O74510361   1.982   5.648   0.881 -0.4357  0.0520  0.4948
    9MOL   H74610362   2.764   4.343   0.314  0.1888 -1.0582 -1.9650
    9MOL   H74710363   2.883   4.329   0.434 -1.3385  1.8258  0.0731
    9MOL   H74810364   2.887   4.564   0.341  1.4629 -0.4392  0.1100
    9MOL   H74910365   3.029   4.485   0.274 -0.1709 -2.2827  0.4266
    9MOL   H75010366   2.924   4.450   0.059  2.1452  0.7833  0.7908
    9MOL   H75110367   2.771   4.539   0.126 -1.1092 -0.6227  2.3241
    9MOL   H75210368   2.875   4.743   0.117 -1.8793 -0.0150 -2.5592
    9MOL   H75310369   3.022   4.698   0.145 -0.6976  0.4887 -0.8560
    9MOL   H75410370   2.876   4.639   7.638  1.2449  0.3448 -3.1833
    9MOL   H75510371   3.043   4.623   7.650 -1.0272 -0.2427  0.5149
    9MOL   H75610372   3.018   4.817   7.531  1.0835  0.2307  1.0472
    9MOL   H75710373   3.056   4.870   7.693  0.2947  1.4439 -0.5206
    9MOL   H75810374   2.798   4.887   7.731  0.4360 -1.1135  0.6230
    9MOL   H75910375   2.767   4.882   7.568  0.7289 -3.7552 -0.1973
    9MOL   H76010376   2.923   5.104   7.541 -0.4081 -0.2560 -0.2469
    9MOL   H76110377   2.928   5.102   7.705  0.2066 -1.5547  1.3348
    9MOL   H76210378   2.690   5.126   7.523 -1.3880  2.1903  0.1290
    9MOL   H76310379   2.651   5.101   7.688 -0.8281 -0.5406 -1.1627
    9MOL   H76410380   2.830   5.319   7.592  1.4525  2.3298  1.5715
    9MOL   H76510381   2.652   5.344   7.642 -1.3293 -1.3849  3.7364
    9MOL   H76610382   2.867   5.478   0.281  1.0785 -1.0315 -1.4727
    9MOL   H76710383   2.897   5.314   0.241 -0.2809 -0.4475 -2.5191
    9MOL   H76810384   2.769   5.292   0.430 -1.0824 -1.8689  0.8298
    9MOL   H76910385   2.658   5.249   0.301 -0.6172  2.4512 -1.9905
    9MOL   H77010386   2.551   5.472   0.304 -1.6392  0.1686  0.6126
    9MOL   H77110387   2.651   5.526   0.435 -3.2889  2.5505  0.4212
    9MOL   H77210388   2.564   5.373   0.579 -1.7556  1.7479  1.6154
    9MOL   H77310389   2.483   5.270   0.476  1.2628 -0.5838 -0.2116
    9MOL   H77410390   2.394   5.556   0.551 -2.2704  0.4778  1.9388
    9MOL   H77510391   2.305   5.448   0.436 -1.6886  0.6995  0.9903
    9MOL   H77610392   2.275   5.285   0.620  3.8912 -2.1734  2.7991
    9MOL   H77710393   2.375   5.385   0.724  0.8138 -0.8723 -0.8956
    9MOL   H77810394   2.136   5.367   0.747  0.6965 -1.3329 -0.2547
    9MOL   H77910395   2.098   5.436   0.598  0.2536  3.1556 -0.0984
    9MOL   H78010396   2.220   5.604   0.830  2.1158  0.7566 -1.3036
    9MOL   H78110397   2.210   5.664   0.666  1.0653 -1.6203 -0.5813
    9MOL   O78210398   1.963   5.674   0.643 -0.0379  0.0825 -0.8567
    9MOL   C78310399   1.837   5.730   0.643  0.0301  0.4252  0.1097
    9MOL   C78410400   1.753   5.659   0.535  0.2915  0.6900 -0.2624
    9MOL   C78510401   1.598   5.667   0.553  0.8120 -0.2410  0.4327
    9MOL   C78610402   1.533   5.530   0.526  0.7444 -0.5166 -0.2963
    9MOL   C78710403   1.385   5.527   0.543 -0.5863  0.4520 -0.1979
    9MOL   C78810404   1.315   5.393   0.519 -0.1624  0.3928 -0.8094
    9MOL   C78910405   1.291   5.355   0.373  0.4198 -0.2744  0.2629
    9MOL   C79010406   1.195   5.231   0.376 -0.5164 -0.2907 -0.2947
    9MOL   C79110407   1.208   5.145   0.248 -0.1796  0.1285 -0.5330
    9MOL   C79210408   1.110   5.026   0.245 -0.3944 -0.0942 -0.3209
    9MOL   O79310409   1.153   4.944   0.137 -0.0465 -0.6420  0.1764
    9MOL   C79410410   1.131   4.814   0.137 -0.5492 -0.6629 -0.3209
    9MOL   O79510411   1.100   4.746   0.234  0.2178 -0.2651  0.0216
    9MOL   C79610412   1.177   4.754   0.000 -0.1393 -0.6253 -0.2472
    9MOL   C79710413   1.109   4.620   7.719  0.0149  0.2156 -0.3438
    9MOL   C79810414   0.976   4.646   7.650  1.0013 -0.2985 -0.6006
    9MOL   C79910415   0.910   4.513   7.615  0.1729 -0.2225  0.0230
    9MOL   C80010416   0.776   4.529   7.543  0.3737  0.6861  0.2245
    9MOL   C80110417   0.713   4.393   7.491 -0.4692 -0.8439  0.1516
    9MOL   C80210418   0.612   4.413   7.374  0.0084 -0.2092 -0.2558
    9MOL   C80310419   0.538   4.284   7.344 -0.2836 -0.1477  0.0087
    9MOL   C80410420   0.437   4.246   7.456  0.4006 -0.2567  0.1066
    9MOL   O80510421   0.431   4.133   7.507  0.3137 -0.4372 -0.1979
    9MOL   H80610422   1.784   5.712   0.736 -0.5836 -0.2650 -0.3643
    9MOL   H80710423   1.851   5.835   0.616  0.5727  0.0131 -1.2717
    9MOL   H80810424   1.788   5.700   0.440  1.5525  0.6636  0.1866
    9MOL   H80910425   1.786   5.555   0.533  0.7956  0.8587 -0.9069
    9MOL   H81010426   1.579   5.692   0.657 -0.8973 -1.0543  0.3213
    9MOL   H81110427   1.556   5.748   0.492  2.7864 -0.8765 -1.8913
    9MOL   H81210428   1.557   5.498   0.425  3.2382  4.0429 -1.2473
    9MOL   H81310429   1.581   5.459   0.594  0.3868  0.9740  1.5710
    9MOL   H81410430   1.340   5.614   0.495  0.1313  0.2696 -1.2285
    9MOL   H81510431   1.365   5.547   0.648  1.4780  1.8198 -0.0494
    9MOL   H81610432   1.218   5.401   0.568  0.2948  0.4170  0.1029
    9MOL   H81710433   1.371   5.320   0.578  0.6218  1.5105 -0.1446
    9MOL   H81810434   1.381   5.326   0.319  0.0721 -2.7338  0.9262
    9MOL   H81910435   1.223   5.425   0.324 -1.3294 -1.2491  1.2276
    9MOL   H82010436   1.093   5.267   0.383  0.2675  1.7052  1.5078
    9MOL   H82110437   1.238   5.175   0.459  1.1203  0.0539 -0.8831
    9MOL   H82210438   1.189   5.202   0.157 -1.8693  3.3392  1.7351
    9MOL   H82310439   1.312   5.112   0.256 -0.7003 -1.2526  0.9396
    9MOL   H82410440   1.112   4.967   0.336 -0.4324 -0.4613 -0.5532
    9MOL   H82510441   1.007   5.060   0.238  0.1368  1.8299  0.8673
    9MOL   H82610442   1.285   4.750   0.016 -0.4055 -1.3931  1.4188
    9MOL   H82710443   1.162   4.830   7.680 -2.6957 -1.6287 -0.7698
    9MOL   H82810444   1.098   4.553   0.047 -1.4106 -0.2320 -0.8836
    9MOL   H82910445   1.177   4.575   7.647  1.0573 -0.0216  0.7711
    9MOL   H83010446   0.993   4.705   7.560 -0.2440 -1.3017 -1.5174
    9MOL   H83110447   0.905   4.709   7.704  0.6684 -0.2845 -1.0537
    9MOL   H83210448   0.890   4.459   7.708 -1.0017 -0.2177 -0.2148
    9MOL   H83310449   0.972   4.478   7.532 -2.0709 -0.3225 -1.6481
    9MOL   H83410450   0.698   4.576   7.603  1.8231  1.6292  1.4323
    9MOL   H83510451   0.794   4.601   7.464 -1.2544  2.6443  1.5875
    9MOL   H83610452   0.791   4.323   7.461 -0.0655  0.1129 -1.0384
    9MOL   H83710453   0.669   4.352   7.583  1.5592  0.4288  1.7251
    9MOL   H83810454   0.678   4.425   7.288  0.0283  1.4545 -0.0314
    9MOL   H83910455   0.547   4.501   7.376 -0.5002 -0.6040  1.1239
    9MOL   H84010456   0.499   4.284   7.242  0.7297  1.7977 -0.4111
    9MOL   H84110457   0.617   4.210   7.333  0.2052  0.3853 -0.1052
    9MOL   O84210458   0.366   4.358   7.497  0.1282 -0.2492 -0.1038
    9MOL   C84310459   0.278   4.347   7.608  0.2846  0.1981 -0.5072
    9MOL   C84410460   0.266   4.493   7.665  0.9387  0.0705 -0.6258
    9MOL   C84510461   0.393   4.576   7.682  0.1347 -0.1623 -0.3086
    9MOL   C84610462   0.372   4.722   7.707 -0.0919 -0.0312 -1.2695
    9MOL   C84710463   0.310   4.749   0.089 -0.0945 -0.4267  0.8081
    9MOL   C84810464   0.271   4.892   0.115 -0.9698 -0.0896  0.7656
    9MOL   C84910465   0.224   4.910   0.258 -0.5571  0.1499  1.3741
    9MOL   C85010466   0.182   5.052   0.302  0.2065 -0.4690 -0.6351
    9MOL   C85110467   0.041   5.079   0.261  0.0743  0.3181  0.5102
    9MOL   C85210468   0.010   5.220   0.291  0.1035  0.6806  0.5275
    9MOL   O85310469   7.635   5.257   0.245 -0.3027 -0.6566 -0.3014
    9MOL   C85410470   7.589   5.384   0.259  1.1173  0.9528 -0.4697
    9MOL   O85510471   7.650   5.479   0.313  0.5719  0.0266  0.2326
    9MOL   C85610472   7.450   5.406   0.207 -0.6634  0.3090  0.0910
    9MOL   C85710473   7.409   5.342   0.076 -0.5298 -0.0094  0.3715
    9MOL   C85810474   7.481   5.401   7.708  0.3733  0.1243 -0.1737
    9MOL   C85910475   7.455   5.312   7.585 -1.1884 -0.2869  0.4911
    9MOL   C86010476   7.537   5.364   7.469  0.0668  0.3514  0.2495
    9MOL   C86110477   7.543   5.279   7.346 -0.5154  1.0623  0.4557
    9MOL   C86210478   7.643   5.331   7.237  1.2238 -0.2587  0.2346
    9MOL   C86310479   7.617   5.259   7.107  0.2482 -0.7149 -0.2668
    9MOL   C86410480   7.690   5.324   6.990 -0.1268  0.3928  0.5229
    9MOL   O86510481   7.635   5.414   6.931  0.1076  0.4428 -0.1722
    9MOL   H86610482   0.186   4.295   7.583  1.1480 -2.3896  1.4839
    9MOL   H86710483   0.319   4.280   7.684 -1.8926  0.6752  1.1519
    9MOL   H86810484   0.195   4.547   7.602  0.7491 -1.1611 -1.4905
    9MOL   H86910485   0.221   4.482   0.007 -0.1494 -2.7002 -1.3920
    9MOL   H87010486   0.457   4.528   0.000 -0.8919  0.3789  0.9355
    9MOL   H87110487   0.454   4.559   7.593  2.0104 -0.9583  1.0818
    9MOL   H87210488   0.465   4.779   7.703  0.7974 -1.2989  0.9678
    9MOL   H87310489   0.307   4.776   7.637 -2.7894 -0.5675  0.7226
    9MOL   H87410490   0.381   4.722   0.167  0.7413  0.0408  0.2196
    9MOL   H87510491   0.228   4.681   0.111  0.1137 -0.7267  0.6605
    9MOL   H87610492   0.199   4.937   0.046 -2.1507 -1.5618  1.0070
    9MOL   H87710493   0.364   4.947   0.101 -0.7642 -0.3037  1.3154
    9MOL   H87810494   0.311   4.891   0.321  0.3040 -0.7499 -0.0544
    9MOL   H87910495   0.135   4.850   0.280 -2.9987  2.8421 -0.9085
    9MOL   H88010496   0.246   5.125   0.253  1.9406 -1.5511 -0.0521
    9MOL   H88110497   0.174   5.057   0.410 -0.4399  0.2812 -0.7179
    9MOL   H88210498   0.020   5.049   0.158  1.7328  0.2004  0.2032
    9MOL   H88310499   7.747   5.004   0.322  0.2113 -0.1848  0.0065
    9MOL   H88410500   0.025   5.239   0.398 -0.2780 -1.9407  1.0690
    9MOL   H88510501   0.077   5.287   0.238  1.8834 -2.1717 -0.9348
    9MOL   H88610502   7.427   5.513   0.202 -2.2527 -0.0285 -0.0463
    9MOL   H88710503   7.400   5.361   0.293 -0.6035  0.3138  0.1275
    9MOL   H88810504   7.304   5.363   0.057 -1.0481  0.9636  4.0365
    9MOL   H88910505   7.429   5.235   0.086  1.7257  0.2319 -1.1065
    9MOL   H89010506   7.585   5.419   7.736  0.3413  0.3889 -0.2234
    9MOL   H89110507   7.461   5.503   7.677 -1.0353 -0.0669  0.0766
    9MOL   H89210508   7.349   5.317   7.562 -0.8626  2.0791 -0.6639
    9MOL   H89310509   7.465   5.204   7.598  1.3757 -0.0585  0.8445
    9MOL   H89410510   7.500   5.461   7.437 -3.9039 -1.7248 -1.7979
    9MOL   H89510511   7.642   5.376   7.499  0.2944  0.6441 -0.6543
    9MOL   H89610512   7.560   5.173   7.365  0.5918  0.9906 -0.8583
    9MOL   H89710513   7.445   5.287   7.298 -1.3147 -1.8019  1.5112
    9MOL   H89810514   7.747   5.314   7.267  1.1546  0.5898  0.9705
    9MOL   H89910515   7.622   5.438   7.227  0.7658 -0.4975 -1.4784
    9MOL   H90010516   7.642   5.154   7.124  0.1852 -0.5684  0.7677
    9MOL   H90110517   7.511   5.256   7.081  0.3577  0.1317 -0.8474
    9MOL   O90210518   0.060   5.285   6.973 -0.3148  0.3935  0.4346
    9MOL   C90310519   0.135   5.315   6.856 -0.8652  0.5768  0.3140
    9MOL   C90410520   0.110   5.211   6.738 -0.4933 -0.2940  0.0302
    9MOL   C90510521   0.204   5.243   6.617  0.1888 -0.3077 -0.2975
    9MOL   C90610522   0.177   5.143   6.505 -0.4607  0.1933 -0.0386
    9MOL   C90710523   0.073   5.196   6.403 -0.4837 -0.0960  0.3865
    9MOL   C90810524   0.084   5.119   6.268  0.2376  0.4063  0.6958
    9MOL   C90910525   0.202   5.172   6.182 -0.2461  0.1126 -0.2775
    9MOL   C91010526   0.220   5.324   6.149 -0.5847 -0.4226 -1.3143
    9MOL   C91110527   0.111   5.380   6.059  0.6843 -0.8629 -0.1828
    9MOL   C91210528   0.134   5.521   6.009 -0.3731  0.4325  0.3811
    9MOL   O91310529   0.009   5.561   5.946  0.5476 -0.2149  0.4423
    9MOL   C91410530   7.743   5.696   5.922 -0.4805  0.2291 -0.2420
    9MOL   O91510531   0.063   5.785   5.959  0.3919  0.1456  0.1217
    9MOL   C91610532   7.617   5.717   5.840 -0.7286 -0.3205  0.2980
    9MOL   C91710533   7.504   5.675   5.926 -0.3364 -0.8069 -0.1152
    9MOL   C91810534   7.378   5.753   5.881  0.1548 -0.5073  0.0242
    9MOL   C91910535   7.313   5.706   5.750 -0.9851 -0.0244 -0.0011
    9MOL   C92010536   7.188   5.783   5.701  0.5106  0.4770 -1.4150
    9MOL   C92110537   7.108   5.725   5.583  0.2936 -0.7918  0.7116
    9MOL   C92210538   7.046   5.584   5.611 -0.1749 -0.6202  0.0018
    9MOL   C92310539   6.968   5.523   5.496 -0.5251 -0.1053 -0.3370
    9MOL   C92410540   6.833   5.578   5.460  0.4305  0.3794  0.2563
    9MOL   O92510541   6.816   5.642   5.350  0.4143  0.1936 -0.4169
    9MOL   H92610542   0.124   5.421   6.833 -0.6655  1.0846  2.4239
    9MOL   H92710543   0.238   5.297   6.888 -0.5399 -0.8551 -1.4461
    9MOL   H92810544   0.127   5.110   6.774  1.0176  0.1353  0.5710
    9MOL   H92910545   0.008   5.213   6.700 -1.0372 -1.9333  1.3462
    9MOL   H93010546   0.188   5.346   6.586  0.7849  0.6138  2.3665
    9MOL   H93110547   0.310   5.233   6.637  0.5076  0.8790 -1.3263
    9MOL   H93210548   0.268   5.115   6.452 -2.3505 -0.1364 -3.2221
    9MOL   H93310549   0.148   5.048   6.550  0.1403 -1.2732 -2.6568
    9MOL   H93410550   0.083   5.303   6.382 -3.0708 -0.2867 -2.1221
    9MOL   H93510551   7.727   5.189   6.439 -0.8323 -0.6905 -0.7201
    9MOL   H93610552   7.745   5.125   6.217  0.5004  2.0376  0.3850
    9MOL   H93710553   0.102   5.012   6.280 -0.9468  0.1456  0.2127
    9MOL   H93810554   0.187   5.117   6.089  1.6783 -0.6584 -0.1640
    9MOL   H93910555   0.296   5.144   6.230 -0.8918  2.0404  2.1569
    9MOL   H94010556   0.312   5.346   6.095  1.1235  0.0783  1.7206
    9MOL   H94110557   0.236   5.379   6.242  1.5965 -0.7792 -1.4613
    9MOL   H94210558   0.102   5.319   5.969 -0.3836 -2.0894  0.7392
    9MOL   H94310559   0.014   5.378   6.110 -1.0531  0.0792 -3.3088
    9MOL   H94410560   0.158   5.599   6.082  0.7136  0.0275  0.4592
    9MOL   H94510561   0.207   5.515   5.929 -0.7590 -0.5112  0.1007
    9MOL   H94610562   7.634   5.665   5.745  2.4197 -0.3849  0.8547
    9MOL   H94710563   7.606   5.817   5.800 -0.0137 -0.2816  0.1860
    9MOL   H94810564   7.515   5.691   6.034 -0.1557 -0.4344 -0.1868
    9MOL   H94910565   7.485   5.568   5.923  0.5341 -1.0047  0.8203
    9MOL   H95010566   7.400   5.860   5.885  1.5884 -0.8168  0.7340
    9MOL   H95110567   7.305   5.742   5.961 -0.8330 -1.9898 -1.0684
    9MOL   H95210568   7.307   5.598   5.756 -0.5584  0.0392  2.0211
    9MOL   H95310569   7.383   5.725   5.669 -0.0736  1.2882  1.0718
    9MOL   H95410570   7.123   5.794   5.787  2.5321 -2.8497  0.6700
    9MOL   H95510571   7.227   5.883   5.680 -1.2158  1.5349  0.2242
    9MOL   H95610572   7.031   5.790   5.543  0.1318 -0.8283  0.9592
    9MOL   H95710573   7.179   5.716   5.502  0.1006 -0.3538  0.4943
    9MOL   H95810574   6.977   5.586   5.695 -1.0351 -0.9221 -0.6951
    9MOL   H95910575   7.128   5.514   5.630 -0.9985 -1.3290  0.9499
    9MOL   H96010576   7.021   5.537   5.402 -0.7042  0.0904 -0.4089
    9MOL   H96110577   6.965   5.415   5.509 -1.9531  0.0278  0.6599
    9MOL   O96210578   6.746   5.538   5.556 -0.0619  0.1210  0.2710
    9MOL   C96310579   6.607   5.571   5.551 -0.0321  0.0797  0.3559
    9MOL   C96410580   6.513   5.511   5.656  0.2542  0.8081  0.3531
    9MOL   C96510581   6.500   5.358   5.654  0.3947  0.7934 -0.0560
    9MOL   C96610582   6.420   5.294   5.763  1.1480  0.2082  0.1602
    9MOL   C96710583   6.420   5.138   5.752 -0.0382 -0.4952  0.3350
    9MOL   C96810584   6.534   5.088   5.847  0.0272 -0.4455  0.0298
    9MOL   C96910585   6.577   4.943   5.833 -0.1481  0.5554 -0.3840
    9MOL   C97010586   6.688   4.906   5.940 -0.1138  0.0740 -0.1077
    9MOL   C97110587   6.713   4.756   5.950  1.1240 -0.2673 -0.2400
    9MOL   C97210588   6.810   4.712   6.064  0.6075  0.1334  0.6992
    9MOL   O97310589   6.941   4.780   6.069  0.1713  0.2098  0.0536
    9MOL   C97410590   7.045   4.756   5.991  0.7779  0.1165  0.5934
    9MOL   O97510591   7.051   4.681   5.891 -0.1185 -0.2608  0.1488
    9MOL   C97610592   7.170   4.831   6.039 -1.0694 -0.1610  0.3209
    9MOL   C97710593   7.184   4.845   6.191  0.4197 -0.1735  0.9436
    9MOL   C97810594   7.314   4.900   6.247  0.1160 -0.3742  0.3928
    9MOL   C97910595   7.306   4.919   6.403 -0.4447  0.6939  0.2012
    9MOL   C98010596   7.431   4.990   6.453 -1.0915  0.9022 -1.0410
    9MOL   C98110597   7.445   4.952   6.605 -0.6848 -0.8279  0.2755
    9MOL   C98210598   7.574   5.022   6.664  0.1292 -0.1352  0.3415
    9MOL   C98310599   7.584   5.012   6.826 -0.0910 -0.9311  0.4123
    9MOL   C98410600   7.639   4.876   6.870  0.4166 -0.3012  0.2630
    9MOL   O98510601   0.002   4.860   6.875  0.2152 -0.3368 -0.4955
    9MOL   H98610602   6.598   5.679   5.557  1.9200  0.4158 -1.9011
    9MOL   H98710603   6.581   5.536   5.451 -1.4053  0.9664  0.3830
    9MOL   H98810604   6.558   5.540   5.750  0.9101  1.1102 -0.0526
    9MOL   H98910605   6.412   5.551   5.647 -0.2021 -0.1508  1.1025
    9MOL   H99010606   6.464   5.319   5.559  0.2681 -0.7684  0.6227
    9MOL   H99110607   6.602   5.320   5.661  0.7305  1.4044 -1.4593
    9MOL   H99210608   6.440   5.329   5.864 -1.3355 -1.0534  1.1492
    9MOL   H99310609   6.315   5.323   5.752  0.9586 -0.4456  0.2600
    9MOL   H99410610   6.442   5.104   5.651  1.9576  0.5923  0.3793
    9MOL   H99510611   6.326   5.099   5.791 -1.5939  1.9461 -0.8744
    9MOL   H99610612   6.500   5.115   5.947 -0.1062  0.8232 -0.3503
    9MOL   H99710613   6.624   5.142   5.818 -0.8463 -0.6037 -3.1224
    9MOL   H99810614   6.608   4.920   5.731  3.7448 -0.9292  1.0179
    9MOL   H99910615   6.489   4.880   5.842  0.1832 -0.2985 -2.8731
    9MOL     H110616   6.638   4.928   6.034 -1.5047 -1.3654 -0.4906
    9MOL     H210617   6.779   4.966   5.935 -0.2496  0.2863 -0.0576
    9MOL     H310618   6.613   4.716   5.966 -0.2769  2.6258 -1.4624
    9MOL     H410619   6.759   4.717   5.859  1.2705 -0.0990 -0.2379
    9MOL     H510620   6.766   4.752   6.156  1.6423  0.5178  1.0337
    9MOL     H610621   6.820   4.604   6.076 -1.4518 -0.4324 -2.1954
    9MOL     H710622   7.168   4.924   5.981  0.3707  1.2028  2.3906
    9MOL     H810623   7.245   4.771   5.988 -1.1939  0.5363 -0.6995
    9MOL     H910624   7.171   4.748   6.239 -0.6672 -0.6639 -0.3161
    9MOL    H1010625   7.098   4.902   6.228  1.1012  2.3832 -1.2617
    9MOL    H1110626   7.332   4.997   6.202  1.8403 -0.2884  1.2087
    9MOL    H1210627   7.409   4.852   6.224 -0.3069 -0.3036 -1.5077
    9MOL    H1310628   7.312   4.817   6.441  1.6798  0.2435 -1.2074
    9MOL    H1410629   7.206   4.958   6.423 -1.5856 -1.3904 -1.2378
    9MOL    H1510630   7.516   4.950   6.398  0.6062  0.2330  1.9609
    9MOL    H1610631   7.423   5.097   6.437  3.6006  1.1759 -2.2595
    9MOL    H1710632   7.355   4.988   6.655  0.4672  0.2606  1.6383
    9MOL    H1810633   7.453   4.845   6.620 -0.2336 -0.8296  0.0231
    9MOL    H1910634   7.563   5.129   6.646 -0.4093 -0.6998 -2.9835
    9MOL    H2010635   7.663   4.995   6.609 -1.4886 -1.8783 -1.4690
    9MOL    H2110636   7.647   5.091   6.867  0.3893 -0.3906 -1.3538
    9MOL    H2210637   7.485   5.039   6.863 -0.4629 -0.8323 -0.6292
    9MOL    O2310638   7.544   4.795   6.900  0.3377  0.1353 -0.5556
    9MOL    C2410639   7.573   4.669   6.953 -0.0611 -0.6353 -0.2099
    9MOL    C2510640   7.472   4.567   6.894 -0.3088 -0.4911 -0.8015
    9MOL    C2610641   7.528   4.421   6.921 -0.3960 -0.1574  0.4861
    9MOL    C2710642   7.426   4.301   6.911 -0.9505 -0.1328 -0.1721
    9MOL    C2810643   7.383   4.266   6.774  0.0545  0.3426  0.1716
    9MOL    C2910644   7.313   4.128   6.775  0.2188  0.2716 -0.4544
    9MOL    C3010645   7.165   4.135   6.816 -0.1757  0.0669  0.0236
    9MOL    C3110646   7.087   4.030   6.754  0.1123 -0.0146 -0.0172
    9MOL    C3210647   6.940   4.051   6.790 -0.0944 -0.4794  0.7005
    9MOL    C3310648   6.915   3.995   6.930 -0.1230 -0.5516  0.0595
    9MOL    O3410649   6.774   4.003   6.951 -0.0136 -0.4610  0.5716
    9MOL    C3510650   6.711   3.935   7.052 -0.0072  0.3655 -0.7370
    9MOL    O3610651   6.768   3.868   7.132  0.3307 -0.1090 -0.2684
    9MOL    C3710652   6.564   3.940   7.042 -0.6985  0.0987 -0.1410
    9MOL    C3810653   6.511   3.902   6.904  0.4425  0.5584  0.8276
    9MOL    C3910654   6.400   3.801   6.903 -0.4527  0.4116  0.3461
    9MOL    C4010655   6.343   3.775   6.764 -0.3812  0.5797  0.9471
    9MOL    C4110656   6.287   3.901   6.694  0.0984  0.2201  0.2508
    9MOL    C4210657   6.188   3.853   6.575  0.1315  0.0287  0.3228
    9MOL    C4310658   6.090   3.958   6.521  0.2602 -0.2821  0.1703
    9MOL    C4410659   6.151   4.096   6.492 -0.6344  0.2559 -0.0887
    9MOL    C4510660   6.142   4.187   6.607 -0.1824 -0.4381  0.6108
    9MOL    O4610661   6.032   4.236   6.642 -0.2638  0.0290 -0.1551
    9MOL    H4710662   7.674   4.640   6.922  0.3758 -0.0509  0.6295
    9MOL    H4810663   7.567   4.687   7.061  3.1339 -1.8699  0.2468
    9MOL    H4910664   7.368   4.573   6.924 -0.0901 -0.5882 -0.0250
    9MOL    H5010665   7.470   4.574   6.785 -0.4068 -1.5592 -0.8753
    9MOL    H5110666   7.610   4.397   6.854  0.8836  1.0442  1.5884
    9MOL    H5210667   7.574   4.419   7.019  1.1399 -2.4709 -0.2274
    9MOL    H5310668   7.478   4.225   6.969  1.4723  0.2743 -1.7209
    9MOL    H5410669   7.337   4.323   6.969 -1.0044  2.4379 -1.1435
    9MOL    H5510670   7.469   4.243   6.711 -0.7997 -0.5534 -0.6762
    9MOL    H5610671   7.331   4.353   6.734  0.5184  0.9666  0.8914
    9MOL    H5710672   7.363   4.057   6.841 -1.3255 -0.1558  0.2633
    9MOL    H5810673   7.321   4.093   6.672 -0.7380 -0.1214 -0.3995
    9MOL    H5910674   7.134   4.238   6.798  2.2365  0.8113  0.0168
    9MOL    H6010675   7.168   4.131   6.925  2.8288 -0.6167 -0.0507
    9MOL    H6110676   7.111   3.924   6.765  0.1769  0.0171  0.1427
    9MOL    H6210677   7.084   4.030   6.645  1.1899  2.4733 -0.0700
    9MOL    H6310678   6.924   4.158   6.798 -0.7576 -0.4662 -0.6901
    9MOL    H6410679   6.872   4.000   6.722 -1.4900  0.0558  1.6618
    9MOL    H6510680   6.951   3.893   6.941 -1.1126 -1.0785 -1.4787
    9MOL    H6610681   6.967   4.049   7.009  3.3305 -0.3824 -2.2399
    9MOL    H6710682   6.539   4.044   7.063 -2.0800 -0.0961 -0.7808
    9MOL    H6810683   6.516   3.884   7.123 -1.1613  0.1670 -0.3696
    9MOL    H6910684   6.589   3.873   6.834  0.8869 -1.5865  2.1733
    9MOL    H7010685   6.463   3.995   6.873  3.3215  1.5544 -0.8596
    9MOL    H7110686   6.323   3.838   6.971 -0.0456  0.9276  0.5257
    9MOL    H7210687   6.435   3.709   6.951  0.4792 -0.7321 -2.4548
    9MOL    H7310688   6.263   3.701   6.763  1.0034 -0.9539 -0.4321
    9MOL    H7410689   6.419   3.734   6.697 -1.7118 -1.6713  0.7580
    9MOL    H7510690   6.228   3.960   6.764 -0.9329 -1.1085  0.5035
    9MOL    H7610691   6.371   3.966   6.668  0.1427  0.3694  0.7657
    9MOL    H7710692   6.254   3.807   6.502 -2.1671 -1.9842 -0.5285
    9MOL    H7810693   6.128   3.768   6.608 -0.0381 -0.4745 -1.2630
    9MOL    H7910694   5.997   3.966   6.577  0.3526 -0.8546  0.3975
    9MOL    H8010695   6.042   3.926   6.428 -1.4586  0.6743  0.6981
    9MOL    H8110696   6.249   4.086   6.446  0.2314  1.2596  1.5184
    9MOL    H8210697   6.080   4.132   6.417 -0.5952 -2.6568 -1.5929
    9MOL    O8310698   6.260   4.217   6.658  0.3161  0.1179  0.2655
    9MOL    C8410699   6.251   4.300   6.769 -0.0716  0.1619  0.2138
    9MOL    C8510700   6.358   4.282   6.876 -0.2286  0.4107  1.3346
    9MOL    C8610701   6.493   4.311   6.816  0.3955  0.2586  0.2641
    9MOL    C8710702   6.612   4.297   6.916  0.2885 -0.4495 -0.5517
    9MOL    C8810703   6.641   4.434   6.986 -0.3662  0.1594 -0.2419
    9MOL    C8910704   6.737   4.420   7.110  0.2007  0.5063 -0.1619
    9MOL    C9010705   6.877   4.362   7.093 -0.0658 -0.2754  0.2954
    9MOL    C9110706   6.988   4.419   7.176  0.2180  0.1091  0.5446
    9MOL    C9210707   7.129   4.374   7.138  0.4130  0.5427 -0.0357
    9MOL    C9310708   7.239   4.458   7.200  0.6042  0.3975 -0.3528
    9MOL    O9410709   7.220   4.596   7.176 -0.3003 -0.1659  0.5178
    9MOL    C9510710   7.299   4.685   7.233 -0.8924  0.1994 -0.1712
    9MOL    O9610711   7.389   4.656   7.310 -0.1690 -0.0438  0.1792
    9MOL    C9710712   7.266   4.833   7.191 -0.1899  0.0192  0.2362
    9MOL    C9810713   7.355   4.938   7.254 -0.2541  0.0233  0.2516
    9MOL    C9910714   7.328   4.956   7.406  0.0183  0.0325  0.1788
    9MOL   C10010715   7.203   5.040   7.432 -0.2907 -0.6034  0.1655
    9MOL   C10110716   7.180   5.033   7.580  0.4536  0.3651  0.3998
    9MOL   C10210717   7.063   5.130   7.614  0.0258 -0.0268 -0.0440
    9MOL   C10310718   7.036   5.134   0.012 -0.4833  0.0806 -0.1025
    9MOL   C10410719   6.987   4.999   0.070  0.3199 -0.2199 -0.4378
    9MOL   C10510720   6.859   5.008   0.155 -0.6771 -0.0179  0.5103
    9MOL   O10610721   6.773   4.923   0.142 -0.1311  0.1602 -0.0296
    9MOL   H10710722   6.246   4.403   6.734 -2.1262  0.8123  2.2648
    9MOL   H10810723   6.161   4.289   6.830  1.1724 -1.6614  1.7624
    9MOL   H10910724   6.343   4.343   6.965  0.1276  1.6983  0.5395
    9MOL   H11010725   6.342   4.178   6.903  1.9665 -0.6594 -1.2651
    9MOL   H11110726   6.513   4.235   6.740 -2.5925 -0.6851  0.3827
    9MOL   H11210727   6.479   4.406   6.766 -2.0392  0.1802  0.7606
    9MOL   H11310728   6.594   4.221   6.991 -1.5565  0.2077 -0.3224
    9MOL   H11410729   6.702   4.266   6.862 -0.4603 -1.4383 -1.2470
    9MOL   H11510730   6.552   4.484   7.022 -0.1614  0.6218 -0.3734
    9MOL   H11610731   6.685   4.504   6.914 -0.1334  0.2051 -0.0570
    9MOL   H11710732   6.693   4.361   7.191 -0.4197 -0.8383 -1.4605
    9MOL   H11810733   6.751   4.516   7.160  1.2747  0.5691 -0.5750
    9MOL   H11910734   6.902   4.358   6.987 -0.5117 -0.7423  0.2054
    9MOL   H12010735   6.867   4.256   7.115 -0.0631  0.0973  2.1957
    9MOL   H12110736   6.957   4.416   7.280 -0.7233  0.4049  0.2842
    9MOL   H12210737   6.985   4.524   7.150  1.0103 -0.0329 -0.1527
    9MOL   H12310738   7.148   4.272   7.173 -0.4617  0.2044 -0.5112
    9MOL   H12410739   7.135   4.372   7.030 -1.8900  0.3930 -0.1983
    9MOL   H12510740   7.238   4.438   7.307  2.0032 -1.7934 -0.7159
    9MOL   H12610741   7.338   4.429   7.164  0.5559  1.0210 -0.9894
    9MOL   H12710742   7.160   4.851   7.208  0.0797  1.0890  0.7854
    9MOL   H12810743   7.270   4.847   7.083 -0.8612 -0.9207  0.0813
    9MOL   H12910744   7.341   5.031   7.199  1.0048 -1.2271 -2.2615
    9MOL   H13010745   7.461   4.914   7.260 -0.7142 -1.7831  1.5413
    9MOL   H13110746   7.416   4.996   7.457  0.7938 -0.6569 -0.6039
    9MOL   H13210747   7.330   4.858   7.454 -0.7085  0.5198  1.2254
    9MOL   H13310748   7.122   4.986   7.383 -1.0131 -1.9698  2.7466
    9MOL   H13410749   7.217   5.143   7.399 -1.6365  0.6086  3.1509
    9MOL   H13510750   7.152   4.933   7.611  0.7128  0.0762 -0.2930
    9MOL   H13610751   7.265   5.068   7.639 -1.4602  2.0870  2.2409
    9MOL   H13710752   7.092   5.231   7.585  0.0316  0.1434  0.5570
    9MOL   H13810753   6.967   5.105   7.569  0.2740 -4.0245  1.4089
    9MOL   H13910754   6.962   5.211   0.033  0.9672  2.4326 -3.2681
    9MOL   H14010755   7.131   5.151   0.063 -1.0411 -1.1924  1.3965
    9MOL   H14110756   6.953   4.955   7.733 -0.9444  0.7419 -0.4232
    9MOL   H14210757   7.067   4.933   0.105  0.0010  0.5033  1.7199
    9MOL   O14310758   6.855   5.102   0.244 -0.0795  0.4274  0.3607
    9MOL   C14410759   6.739   5.099   0.325 -0.3865 -0.2208 -0.8825
    9MOL   C14510760   6.702   5.236   0.388  0.1871 -0.3998  0.1377
    9MOL   C14610761   6.670   5.346   0.282  0.0840  0.3363  0.0736
    9MOL   C14710762   6.650   5.487   0.343  0.2472  0.2243  0.0296
    9MOL   C14810763   6.514   5.496   0.418  0.3725 -0.2254  0.4524
    9MOL   C14910764   6.487   5.631   0.473  0.5144  0.0170  0.3160
    9MOL   C15010765   6.445   5.746   0.380 -0.1455  0.2243 -0.5839
    9MOL   C15110766   6.312   5.720   0.306  0.4068  0.2942 -0.6533
    9MOL   C15210767   6.187   5.727   0.397  0.6937 -0.0862 -0.2352
    9MOL   C15310768   6.057   5.725   0.320 -0.0977 -0.4409 -0.1465
    9MOL   O15410769   5.956   5.716   0.420 -0.4479 -0.2529 -0.0046
    9MOL   C15510770   5.874   5.614   0.405 -0.3343  0.3604  0.9357
    9MOL   O15610771   5.872   5.522   0.322  0.0928  0.6703  0.0502
    9MOL   C15710772   5.762   5.611   0.510  0.4084 -0.6705 -0.3673
    9MOL   C15810773   5.667   5.487   0.507 -0.0348  0.0355  0.1211
    9MOL   C15910774   5.717   5.374   0.588 -0.0400  0.1243 -0.0576
    9MOL   C16010775   5.634   5.249   0.580  0.5603  0.5748  0.0465
    9MOL   C16110776   5.687   5.137   0.666 -0.0206 -0.5896  0.2197
    9MOL   C16210777   5.813   5.082   0.601 -0.1349  0.2919  0.2201
    9MOL   C16310778   5.843   4.941   0.658  0.3199 -0.1704  0.1988
    9MOL   C16410779   5.907   4.939   0.796 -0.1671 -0.5675 -0.1619
    9MOL   C16510780   6.057   4.974   0.805  0.1462 -0.5303  0.0591
    9MOL   O16610781   6.138   4.916   0.728  0.1584 -0.2060  0.3629
    9MOL   H16710782   6.652   5.073   0.265 -1.5867  0.1333  0.6815
    9MOL   H16810783   6.754   5.036   0.412  0.4986  0.7103 -0.3472
    9MOL   H16910784   6.621   5.222   0.459  0.7092 -1.1826  0.5946
    9MOL   H17010785   6.789   5.271   0.444  1.2207 -1.0126 -1.0716
    9MOL   H17110786   6.760   5.359   0.223  0.4942 -0.6452  0.4703
    9MOL   H17210787   6.587   5.311   0.220  0.6513 -1.1106  0.1191
    9MOL   H17310788   6.733   5.516   0.407  0.3373 -0.7298  0.3502
    9MOL   H17410789   6.643   5.564   0.267 -1.6785 -1.5774 -1.7089
    9MOL   H17510790   6.502   5.422   0.497 -1.7620  1.5872  1.8954
    9MOL   H17610791   6.437   5.470   0.345 -1.6754 -1.4420  2.9596
    9MOL   H17710792   6.574   5.657   0.532 -0.0165  3.2157 -0.2165
    9MOL   H17810793   6.412   5.622   0.552  0.5869  1.1399  0.5300
    9MOL   H17910794   6.518   5.767   0.302  0.0751  2.3936  0.2008
    9MOL   H18010795   6.433   5.838   0.436 -0.9424 -0.6942  0.7890
    9MOL   H18110796   6.324   5.633   0.242  6.9943 -0.3363  1.0806
    9MOL   H18210797   6.302   5.802   0.236  1.0368  1.3396  0.4699
    9MOL   H18310798   6.200   5.645   0.468 -0.0419 -1.1037 -1.2505
    9MOL   H18410799   6.187   5.820   0.453 -5.0720 -0.1082  0.0918
    9MOL   H18510800   6.045   5.820   0.268 -0.9929 -0.3270  0.2539
    9MOL   H18610801   6.053   5.649   0.242  0.4284  0.2381 -0.8350
    9MOL   H18710802   5.710   5.703   0.482  0.0898 -0.8718 -0.4358
    9MOL   H18810803   5.811   5.629   0.606 -2.1780 -0.4038  0.9404
    9MOL   H18910804   5.655   5.455   0.403 -0.9806 -0.9341  0.5206
    9MOL   H19010805   5.568   5.511   0.546  0.5582 -1.2430  2.4998
    9MOL   H19110806   5.739   5.400   0.692  1.3325  1.0203 -0.5725
    9MOL   H19210807   5.816   5.354   0.548 -0.0867  0.2573 -0.2402
    9MOL   H19310808   5.626   5.229   0.473  2.7452  0.0283 -0.0408
    9MOL   H19410809   5.535   5.273   0.620 -0.0142 -1.7509  0.1144
    9MOL   H19510810   5.720   5.186   0.758  0.6981  2.3086 -1.5146
    9MOL   H19610811   5.614   5.061   0.695 -0.9722  0.8527  1.6864
    9MOL   H19710812   5.797   5.072   0.494 -1.2581  2.8218  0.1034
    9MOL   H19810813   5.888   5.158   0.624 -1.6647  2.4292 -1.6322
    9MOL   H19910814   5.895   4.872   0.592 -1.7319 -2.3058  0.7819
    9MOL   H20010815   5.744   4.897   0.656  0.4324 -0.5165  1.5849
    9MOL   H20110816   5.844   5.008   0.853  0.7444  0.6820 -0.6325
    9MOL   H20210817   5.897   4.846   0.851  1.1032 -0.5857  0.0732
    9MOL   H20310818   6.084   5.054   0.875 -1.5203  0.0629  0.0478
   10MOL     O110819   3.470   7.222   6.926 -0.0842 -0.1266  0.5637
   10MOL     C210820   3.504   7.240   7.058 -0.1668 -0.6220 -0.0018
   10MOL     C310821   3.518   7.387   7.105 -0.5687 -0.1935  0.2500
   10MOL     C410822   3.613   7.468   7.026 -0.3215  0.3593  0.4856
   10MOL     C510823   3.629   7.606   7.087  0.0563 -0.2004 -0.0941
   10MOL     C610824   3.733   7.690   7.006  0.4099 -0.0509  0.3100
   10MOL     C710825   3.797   0.043   7.088 -0.2531  0.3851 -0.2425
   10MOL     C810826   3.695   0.140   7.158  0.6472  0.3791  0.0204
   10MOL     C910827   3.771   0.205   7.280  0.5348 -0.1152  0.5434
   10MOL    C1010828   3.680   0.305   7.348  0.3583 -0.0642 -0.8758
   10MOL    C1110829   3.556   0.249   7.427  0.1995 -0.1606  0.6400
   10MOL    O1210830   3.617   0.160   7.528 -0.1347 -0.1824  0.3719
   10MOL    C1310831   3.573   0.037   7.541 -0.1427 -0.4136 -0.2890
   10MOL    O1410832   3.507   7.726   7.464  0.4508  0.1413  0.0615
   10MOL    C1510833   3.647   7.723   7.659 -0.8685  0.2880 -0.3607
   10MOL    C1610834   3.617   0.006   0.043  0.5273  0.1387 -0.5775
   10MOL    C1710835   3.473   7.756   0.095  0.0916  0.7322 -0.0577
   10MOL    C1810836   3.407   7.620   0.063  0.2185 -0.8603 -0.7327
   10MOL    C1910837   3.269   7.602   0.138 -0.5320  0.7500 -0.0647
   10MOL    C2010838   3.138   7.641   0.066 -0.4733  0.1067 -0.4226
   10MOL    C2110839   3.014   7.669   0.155  0.1868 -0.3251  0.2257
   10MOL    C2210840   2.941   7.543   0.187  0.2953 -0.3470 -0.2930
   10MOL    C2310841   2.816   7.577   0.269  0.0184  0.4979 -0.3123
   10MOL    O2410842   2.808   7.560   0.392 -0.2489 -0.0353 -0.4621
   10MOL    H2510843   3.440   7.180   7.122 -0.1286  1.0959  1.7177
   10MOL    H2610844   3.602   7.198   7.081  0.1148 -0.4541 -0.8883
   10MOL    H2710845   3.426   7.446   7.108  0.1257  0.8429  1.4775
   10MOL    H2810846   3.547   7.378   7.209  0.5353 -1.7233 -0.1833
   10MOL    H2910847   3.707   7.413   7.026 -2.1193 -2.9135 -1.7837
   10MOL    H3010848   3.579   7.484   6.924  0.0169  1.1403  0.4994
   10MOL    H3110849   3.536   7.662   7.095  0.9763  1.3839 -0.2869
   10MOL    H3210850   3.671   7.581   7.184  2.0267 -0.5640 -1.0033
   10MOL    H3310851   3.687   7.744   6.923  1.6121  1.6545  0.7147
   10MOL    H3410852   3.810   7.626   6.962  2.0250  2.0523 -0.0516
   10MOL    H3510853   3.873   0.101   7.035 -1.0864  0.1861 -1.7048
   10MOL    H3610854   3.860   7.746   7.158 -0.0435 -0.8921 -1.3771
   10MOL    H3710855   3.618   0.079   7.206  1.0364 -2.0387 -2.3463
   10MOL    H3810856   3.648   0.212   7.091 -2.3940 -1.5685 -0.0090
   10MOL    H3910857   3.857   0.259   7.240  0.9049  0.2856  1.8553
   10MOL    H4010858   3.806   0.142   7.362  2.1240  1.5778  1.2057
   10MOL    H4110859   3.735   0.373   7.413 -1.0973  0.7237 -0.4588
   10MOL    H4210860   3.641   0.366   7.266 -0.6106 -2.7027 -2.4556
   10MOL    H4310861   3.488   0.325   7.465  0.8429  0.5911  0.3021
   10MOL    H4410862   3.492   0.194   7.359 -0.7514  1.2033  0.4164
   10MOL    H4510863   3.754   7.717   7.636 -1.1528  1.5847 -2.1703
   10MOL    H4610864   3.623   7.619   7.636 -0.8558  0.0355  0.7218
   10MOL    H4710865   3.663   0.103   0.061 -2.0234  1.5343 -1.3891
   10MOL    H4810866   3.671   7.695   0.110  3.6017  2.0081 -1.0908
   10MOL    H4910867   3.402   0.071   0.053 -1.4057 -0.3998  0.4999
   10MOL    H5010868   3.488   0.013   0.202 -0.1330  1.5681 -0.1326
   10MOL    H5110869   3.470   7.541   0.103  2.0044  0.8932 -0.0224
   10MOL    H5210870   3.406   7.605   7.711  0.5398 -0.4662 -0.7906
   10MOL    H5310871   3.251   7.497   0.160 -2.0374  1.3798  1.8954
   10MOL    H5410872   3.279   7.660   0.230  1.5042  2.1219 -1.1331
   10MOL    H5510873   3.165   7.737   0.024 -1.9391  0.3042 -0.9555
   10MOL    H5610874   3.110   7.569   7.746  0.9576 -0.8857 -0.0449
   10MOL    H5710875   2.962   7.751   0.106  0.6427  0.4507  1.0123
   10MOL    H5810876   3.048   7.714   0.249  0.6486 -1.8928  0.8357
   10MOL    H5910877   2.902   7.486   0.103  1.0173 -0.5792 -0.4764
   10MOL    H6010878   2.996   7.471   0.247  1.8210  0.4915 -0.6458
   10MOL    H6110879   3.471   7.312   6.897 -3.1150 -0.5371 -0.9448
   10MOL    O6210880   2.723   7.622   0.196  0.7687  0.0882  0.3251
   10MOL    C6310881   2.584   7.630   0.239 -0.3788  0.1624 -0.7833
   10MOL    C6410882   2.497   7.693   0.133  0.4085 -0.7740  0.3665
   10MOL    C6510883   2.537   0.086   0.113 -0.2073 -0.4351 -0.4767
   10MOL    C6610884   2.444   0.152   0.012 -0.1771 -0.0318 -0.5024
   10MOL    C6710885   2.497   0.294   7.740  0.1523  0.2201 -0.2055
   10MOL    C6810886   2.404   0.370   7.646  0.3356  0.0289 -0.2562
   10MOL    C6910887   2.480   0.484   7.573  0.5919 -0.4557 -0.5418
   10MOL    C7010888   2.550   0.429   7.452  0.0888 -0.5085  0.6237
   10MOL    C7110889   2.628   0.547   7.378 -0.3735 -0.0928 -1.1852
   10MOL    C7210890   2.688   0.488   7.251 -0.4396  0.3285  0.2691
   10MOL    O7310891   2.770   0.571   7.167  0.6193 -0.5989  0.0721
   10MOL    C7410892   2.897   0.600   7.214  0.8410  0.2803  0.0706
   10MOL    O7510893   2.928   0.608   7.334  0.2091 -0.4825  0.3557
   10MOL    C7610894   2.988   0.639   7.097  0.3153  0.0638 -0.4455
   10MOL    C7710895   2.955   0.786   7.053 -0.5235  0.2234  0.4324
   10MOL    C7810896   3.075   0.870   7.092  0.7114 -0.2195 -0.4854
   10MOL    C7910897   3.044   1.008   7.043 -0.2600 -0.3467  0.6735
   10MOL    C8010898   3.114   1.124   7.116 -0.4342 -0.0432  0.1736
   10MOL    C8110899   3.048   1.257   7.073  0.1019 -0.7985 -0.5349
   10MOL    C8210900   3.101   1.384   7.147 -0.3870 -0.7579 -0.3905
   10MOL    C8310901   3.137   1.494   7.051 -0.3561 -0.5241 -0.2979
   10MOL    C8410902   3.274   1.465   6.989  0.3327  0.2397  1.0321
   10MOL    O8510903   3.373   1.471   7.056  0.0999  0.3100  0.5435
   10MOL    H8610904   2.545   7.530   0.257  0.2651 -0.1467 -1.0904
   10MOL    H8710905   2.572   7.676   0.337 -1.4467 -0.5823 -0.5648
   10MOL    H8810906   2.504   7.637   0.040  1.8736  2.4365 -1.5678
   10MOL    H8910907   2.395   7.694   0.171  1.1375  1.0500  2.3709
   10MOL    H9010908   2.531   0.137   0.209 -2.2849 -0.8239 -0.3830
   10MOL    H9110909   2.640   0.093   0.078  1.0423  1.0646  3.3384
   10MOL    H9210910   2.429   0.098   7.675 -0.0195  0.0575 -0.5811
   10MOL    H9310911   2.345   0.166   0.056  0.6376  1.4334  0.9552
   10MOL    H9410912   2.601   0.276   7.712 -0.1853 -1.4713 -0.4795
   10MOL    H9510913   2.498   0.357   0.072 -0.7875 -0.0330 -0.0073
   10MOL    H9610914   2.318   0.410   7.699  0.3281 -2.0592  1.3720
   10MOL    H9710915   2.360   0.302   7.573 -1.5257 -0.2514  1.1003
   10MOL    H9810916   2.558   0.529   7.634  0.0186  0.7193 -0.6675
   10MOL    H9910917   2.408   0.561   7.545  1.4500  0.5285 -0.0757
   10MOL   H10010918   2.464   0.409   7.388  0.9560  3.0627 -1.8345
   10MOL   H10110919   2.605   0.336   7.466  0.6944 -0.5642 -1.8282
   10MOL   H10210920   2.545   0.614   7.354  0.3309  1.5550  0.7985
   10MOL   H10310921   2.703   0.590   7.444  0.3734 -4.0427  0.6346
   10MOL   H10410922   2.742   0.399   7.280  0.9537  1.2455  0.5114
   10MOL   H10510923   2.601   0.457   7.192  0.1083 -0.2367 -0.2475
   10MOL   H10610924   2.971   0.571   7.015  0.6694 -0.3330 -0.1888
   10MOL   H10710925   3.091   0.617   7.124 -0.1402 -1.6421 -0.0881
   10MOL   H10810926   2.864   0.824   7.098 -0.0251  1.2076  0.6214
   10MOL   H10910927   2.934   0.779   6.946 -0.7731 -0.3774  0.5182
   10MOL   H11010928   3.160   0.840   7.031 -0.8542 -0.3285 -2.6402
   10MOL   H11110929   3.104   0.868   7.198 -1.0423  1.6048  0.0505
   10MOL   H11210930   2.936   1.024   7.050 -0.2286 -0.0637  0.5107
   10MOL   H11310931   3.067   1.019   6.937  0.2420 -0.9374  0.7205
   10MOL   H11410932   3.109   1.110   7.224 -0.6031 -3.8967 -0.2856
   10MOL   H11510933   3.221   1.135   7.098 -0.5970 -0.3757 -1.0248
   10MOL   H11610934   3.043   1.264   6.964 -2.1523 -0.5839 -0.4521
   10MOL   H11710935   2.944   1.239   7.102  0.3369 -0.8238  0.3062
   10MOL   H11810936   3.174   1.349   7.221 -2.1852  1.5198  2.5800
   10MOL   H11910937   3.028   1.427   7.215  0.2859 -1.7345  0.9696
   10MOL   H12010938   3.052   1.505   6.984 -0.1410  1.0421 -0.3249
   10MOL   H12110939   3.153   1.582   7.112 -2.0072 -1.5406  1.6616
   10MOL   O12210940   3.261   1.443   6.859  0.0842  0.0489 -0.6032
   10MOL   C12310941   3.375   1.419   6.777 -0.8452  0.1336  0.9129
   10MOL   C12410942   3.353   1.291   6.696  0.2146  0.2853  0.8389
   10MOL   C12510943   3.356   1.164   6.786 -0.1099  0.2642 -0.4146
   10MOL   C12610944   3.372   1.039   6.709  0.1640  0.5437 -0.5578
   10MOL   C12710945   3.272   1.014   6.600  0.4249  0.6760 -0.1466
   10MOL   C12810946   3.129   1.008   6.643 -0.0880  0.8923 -0.1534
   10MOL   C12910947   3.029   0.960   6.528  0.1115  0.4487 -0.1607
   10MOL   C13010948   2.992   1.056   6.416 -0.3321 -1.1384 -0.4018
   10MOL   C13110949   2.923   0.996   6.293 -0.0450  0.0236 -0.1865
   10MOL   C13210950   2.831   1.099   6.234  0.3225  0.7485  0.0701
   10MOL   O13310951   2.759   1.051   6.117  0.0711  0.4618 -0.0783
   10MOL   C13410952   2.623   1.069   6.111 -0.1423  0.0636 -0.0837
   10MOL   O13510953   2.553   1.113   6.199 -0.5027  0.1166  0.0378
   10MOL   C13610954   2.574   1.045   5.972  0.2883  0.2592 -0.6341
   10MOL   C13710955   2.443   1.121   5.930 -0.0905 -0.0105 -0.2008
   10MOL   C13810956   2.470   1.277   5.917 -0.6894  0.6464  0.0243
   10MOL   C13910957   2.347   1.363   5.892  0.6842  0.2682  0.2986
   10MOL   C14010958   2.279   1.329   5.759 -0.5127  0.7806  0.6788
   10MOL   C14110959   2.183   1.434   5.710  0.1849 -0.6083 -0.5352
   10MOL   C14210960   2.092   1.380   5.597 -0.7615  0.1282 -0.4276
   10MOL   C14310961   1.995   1.481   5.548  0.2547 -0.3067 -0.8923
   10MOL   C14410962   1.866   1.484   5.619  0.6286  0.0775  0.3781
   10MOL   O14510963   1.809   1.587   5.648 -0.2470  0.8436  0.0224
   10MOL   H14610964   3.394   1.497   6.703 -1.5296 -0.8800 -0.3568
   10MOL   H14710965   3.471   1.417   6.828 -0.4299 -0.0454  0.1253
   10MOL   H14810966   3.257   1.297   6.646 -0.0657  0.1214  1.3457
   10MOL   H14910967   3.428   1.283   6.618  0.1173 -1.6756  0.9212
   10MOL   H15010968   3.427   1.175   6.868 -1.6243  2.7531  0.6296
   10MOL   H15110969   3.260   1.168   6.837  0.0175  2.0165 -0.2626
   10MOL   H15210970   3.472   1.044   6.666  0.5694 -0.2248  0.2757
   10MOL   H15310971   3.379   0.952   6.775  1.0311  0.7620 -0.3520
   10MOL   H15410972   3.300   0.919   6.554  0.3490 -0.4562  2.0372
   10MOL   H15510973   3.281   1.092   6.525  3.0964  0.1656 -0.4075
   10MOL   H15610974   3.092   1.100   6.687 -1.8318  0.5623 -0.8865
   10MOL   H15710975   3.120   0.925   6.713 -1.5929  1.4174  0.2792
   10MOL   H15810976   2.936   0.920   6.567 -0.4990  1.3171 -0.7263
   10MOL   H15910977   3.077   0.883   6.468  2.7927  0.9491  1.2421
   10MOL   H16010978   3.086   1.107   6.391  0.4181 -3.2154 -1.9247
   10MOL   H16110979   2.929   1.133   6.461  1.5739  0.4517 -0.3659
   10MOL   H16210980   2.990   0.965   6.212 -0.5767  0.4118 -0.7825
   10MOL   H16310981   2.858   0.915   6.327 -1.3483  1.2873  0.3711
   10MOL   H16410982   2.760   1.135   6.309 -0.6890  0.2047 -0.6184
   10MOL   H16510983   2.896   1.180   6.201  0.0324  1.4297  1.1532
   10MOL   H16610984   2.558   0.938   5.957  1.0050 -0.4099  2.8442
   10MOL   H16710985   2.654   1.075   5.905 -0.3736  0.8430 -1.1740
   10MOL   H16810986   2.361   1.100   5.999  0.2673 -2.4147 -0.4640
   10MOL   H16910987   2.401   1.070   5.843  0.0015  1.3421 -1.0531
   10MOL   H17010988   2.541   1.291   5.836 -1.1120 -3.7654 -1.2261
   10MOL   H17110989   2.517   1.315   6.008 -0.8567  1.1901 -0.1162
   10MOL   H17210990   2.371   1.469   5.897 -0.6320  0.6704 -1.1336
   10MOL   H17310991   2.269   1.352   5.968  0.3684  1.2103  0.1224
   10MOL   H17410992   2.360   1.311   5.689 -1.7177  4.3099 -1.7957
   10MOL   H17510993   2.234   1.232   5.780  0.5441  0.6612  2.4574
   10MOL   H17610994   2.114   1.452   5.792 -0.6524 -2.5723 -0.7915
   10MOL   H17710995   2.240   1.523   5.680  0.9951 -1.4430 -1.5187
   10MOL   H17810996   2.048   1.285   5.628  2.5072 -1.3689 -0.0773
   10MOL   H17910997   2.154   1.356   5.510 -0.5568  0.8470 -0.4842
   10MOL   H18010998   2.031   1.583   5.559  1.7678 -1.0812  1.6823
   10MOL   H18110999   1.977   1.478   5.441 -1.8741 -1.0175 -0.5594
   10MOL   O18211000   1.835   1.358   5.646  0.8030 -0.3972  0.1441
   10MOL   C18311001   1.726   1.336   5.735 -0.0195 -0.0643 -0.2146
   10MOL   C18411002   1.650   1.210   5.689 -0.3580  0.2598  0.3116
   10MOL   C18511003   1.716   1.082   5.739 -0.0066 -0.4859 -0.6124
   10MOL   C18611004   1.634   0.951   5.736  0.1060 -0.6349  0.2087
   10MOL   C18711005   1.624   0.884   5.597 -0.0439  0.7324  0.5760
   10MOL   C18811006   1.573   0.740   5.605 -0.9556 -0.1018 -0.3673
   10MOL   C18911007   1.546   0.663   5.475  0.2378 -0.1267  0.3548
   10MOL   C19011008   1.483   0.527   5.496  0.4392  0.1945  0.3363
   10MOL   C19111009   1.507   0.443   5.362  0.3287 -0.5709 -0.9031
   10MOL   C19211010   1.473   0.300   5.386  0.5396 -0.3658  0.5764
   10MOL   O19311011   1.551   0.245   5.490 -0.1370 -0.0935  0.0429
   10MOL   C19411012   1.521   0.122   5.529 -1.0572  0.6047 -0.1676
   10MOL   O19511013   1.446   0.044   5.465 -0.5829  0.1754 -0.2777
   10MOL   C19611014   1.585   0.088   5.662 -0.1049  0.5016  0.0174
   10MOL   C19711015   1.578   7.701   5.714  0.7768  0.3551 -0.5933
   10MOL   C19811016   1.673   7.607   5.632 -0.3278  0.3127  0.7085
   10MOL   C19911017   1.675   7.470   5.696 -0.2794 -0.1805 -0.5646
   10MOL   C20011018   1.732   7.353   5.614  0.6055 -0.1808 -0.0061
   10MOL   C20111019   1.747   7.213   5.695  0.0307 -0.4172  0.0667
   10MOL   C20211020   1.812   7.097   5.612 -0.7044 -0.3168  0.9920
   10MOL   C20311021   1.844   6.968   5.693 -0.3869 -0.5546  0.1565
   10MOL   C20411022   1.963   6.991   5.779  1.0590 -0.1383 -0.3762
   10MOL   O20511023   1.940   7.016   5.898 -0.5011  0.2112 -0.1921
   10MOL   H20611024   1.753   1.327   5.840 -3.2049 -1.1946  0.5480
   10MOL   H20711025   1.653   1.415   5.721  0.7355  0.6744 -0.0353
   10MOL   H20811026   1.555   1.210   5.742 -1.0177 -1.3785 -0.8180
   10MOL   H20911027   1.635   1.207   5.581 -1.6824 -2.2397  0.5219
   10MOL   H21011028   1.812   1.060   5.692  2.1871  0.3113  3.2899
   10MOL   H21111029   1.739   1.088   5.845 -1.9553  0.6430 -0.2321
   10MOL   H21211030   1.671   0.893   5.820  0.3699 -1.0443 -0.1925
   10MOL   H21311031   1.533   0.986   5.759  0.8917  2.3687 -0.7144
   10MOL   H21411032   1.722   0.880   5.550  0.0858 -2.1147  0.9512
   10MOL   H21511033   1.561   0.932   5.523  0.4144 -0.7372 -0.7889
   10MOL   H21611034   1.480   0.725   5.661 -1.2035  0.4262 -0.6317
   10MOL   H21711035   1.650   0.688   5.662 -2.2623 -1.3416  0.2956
   10MOL   H21811036   1.643   0.664   5.424 -0.3806  1.2187 -0.8416
   10MOL   H21911037   1.484   0.727   5.412 -1.4351 -2.1383 -0.1075
   10MOL   H22011038   1.377   0.548   5.510  0.8974  1.0271  2.7478
   10MOL   H22111039   1.516   0.484   5.590 -0.2042 -0.0094  0.4713
   10MOL   H22211040   1.454   0.485   5.276 -1.9262 -0.4623  0.4926
   10MOL   H22311041   1.614   0.440   5.340  0.8458 -0.2682  1.3803
   10MOL   H22411042   1.366   0.291   5.406  0.3541 -0.1648 -0.2861
   10MOL   H22511043   1.481   0.234   5.300  2.1433  1.7035 -0.9265
   10MOL   H22611044   1.537   0.141   5.744 -0.6271  2.6220 -1.6127
   10MOL   H22711045   1.690   0.114   5.648  0.3584 -1.0779  0.3992
   10MOL   H22811046   1.478   7.658   5.718  0.1582  1.6933 -1.3959
   10MOL   H22911047   1.625   7.706   5.812  0.8511  1.0715 -0.6632
   10MOL   H23011048   1.772   7.650   5.617 -0.0943 -0.6612 -0.6904
   10MOL   H23111049   1.626   7.599   5.534 -1.3035  2.6632  0.9619
   10MOL   H23211050   1.572   7.440   5.718 -0.0221 -1.7517 -1.4358
   10MOL   H23311051   1.733   7.473   5.788  2.9606  0.3215 -2.5600
   10MOL   H23411052   1.682   7.332   5.519 -0.1784 -2.4250  0.8568
   10MOL   H23511053   1.833   7.379   5.583  1.1180 -1.0079  0.9284
   10MOL   H23611054   1.791   7.232   5.793  1.3150 -0.3737 -0.4978
   10MOL   H23711055   1.650   7.181   5.731 -0.3016 -0.5786 -0.9693
   10MOL   H23811056   1.899   7.129   5.555 -1.1502 -2.6399 -1.0664
   10MOL   H23911057   1.735   7.073   5.539  0.4206  0.8388 -0.6015
   10MOL   H24011058   1.760   6.920   5.744 -0.5054 -1.5375 -0.9223
   10MOL   H24111059   1.861   6.880   5.631 -0.3283  0.5000 -1.3520
   10MOL   O24211060   2.079   6.963   5.722  0.4167  0.1975  0.2532
   10MOL   C24311061   2.197   6.926   5.810 -0.1768 -1.0107 -0.1882
   10MOL   C24411062   2.223   6.774   5.794  0.0128  0.3001 -0.8895
   10MOL   C24511063   2.103   6.678   5.824 -0.2660 -0.0668 -0.3582
   10MOL   C24611064   2.135   6.532   5.796  0.1205 -0.3203 -0.4320
   10MOL   C24711065   2.139   6.487   5.649  0.2465  0.3007 -0.4475
   10MOL   C24811066   2.171   6.340   5.628 -0.3536  0.0073  0.4396
   10MOL   C24911067   2.226   6.321   5.485 -0.2973  0.2839 -0.1627
   10MOL   C25011068   2.307   6.201   5.454  0.0089 -0.7081 -0.0107
   10MOL   C25111069   2.438   6.190   5.536  0.1727  0.2698  0.2890
   10MOL   C25211070   2.517   6.058   5.491 -1.0307 -0.1631  0.3173
   10MOL   O25311071   2.563   6.054   5.358 -0.2112  0.1706  0.0107
   10MOL   C25411072   2.614   5.942   5.309  0.6700 -0.7065  0.2492
   10MOL   O25511073   2.612   5.834   5.366 -0.4375 -0.3085  0.3798
   10MOL   C25611074   2.673   5.953   5.166 -0.0395  0.0796 -0.4930
   10MOL   C25711075   2.563   5.982   5.069  0.7836 -0.0609 -0.7420
   10MOL   C25811076   2.611   5.965   4.923 -0.2742 -0.3932  0.4563
   10MOL   C25911077   2.676   6.091   4.872  0.1351 -0.3277  0.3339
   10MOL   C26011078   2.738   6.083   4.735 -0.0885  0.1213  0.2105
   10MOL   C26111079   2.791   6.217   4.682  0.2548 -0.0932 -0.6188
   10MOL   C26211080   2.871   6.182   4.555 -0.7087  0.2223  0.0228
   10MOL   C26311081   2.928   6.302   4.476  0.8041 -0.3887 -0.6889
   10MOL   C26411082   3.017   6.256   4.356  0.8804  0.5017 -0.0938
   10MOL   O26511083   3.026   6.318   4.252 -0.2015  0.4171 -0.1437
   10MOL   H26611084   2.284   6.984   5.780 -0.4941 -0.6899 -0.4798
   10MOL   H26711085   2.169   6.947   5.913  0.6106  0.3892 -0.2545
   10MOL   H26811086   2.269   6.760   5.696  0.9575  2.2929 -0.7605
   10MOL   H26911087   2.293   6.757   5.877 -1.7069 -0.9851  0.3327
   10MOL   H27011088   2.077   6.696   5.928 -1.0694 -0.2414 -0.5221
   10MOL   H27111089   2.015   6.711   5.768  0.7290 -0.8996 -2.4744
   10MOL   H27211090   2.234   6.511   5.836  1.5827  2.5765 -2.4197
   10MOL   H27311091   2.063   6.468   5.848  2.0274 -0.6757  1.8659
   10MOL   H27411092   2.203   6.559   5.597  1.5563 -0.8664 -0.4808
   10MOL   H27511093   2.036   6.504   5.619 -1.2009 -3.2109  2.2309
   10MOL   H27611094   2.084   6.276   5.635  1.1333 -2.2097 -0.9185
   10MOL   H27711095   2.251   6.306   5.694  0.6734 -3.4318 -2.3932
   10MOL   H27811096   2.290   6.407   5.462 -0.5416  0.3584 -0.5815
   10MOL   H27911097   2.140   6.328   5.418 -0.6743  1.4079  0.4258
   10MOL   H28011098   2.330   6.192   5.347 -0.1036  0.1696 -0.1081
   10MOL   H28111099   2.233   6.123   5.468 -0.9666  0.2737  0.3314
   10MOL   H28211100   2.504   6.276   5.529  0.8420 -0.2176  0.5259
   10MOL   H28311101   2.405   6.171   5.639 -1.3517  2.3321  0.1955
   10MOL   H28411102   2.595   6.044   5.567 -0.2853  2.1641  0.0028
   10MOL   H28511103   2.452   5.974   5.518 -0.4638 -0.4753  0.7485
   10MOL   H28611104   2.716   5.858   5.135  0.2026  0.2169 -0.5838
   10MOL   H28711105   2.754   6.025   5.156 -0.8671  1.0736 -0.1313
   10MOL   H28811106   2.535   6.083   5.101 -0.1351 -1.0542  1.7691
   10MOL   H28911107   2.486   5.911   5.101  2.8798 -1.9215  0.3111
   10MOL   H29011108   2.525   5.959   4.856 -0.3906  0.3843  0.5299
   10MOL   H29111109   2.669   5.875   4.903 -1.5826 -1.0156 -0.6471
   10MOL   H29211110   2.761   6.108   4.939  1.6400 -3.6349 -0.6518
   10MOL   H29311111   2.604   6.172   4.879 -0.5282 -0.8586 -0.2729
   10MOL   H29411112   2.812   6.003   4.737 -0.5852 -0.4173 -1.6329
   10MOL   H29511113   2.679   6.040   4.653 -0.0535  2.2447 -0.9660
   10MOL   H29611114   2.706   6.284   4.670  1.0914  0.7953 -1.7536
   10MOL   H29711115   2.859   6.262   4.754 -0.6839  0.3022  0.0271
   10MOL   H29811116   2.827   6.116   4.481  0.5287  1.7265 -2.1193
   10MOL   H29911117   2.957   6.124   4.586 -1.3952 -2.8438 -3.4771
   10MOL   H30011118   2.847   6.367   4.442  2.6367  3.6692  2.3801
   10MOL   H30111119   2.983   6.367   4.544  1.6354 -1.0481 -0.7262
   10MOL   O30211120   3.067   6.133   4.376  0.7254 -0.2576 -0.1493
   10MOL   C30311121   3.141   6.073   4.272 -0.0695 -0.7396  0.0577
   10MOL   C30411122   3.187   5.930   4.316 -0.4690 -0.3017  0.1304
   10MOL   C30511123   3.275   5.933   4.444 -0.4108 -0.3750 -0.6603
   10MOL   C30611124   3.331   5.795   4.472  0.2811  1.1366  0.5117
   10MOL   C30711125   3.396   5.792   4.615  0.3685  0.1282  0.0639
   10MOL   C30811126   3.454   5.652   4.639 -0.9932 -0.4379  0.5334
   10MOL   C30911127   3.493   5.626   4.786  0.4206 -0.1169 -0.8486
   10MOL   C31011128   3.588   5.514   4.801 -0.3082  0.8641 -0.3718
   10MOL   C31111129   3.727   5.552   4.773  0.6526  0.3533  0.1461
   10MOL   C31211130   3.836   5.452   4.786 -0.4411  0.2459  0.4443
   10MOL   O31311131   3.831   5.410   4.923  0.6687 -0.1082 -0.0278
   10MOL   C31411132   3.910   5.307   4.961 -0.2292  0.4441  0.3335
   10MOL   O31511133   3.980   5.237   4.889 -0.0633 -0.4166  0.0203
   10MOL   C31611134   3.883   5.267   5.108  0.3096 -0.0970  1.0250
   10MOL   C31711135   3.994   5.185   5.169  0.6700  0.8840 -0.0085
   10MOL   C31811136   4.128   5.261   5.187  0.4272  0.5525 -0.2982
   10MOL   C31911137   4.218   5.192   5.285  0.0665  0.6696  0.0587
   10MOL   C32011138   4.355   5.248   5.290 -0.6638  0.5941 -0.5592
   10MOL   C32111139   4.452   5.193   5.396  0.1200 -0.1843  0.4208
   10MOL   C32211140   4.592   5.267   5.402  0.4372 -0.3816  0.5437
   10MOL   C32311141   4.689   5.199   5.509  0.7808 -0.0348  0.1844
   10MOL   C32411142   4.628   5.210   5.644 -0.6134  0.5996  0.3022
   10MOL   O32511143   4.621   5.124   5.730 -0.1142 -0.1429  0.6207
   10MOL   H32611144   3.077   6.071   4.185 -0.0592 -1.6380  0.0690
   10MOL   H32711145   3.226   6.139   4.255  0.2631 -1.1931 -0.0491
   10MOL   H32811146   3.100   5.870   4.341 -1.8185  0.7700 -1.8016
   10MOL   H32911147   3.247   5.888   4.235  0.6498 -0.4165  1.0115
   10MOL   H33011148   3.360   6.001   4.445 -0.1682 -0.6790  0.4710
   10MOL   H33111149   3.221   5.953   4.537  0.8474  1.2213 -0.2569
   10MOL   H33211150   3.251   5.722   4.455 -0.5818  2.4893 -1.4863
   10MOL   H33311151   3.407   5.767   4.400 -1.3755 -0.9391 -0.5036
   10MOL   H33411152   3.327   5.804   4.699  0.6792  0.0567  0.3300
   10MOL   H33511153   3.470   5.869   4.634 -1.5422  1.7451  1.1186
   10MOL   H33611154   3.544   5.647   4.578 -0.7251  1.6195  0.7479
   10MOL   H33711155   3.384   5.575   4.606  1.4629 -2.1846 -0.8004
   10MOL   H33811156   3.402   5.611   4.844  1.7377  0.7786  1.5255
   10MOL   H33911157   3.540   5.715   4.829  2.4831 -0.9608 -1.3012
   10MOL   H34011158   3.565   5.416   4.756 -3.3213  2.0327 -1.5575
   10MOL   H34111159   3.586   5.493   4.908  1.0024  2.0218 -0.1093
   10MOL   H34211160   3.743   5.595   4.674 -1.9402 -2.2250 -1.4789
   10MOL   H34311161   3.753   5.628   4.847 -0.4739  0.4886  0.4046
   10MOL   H34411162   3.828   5.367   4.718  1.2449 -0.1274  0.6868
   10MOL   H34511163   3.935   5.493   4.766 -1.6924  3.8049  1.1300
   10MOL   H34611164   3.785   5.221   5.121  0.3832  0.1848  2.7883
   10MOL   H34711165   3.875   5.357   5.169 -0.9356  1.3045 -1.1498
   10MOL   H34811166   4.003   5.094   5.110  0.3230 -0.6128  2.1914
   10MOL   H34911167   3.951   5.143   5.260 -3.1567 -0.3372 -2.2740
   10MOL   H35011168   4.112   5.367   5.208  1.4312  0.3443  1.5449
   10MOL   H35111169   4.190   5.255   5.097 -0.2652  0.1386 -0.7570
   10MOL   H35211170   4.224   5.085   5.266  0.5770  1.0632 -2.0849
   10MOL   H35311171   4.172   5.202   5.384 -0.0311 -0.1355  0.1046
   10MOL   H35411172   4.412   5.230   5.198  0.4264  1.5587 -0.0869
   10MOL   H35511173   4.354   5.356   5.300  0.3419  0.6003 -0.4657
   10MOL   H35611174   4.401   5.195   5.492  1.8295  1.2369  1.3219
   10MOL   H35711175   4.466   5.090   5.362  3.7733  0.7475 -1.1891
   10MOL   H35811176   4.574   5.370   5.433  0.8323 -0.0022 -0.4864
   10MOL   H35911177   4.637   5.276   5.303 -0.6159 -0.8234  0.0158
   10MOL   H36011178   4.708   5.095   5.481 -0.3674 -0.2416  0.1720
   10MOL   H36111179   4.790   5.241   5.513  0.7031  0.1718 -0.0518
   10MOL   O36211180   4.592   5.338   5.672  0.2572  0.3490 -0.3410
   10MOL   C36311181   4.528   5.372   5.798 -0.0893 -0.1995 -0.3305
   10MOL   C36411182   4.477   5.516   5.819 -0.2753 -0.2523 -0.5432
   10MOL   C36511183   4.325   5.515   5.818 -0.0974 -0.8013 -0.0189
   10MOL   C36611184   4.262   5.492   5.677  0.3229 -0.3757  0.3215
   10MOL   C36711185   4.117   5.460   5.694  0.5735  0.0557 -0.5497
   10MOL   C36811186   4.051   5.434   5.564  0.0337 -0.3558 -0.2298
   10MOL   C36911187   3.914   5.366   5.575  0.0447  0.4255  0.0568
   10MOL   C37011188   3.829   5.436   5.672 -0.2210 -0.2283 -0.3930
   10MOL   C37111189   3.806   5.358   5.799 -0.5676  0.7468 -0.2846
   10MOL   C37211190   3.688   5.409   5.879  0.3911 -0.2466 -0.2341
   10MOL   O37311191   3.731   5.505   5.971  0.2791  0.3287 -0.1861
   10MOL   C37411192   3.731   5.640   5.949 -0.3899  0.2577 -0.4489
   10MOL   O37511193   3.693   5.693   5.843 -0.2044  0.5753 -0.1472
   10MOL   C37611194   3.788   5.722   6.068  0.0190 -0.5913 -0.4781
   10MOL   C37711195   3.884   5.835   6.029  0.0230 -0.3025  0.3529
   10MOL   C37811196   3.814   5.961   5.956  0.2781 -0.2867 -0.3861
   10MOL   C37911197   3.889   6.084   5.998 -0.0783 -0.2426  0.2824
   10MOL   C38011198   3.794   6.208   6.003 -0.0283 -0.3470  0.8683
   10MOL   C38111199   3.868   6.338   6.039  1.1211  0.1615 -0.3777
   10MOL   C38211200   3.946   6.411   5.932 -0.6489  0.1209  0.6342
   10MOL   C38311201   3.989   6.545   5.976  0.4424 -0.2801  0.3251
   10MOL   C38411202   4.077   6.554   6.098  0.4533  0.3182  0.4264
   10MOL   O38511203   4.032   6.597   6.206  0.1613  0.5991 -0.5500
   10MOL   H38611204   4.442   5.304   5.804  1.0217 -1.6417 -0.4663
   10MOL   H38711205   4.596   5.341   5.877 -1.9629  0.2938  1.5291
   10MOL   H38811206   4.513   5.546   5.917  2.8330 -2.1732 -1.0352
   10MOL   H38911207   4.508   5.583   5.738  1.5397 -0.3899  0.0149
   10MOL   H39011208   4.284   5.449   5.895 -2.0668  0.3560 -0.0564
   10MOL   H39111209   4.284   5.608   5.857  0.3791 -0.8857  0.6917
   10MOL   H39211210   4.283   5.578   5.613  0.2909 -1.2424 -0.8681
   10MOL   H39311211   4.323   5.421   5.621 -2.4221 -2.5352 -0.0311
   10MOL   H39411212   4.070   5.540   5.751 -1.2372 -2.1536  1.1956
   10MOL   H39511213   4.119   5.362   5.742 -2.4992  0.0784 -0.2559
   10MOL   H39611214   4.126   5.383   5.504  0.6934  0.8866 -0.4879
   10MOL   H39711215   4.037   5.530   5.514 -0.5747 -0.4633 -0.2710
   10MOL   H39811216   3.927   5.260   5.594  0.9046  0.0263 -2.4901
   10MOL   H39911217   3.865   5.369   5.478  0.3796 -0.4324 -0.1459
   10MOL   H40011218   3.727   5.441   5.632  0.4949  1.8616 -2.0809
   10MOL   H40111219   3.854   5.537   5.704  0.2317 -0.3333 -0.4127
   10MOL   H40211220   3.785   5.252   5.787  0.5828  0.6277 -1.3564
   10MOL   H40311221   3.891   5.367   5.866 -0.6030  0.4131 -0.1974
   10MOL   H40411222   3.599   5.435   5.821  0.3166  0.5775  0.2373
   10MOL   H40511223   3.650   5.326   5.939  1.0000 -0.0133  0.4796
   10MOL   H40611224   3.844   5.650   6.127 -0.6532 -0.0755  0.8170
   10MOL   H40711225   3.714   5.755   6.142  0.0776 -1.9038  0.1771
   10MOL   H40811226   3.958   5.798   5.959  0.8368  1.8806  0.0026
   10MOL   H40911227   3.934   5.865   6.121  1.9057  0.9752 -1.0473
   10MOL   H41011228   3.710   5.977   5.982  0.0933 -0.6078 -0.9177
   10MOL   H41111229   3.826   5.958   5.847  1.4454  1.7468 -0.3298
   10MOL   H41211230   3.979   6.092   5.937 -0.0394  0.4296  0.4162
   10MOL   H41311231   3.921   6.064   6.100  0.1740 -2.1637 -0.1597
   10MOL   H41411232   3.743   6.237   5.910  0.5174  0.2649  0.7604
   10MOL   H41511233   3.714   6.197   6.076 -0.8144 -0.4801  0.0069
   10MOL   H41611234   3.794   6.410   6.072 -2.7378 -1.1765 -5.5205
   10MOL   H41711235   3.926   6.315   6.129  1.1387  1.5921 -0.0089
   10MOL   H41811236   3.900   6.422   5.834  0.1162 -0.1772  0.2357
   10MOL   H41911237   4.042   6.360   5.919 -0.9624 -0.9740  2.3669
   10MOL   H42011238   4.045   6.595   5.897  0.1800 -0.8219 -0.2066
   10MOL   H42111239   3.902   6.610   5.979 -1.2737 -2.5358  0.6894
   10MOL   O42211240   4.202   6.503   6.085  0.1874 -0.3797  0.1819
   10MOL   C42311241   4.292   6.489   6.196 -0.4088  0.2520 -0.1197
   10MOL   C42411242   4.281   6.354   6.275  0.4516 -0.6726 -0.3704
   10MOL   C42511243   4.290   6.225   6.196  0.0302 -0.3952 -0.2379
   10MOL   C42611244   4.251   6.104   6.286  0.1539 -0.3318 -0.4998
   10MOL   C42711245   4.280   5.971   6.218 -0.6692  0.2763 -0.6164
   10MOL   C42811246   4.218   5.853   6.284  0.2000  0.7869  0.0677
   10MOL   C42911247   4.294   5.730   6.224  0.8528  0.7585  0.2634
   10MOL   C43011248   4.245   5.595   6.283  0.1924 -0.8940  1.0456
   10MOL   C43111249   4.354   5.484   6.263  0.5224  0.1403 -0.1850
   10MOL   C43211250   4.299   5.348   6.306 -0.1006  0.2796 -0.3587
   10MOL   O43311251   4.399   5.249   6.306 -0.1984  0.1469 -0.1094
   10MOL   C43411252   4.479   5.234   6.203  0.6672 -0.0395 -0.1310
   10MOL   O43511253   4.444   5.230   6.082 -0.0176 -0.9217 -0.6052
   10MOL   C43611254   4.619   5.180   6.241  0.0976 -0.0733 -0.0204
   10MOL   C43711255   4.739   5.235   6.165  0.2323  0.7551  0.2442
   10MOL   C43811256   4.750   5.153   6.033 -0.7285 -0.2228  0.5231
   10MOL   C43911257   4.848   5.225   5.940  0.3722  0.5520  0.1226
   10MOL   C44011258   4.916   5.124   5.847  0.1348  0.9179 -0.0684
   10MOL   C44111259   5.045   5.189   5.792 -0.4898 -0.6788  0.1911
   10MOL   C44211260   5.123   5.102   5.685 -0.1715 -0.0186 -0.1615
   10MOL   C44311261   5.217   5.186   5.602  0.4336  0.2097 -0.5745
   10MOL   C44411262   5.304   5.089   5.517  0.2783 -0.7279 -0.4276
   10MOL   O44511263   5.268   4.974   5.494  0.0938 -0.2351 -0.1701
   10MOL   H44611264   4.389   6.496   6.148  0.7305 -2.6672  1.6216
   10MOL   H44711265   4.276   6.576   6.259 -1.1360 -0.3919  0.6140
   10MOL   H44811266   4.358   6.347   6.352 -0.0991  3.1197  0.6382
   10MOL   H44911267   4.180   6.349   6.315 -0.3555  3.1661 -1.7610
   10MOL   H45011268   4.220   6.235   6.113 -0.3193  0.5926  0.1695
   10MOL   H45111269   4.388   6.206   6.154  0.2332  0.8207 -0.3186
   10MOL   H45211270   4.301   6.125   6.381  1.1324  2.9741 -1.6808
   10MOL   H45311271   4.143   6.107   6.301 -0.1626 -1.7374 -2.3399
   10MOL   H45411272   4.388   5.964   6.203 -0.5984  0.4533 -0.1877
   10MOL   H45511273   4.234   5.973   6.119 -0.1207 -2.4181 -0.9557
   10MOL   H45611274   4.114   5.845   6.252  0.1472 -1.1005  0.6170
   10MOL   H45711275   4.226   5.853   6.393  0.6507 -1.6805  0.0669
   10MOL   H45811276   4.401   5.738   6.245  1.4869 -0.6957 -2.2389
   10MOL   H45911277   4.289   5.729   6.115 -0.5527 -1.1966  0.3184
   10MOL   H46011278   4.152   5.564   6.235  0.7477  0.7406 -1.2042
   10MOL   H46111279   4.227   5.609   6.389  1.7030  1.3210  1.0460
   10MOL   H46211280   4.383   5.487   6.158 -1.6083  0.5411 -0.7851
   10MOL   H46311281   4.448   5.502   6.316  1.7052  0.6980 -2.4171
   10MOL   H46411282   4.251   5.356   6.403 -0.8821 -0.4668 -0.6811
   10MOL   H46511283   4.225   5.325   6.229 -0.1871  2.0789 -0.8402
   10MOL   H46611284   4.614   5.073   6.220 -3.7256 -0.1422  0.8465
   10MOL   H46711285   4.625   5.192   6.349  1.6918  1.2067 -0.2257
   10MOL   H46811286   4.834   5.207   6.211  0.6436 -0.3191 -1.2081
   10MOL   H46911287   4.728   5.339   6.134  3.3599  1.3141  0.7922
   10MOL   H47011288   4.656   5.163   5.978 -0.5782 -0.7909  0.1639
   10MOL   H47111289   4.773   5.048   6.051  1.8510 -0.0785 -1.6990
   10MOL   H47211290   4.930   5.279   5.988  0.9193 -0.3196  0.1856
   10MOL   H47311291   4.807   5.297   5.870  1.0121 -0.1349 -0.9807
   10MOL   H47411292   4.936   5.030   5.898 -2.1958  0.8278  0.7156
   10MOL   H47511293   4.857   5.103   5.757 -2.1005 -0.6034  1.7044
   10MOL   H47611294   5.014   5.284   5.749 -0.6338 -1.5915 -1.7739
   10MOL   H47711295   5.106   5.217   5.879 -1.3036  1.4830  0.0813
   10MOL   H47811296   5.053   5.058   5.614 -1.9523  0.9032  0.9754
   10MOL   H47911297   5.178   5.017   5.725  0.2649  0.3815  0.0922
   10MOL   H48011298   5.164   5.256   5.538 -1.6738 -0.2539  0.6474
   10MOL   H48111299   5.283   5.246   5.665 -0.1261  1.2768 -0.9935
   10MOL   O48211300   5.414   5.148   5.477  0.2739  0.4284  0.3969
   10MOL   C48311301   5.509   5.091   5.393  0.2358  0.3789 -0.9450
   10MOL   C48411302   5.583   5.188   5.310  0.0115  0.3653 -0.2310
   10MOL   C48511303   5.703   5.244   5.379 -0.0897  0.4340 -0.2915
   10MOL   C48611304   5.777   5.343   5.289  0.0517 -0.1392  0.2121
   10MOL   C48711305   5.895   5.416   5.344  0.1940 -0.5869  0.0964
   10MOL   C48811306   5.962   5.514   5.253 -1.0665  0.3728 -0.3897
   10MOL   C48911307   6.099   5.558   5.311  0.1464 -0.6113  0.1242
   10MOL   C49011308   6.155   5.690   5.257  0.1154  0.0853 -0.3487
   10MOL   C49111309   6.291   5.725   5.328  0.0021 -0.6997  0.6417
   10MOL   C49211310   6.344   5.862   5.288 -1.0381 -0.2861 -0.0469
   10MOL   O49311311   6.465   5.890   5.354 -0.2959  0.1622  0.1302
   10MOL   C49411312   6.539   5.991   5.320  0.6038  0.0439  0.0980
   10MOL   O49511313   6.505   6.086   5.255  0.5518 -0.0969  0.4408
   10MOL   C49611314   6.672   5.990   5.399  0.0842 -0.5235  0.4582
   10MOL   C49711315   6.687   6.109   5.493  0.5816 -0.0567  0.2905
   10MOL   C49811316   6.831   6.139   5.503 -0.2201  0.2269 -0.6616
   10MOL   C49911317   6.859   6.235   5.621 -0.2456 -0.0031 -0.4928
   10MOL   C50011318   7.006   6.230   5.662 -0.8347 -0.0092 -0.7478
   10MOL   C50111319   7.102   6.315   5.571 -0.0763  0.1672 -0.7598
   10MOL   C50211320   7.234   6.347   5.637  0.3552 -0.1247  0.5314
   10MOL   C50311321   7.315   6.448   5.546 -0.0862 -0.0754  0.1955
   10MOL   C50411322   7.282   6.595   5.571  0.5141 -0.2130  0.0973
   10MOL   O50511323   7.224   6.662   5.488 -0.0447 -0.5976 -0.0329
   10MOL   H50611324   5.575   5.033   5.458  2.0012  1.5379 -1.6745
   10MOL   H50711325   5.455   5.025   5.326  1.0811 -0.5994 -0.6721
   10MOL   H50811326   5.616   5.121   5.230 -0.3128 -1.1557  0.8966
   10MOL   H50911327   5.529   5.275   5.274  0.2295  0.3075 -0.6992
   10MOL   H51011328   5.665   5.300   5.465  0.9202  2.9192 -1.4183
   10MOL   H51111329   5.765   5.164   5.422 -2.7716 -1.2468  0.5845
   10MOL   H51211330   5.800   5.285   5.200 -1.3563 -0.4929  0.0708
   10MOL   H51311331   5.710   5.423   5.256 -1.9048 -1.5687  0.6211
   10MOL   H51411332   5.971   5.347   5.382 -0.4314 -0.2604  1.9853
   10MOL   H51511333   5.864   5.470   5.433 -1.2006 -2.9282  1.0750
   10MOL   H51611334   5.894   5.600   5.248  0.2802  1.5790  1.2235
   10MOL   H51711335   5.981   5.463   5.159 -0.8133  1.0740 -0.7200
   10MOL   H51811336   6.174   5.480   5.298 -0.2796 -1.4665  2.6791
   10MOL   H51911337   6.100   5.569   5.419 -1.4990 -0.7702  0.1692
   10MOL   H52011338   6.091   5.778   5.267  1.7570  1.1855  0.9267
   10MOL   H52111339   6.186   5.663   5.156  0.7194 -0.7620  0.0602
   10MOL   H52211340   6.268   5.719   5.434  1.9387 -1.2613  1.0605
   10MOL   H52311341   6.370   5.655   5.299  2.7525  0.7767  4.1193
   10MOL   H52411342   6.371   5.878   5.183  0.7834  1.0983  0.6166
   10MOL   H52511343   6.278   5.940   5.325  0.5304  1.0423  0.0128
   10MOL   H52611344   6.751   5.982   5.324 -1.5021 -1.6957 -1.1143
   10MOL   H52711345   6.691   5.896   5.450 -0.3018  0.3021  2.1469
   10MOL   H52811346   6.651   6.081   5.592 -0.5386  0.3473  0.0064
   10MOL   H52911347   6.639   6.203   5.466 -0.1985 -0.0715  1.5636
   10MOL   H53011348   6.858   6.178   5.405  1.7595 -0.9579 -0.6239
   10MOL   H53111349   6.881   6.042   5.509  0.7143  0.6265 -1.7326
   10MOL   H53211350   6.792   6.219   5.706 -3.5498  0.9336 -2.8329
   10MOL   H53311351   6.826   6.335   5.594 -1.7249 -1.0609 -2.7544
   10MOL   H53411352   7.013   6.270   5.763  3.5428 -0.7083 -0.6546
   10MOL   H53511353   7.040   6.126   5.663  2.4485  1.0223 -0.4812
   10MOL   H53611354   7.107   6.255   5.480  1.6920  0.5516 -0.9324
   10MOL   H53711355   7.046   6.397   5.525 -2.6563 -0.5474  0.9940
   10MOL   H53811356   7.297   6.258   5.641 -1.9876 -1.9559 -1.8401
   10MOL   H53911357   7.216   6.393   5.734 -1.8786  1.0197 -0.3847
   10MOL   H54011358   7.420   6.436   5.571 -0.1873 -0.8907  0.2366
   10MOL   H54111359   7.303   6.419   5.442 -0.7670  0.1704  0.1971
   10MOL   O54211360   7.318   6.632   5.692 -0.2766 -0.4404 -0.2882
   10MOL   C54311361   7.325   6.770   5.731  0.0433  0.2485 -0.4123
   10MOL   C54411362   7.436   6.777   5.845 -0.4429 -0.1046 -0.5765
   10MOL   C54511363   7.392   6.701   5.979 -0.0231 -0.3420 -0.7460
   10MOL   C54611364   7.496   6.705   6.099  0.5284 -0.8667 -0.4537
   10MOL   C54711365   7.436   6.639   6.225 -0.0217 -0.8499 -0.2516
   10MOL   C54811366   7.525   6.600   6.348 -0.8270  0.0555  0.0730
   10MOL   C54911367   7.585   6.719   6.424  0.9949  0.1823  0.4907
   10MOL   C55011368   7.692   6.658   6.523  0.0041 -0.1213 -0.8679
   10MOL   C55111369   0.027   6.768   6.581  0.1442  0.0378 -0.4084
   10MOL   C55211370   0.128   6.713   6.687 -0.3743 -0.5870  0.0868
   10MOL   O55311371   0.057   6.713   6.808 -0.2151 -0.0913  0.7001
   10MOL   C55411372   0.117   6.667   6.917 -0.3370  0.3858 -0.2397
   10MOL   O55511373   0.233   6.636   6.930 -0.4406  0.3410 -0.1136
   10MOL   C55611374   0.025   6.656   7.043  0.4645  0.0248  0.1768
   10MOL   C55711375   7.701   6.787   7.078 -0.3304 -0.3683 -0.0509
   10MOL   C55811376   0.046   6.891   7.142 -0.2053 -0.0980 -0.2972
   10MOL   C55911377   7.726   7.015   7.191  0.1685  0.0549  0.1810
   10MOL   C56011378   0.039   7.114   7.282 -0.0796 -0.4760 -0.5874
   10MOL   C56111379   7.703   7.217   7.330  0.4615  0.0349  0.3070
   10MOL   C56211380   0.008   7.312   7.430 -0.2309 -0.4636 -0.1487
   10MOL   C56311381   7.650   7.402   7.482 -0.3753  0.4227  0.5486
   10MOL   C56411382   7.700   7.520   7.563  0.4694  0.3574 -0.1583
   10MOL   O56511383   7.661   7.542   7.677  0.8646  0.3275  0.0590
   10MOL   H56611384   7.355   6.828   5.644 -0.5672  3.1919  1.2753
   10MOL   H56711385   7.228   6.811   5.760 -1.5369 -3.2116 -0.4769
   10MOL   H56811386   7.533   6.737   5.814  0.1781  0.6057  0.4087
   10MOL   H56911387   7.462   6.881   5.865 -1.3013  0.1075 -0.5439
   10MOL   H57011388   7.296   6.746   6.004  1.0463  1.1414  0.7665
   10MOL   H57111389   7.375   6.595   5.961  1.1886 -0.4466 -1.3213
   10MOL   H57211390   7.587   6.654   6.066  2.0958  1.8822 -0.5271
   10MOL   H57311391   7.523   6.808   6.121 -0.6262 -0.0878 -2.5518
   10MOL   H57411392   7.374   6.552   6.203 -2.0439  0.9577 -1.8806
   10MOL   H57511393   7.366   6.714   6.261  1.3577 -0.8059  2.4406
   10MOL   H57611394   7.599   6.534   6.304 -0.7878  0.4862 -0.5258
   10MOL   H57711395   7.460   6.540   6.411  0.3565 -0.0539  1.1957
   10MOL   H57811396   7.507   6.773   6.478  0.9284  1.0864 -0.4971
   10MOL   H57911397   7.636   6.789   6.358  0.2410  1.1738  0.9523
   10MOL   H58011398   0.004   6.588   6.474  0.6309  0.2144 -0.4607
   10MOL   H58111399   7.643   6.596   6.599 -2.0500  1.1640 -1.0911
   10MOL   H58211400   0.107   6.800   6.514  1.6683 -1.5377  0.6224
   10MOL   H58311401   7.733   6.851   6.631 -0.2281 -0.0385 -0.6634
   10MOL   H58411402   0.158   6.615   6.649 -1.7625 -0.4078 -1.5066
   10MOL   H58511403   0.208   6.786   6.701 -0.2770 -0.8626  0.9919
   10MOL   H58611404   0.078   6.605   7.123  2.3227 -2.0273 -2.2863
   10MOL   H58711405   7.716   6.572   7.018 -0.7602  0.9331  0.2921
   10MOL   H58811406   7.605   6.772   7.128 -0.0028 -0.8423  0.4390
   10MOL   H58911407   7.671   6.821   6.979 -0.8488  0.8828  0.5224
   10MOL   H59011408   0.108   6.916   7.056 -1.3044  1.9955 -0.5054
   10MOL   H59111409   0.112   6.851   7.219 -0.9231 -1.6403 -0.4662
   10MOL   H59211410   7.635   6.991   7.247  0.2534 -0.8805 -0.0717
   10MOL   H59311411   7.698   7.063   7.097  0.7564 -1.9759 -1.0783
   10MOL   H59411412   0.067   7.052   7.367 -0.0252 -1.7723 -1.5241
   10MOL   H59511413   0.132   7.152   7.239 -0.0770  1.2521  0.8867
   10MOL   H59611414   7.662   7.271   7.245 -0.5608 -1.9618 -0.5009
   10MOL   H59711415   7.623   7.159   7.376 -0.5957  0.1168 -1.3748
   10MOL   H59811416   0.084   7.375   7.385  0.1477  1.3739  2.8740
   10MOL   H59911417   0.042   7.249   7.513 -4.0143 -0.9068  1.1752
   10MOL   H60011418   7.586   7.436   7.401  1.0863  1.0964 -0.3418
   10MOL   H60111419   7.599   7.343   7.558  0.1675 -2.0798 -0.9929
   10MOL   O60211420   0.031   7.597   7.505  0.0749  0.0897  0.4068
   10MOL   C60311421   0.081   7.717   7.564 -0.1788  1.2118 -0.0431
   10MOL   C60411422   0.167   0.029   7.459 -0.4636 -0.6460  0.0811
   10MOL   C60511423   0.249   0.141   7.520  0.1864 -0.9728  0.4196
   10MOL   C60611424   0.340   0.211   7.430 -0.3762  0.5311 -0.1031
   10MOL   C60711425   0.426   0.319   7.501  0.1816  0.2142 -0.2502
   10MOL   C60811426   0.490   0.415   7.399 -0.1342 -0.4030 -0.3565
   10MOL   C60911427   0.399   0.529   7.363 -0.8357 -0.0272 -0.0993
   10MOL   C61011428   0.461   0.624   7.256  0.8422  0.6252 -0.2487
   10MOL   C61111429   0.362   0.726   7.209  0.1627 -0.2650  0.2703
   10MOL   C61211430   0.327   0.836   7.324  0.2848 -0.7147  0.1564
   10MOL   O61311431   0.227   0.918   7.263 -0.3772  0.4784  0.1609
   10MOL   C61411432   0.141   0.986   7.348 -0.4026 -1.1017 -0.5426
   10MOL   O61511433   0.163   0.999   7.468 -0.1036  0.0998  0.4032
   10MOL   C61611434   0.022   1.046   7.279  0.2673 -0.5410  0.4492
   10MOL   C61711435   7.722   0.943   7.169  0.3732  0.2200  0.2280
   10MOL   C61811436   7.642   0.821   7.222  0.7276  0.4991 -0.2875
   10MOL   C61911437   7.579   0.729   7.117 -0.0618 -0.3614  0.1931
   10MOL   C62011438   7.677   0.620   7.073  0.8125  0.2657  0.1648
   10MOL   C62111439   7.707   0.529   7.184 -0.7937  0.0562 -0.0683
   10MOL   C62211440   0.018   0.395   7.141  0.3407  0.0934 -0.1833
   10MOL   C62311441   0.141   0.423   7.053 -0.2856  0.5817  0.3838
   10MOL   C62411442   0.228   0.300   7.042  0.2112  1.0527  0.5300
   10MOL   O62511443   0.184   0.184   7.030  0.1622  0.3786  0.1547
   10MOL   H62611444   0.002   0.030   7.591 -0.7301  0.7495 -0.4373
   10MOL   H62711445   0.138   7.704   7.656  1.3449  0.3766 -1.0746
   10MOL   H62811446   0.243   7.718   7.419  0.6579  0.5750  0.1291
   10MOL   H62911447   0.101   0.064   7.380  3.0523 -0.3851 -2.8605
   10MOL   H63011448   0.188   0.212   7.576 -2.0323 -2.2334 -0.3238
   10MOL   H63111449   0.313   0.107   7.601  0.8975 -0.1465  0.2158
   10MOL   H63211450   0.405   0.136   7.384 -0.2552  0.5976 -0.0428
   10MOL   H63311451   0.272   0.246   7.352 -3.0706 -1.0943  1.4595
   10MOL   H63411452   0.502   0.268   7.560 -2.2017 -0.0697  2.7016
   10MOL   H63511453   0.371   0.382   7.571 -0.5493  0.3844 -0.9584
   10MOL   H63611454   0.523   0.357   7.314 -1.9882  1.1512 -2.1892
   10MOL   H63711455   0.575   0.460   7.451  0.1876 -1.3702 -0.0322
   10MOL   H63811456   0.375   0.592   7.449 -1.6501  1.0772 -1.1223
   10MOL   H63911457   0.303   0.494   7.327 -0.0719 -2.0007 -0.2512
   10MOL   H64011458   0.483   0.569   7.164 -1.9163 -2.2362  0.7473
   10MOL   H64111459   0.546   0.678   7.298  0.8141  0.9336 -0.5847
   10MOL   H64211460   0.403   0.771   7.118  0.2924 -0.4236  0.2528
   10MOL   H64311461   0.268   0.677   7.182 -0.4754  2.4698 -2.8176
   10MOL   H64411462   0.308   0.793   7.422 -2.0572 -1.9224 -0.7925
   10MOL   H64511463   0.405   0.912   7.335 -1.0050  0.5647  0.6292
   10MOL   H64611464   0.064   1.136   7.233 -0.3211  0.5196  1.9635
   10MOL   H64711465   7.717   1.093   7.355  0.1549  1.4502 -0.8288
   10MOL   H64811466   0.043   0.899   7.107 -0.8507 -0.5918 -0.7642
   10MOL   H64911467   7.653   0.997   7.103 -0.5427  1.3880  2.1017
   10MOL   H65011468   7.559   0.870   7.274  0.0111 -0.1880 -0.7644
   10MOL   H65111469   7.703   0.770   7.295  0.5238  2.0886  1.0286
   10MOL   H65211470   7.539   0.788   7.035  1.3283  3.8273  2.4225
   10MOL   H65311471   7.490   0.687   7.164 -0.8417  0.3735 -0.6098
   10MOL   H65411472   7.645   0.561   6.987 -1.5317 -0.3019  1.3909
   10MOL   H65511473   0.012   0.669   7.041  0.2872  0.9137 -0.3611
   10MOL   H65611474   0.027   0.580   7.243 -0.8336 -0.6810  0.6281
   10MOL   H65711475   7.619   0.512   7.246  0.8941 -1.3304  2.0279
   10MOL   H65811476   7.698   0.330   7.098 -0.9946  1.3673  0.2204
   10MOL   H65911477   0.042   0.346   7.235 -0.7011 -0.0470  0.0135
   10MOL   H66011478   0.115   0.444   6.949  1.5571  0.6027 -0.0915
   10MOL   H66111479   0.203   0.505   7.089  0.9019  0.3528 -1.0773
   10MOL   O66211480   0.364   0.327   7.043 -0.1971  0.1201  0.1639
   10MOL   C66311481   0.452   0.213   7.055 -0.4383  0.4839 -0.6562
   10MOL   C66411482   0.595   0.271   7.031  0.9354 -0.0951  0.0987
   10MOL   C66511483   0.700   0.169   7.061  0.2338  0.5381 -0.0766
   10MOL   C66611484   0.836   0.210   7.005  0.3659  0.5936 -0.2102
   10MOL   C66711485   0.880   0.348   7.057 -0.3333 -0.1351 -0.6411
   10MOL   C66811486   1.022   0.389   7.018 -0.4736 -0.0376 -0.0196
   10MOL   C66911487   1.065   0.534   7.056  0.2603  0.0050  0.2953
   10MOL   C67011488   1.206   0.574   7.000  0.2375  0.0404 -0.3944
   10MOL   C67111489   1.230   0.723   7.017  0.2503  0.8940  0.8850
   10MOL   C67211490   1.369   0.775   6.985 -0.4752 -0.1257  0.2542
   10MOL   O67311491   1.467   0.690   7.042 -0.5642 -1.1303 -0.4543
   10MOL   C67411492   1.598   0.719   7.037 -0.5887 -0.4830  0.4236
   10MOL   O67511493   1.649   0.805   6.972 -0.5461 -0.0543 -0.6643
   10MOL   C67611494   1.684   0.618   7.125  0.3995 -0.0604 -0.3013
   10MOL   C67711495   1.840   0.633   7.111  0.4689  0.1865 -0.5246
   10MOL   C67811496   1.895   0.595   6.968 -0.2128 -0.4701  0.0779
   10MOL   C67911497   2.047   0.604   6.957 -0.1012 -0.5334  0.8503
   10MOL   C68011498   2.106   0.568   6.818  0.4951  0.1819  0.5009
   10MOL   C68111499   2.256   0.602   6.816  0.0419 -0.0982  0.8574
   10MOL   C68211500   2.348   0.503   6.896  0.0927  0.3644 -0.0834
   10MOL   C68311501   2.499   0.527   6.893  0.1422  0.0231 -0.6028
   10MOL   C68411502   2.549   0.664   6.941  0.6416  0.6193 -0.3005
   10MOL   O68511503   2.626   0.726   6.862  0.0302 -0.5987  0.2244
   10MOL   H68611504   0.442   0.162   7.151  0.0428  0.3251 -0.6896
   10MOL   H68711505   0.432   0.137   6.980 -1.6670 -1.4943  1.5743
   10MOL   H68811506   0.592   0.299   6.926  1.5067 -0.7290 -0.0912
   10MOL   H68911507   0.600   0.362   7.090 -1.4383 -0.8105  1.4826
   10MOL   H69011508   0.710   0.157   7.169  0.4339  1.4376  0.0120
   10MOL   H69111509   0.669   0.067   7.040  0.1170  0.2786  1.2805
   10MOL   H69211510   0.910   0.138   7.039 -1.9334 -1.6166  0.2678
   10MOL   H69311511   0.846   0.214   6.897  1.7598 -1.2879 -0.1744
   10MOL   H69411512   0.866   0.350   7.165 -2.4411 -2.1523 -0.8352
   10MOL   H69511513   0.809   0.424   7.026 -1.5636 -1.2689 -0.6628
   10MOL   H69611514   1.034   0.391   6.910  1.4964  4.2593  0.1530
   10MOL   H69711515   1.097   0.327   7.067  0.5542  0.6188 -0.7554
   10MOL   H69811516   1.054   0.541   7.164 -1.5254  2.0493  0.0097
   10MOL   H69911517   0.992   0.601   7.012  1.2824  1.6789  1.1010
   10MOL   H70011518   1.212   0.535   6.898 -0.7954 -0.4150 -0.2898
   10MOL   H70111519   1.271   0.513   7.062 -0.3140  0.1215  0.2728
   10MOL   H70211520   1.159   0.779   6.956  0.8522 -0.5499 -1.2096
   10MOL   H70311521   1.213   0.746   7.122 -0.5956 -1.3420  1.2705
   10MOL   H70411522   1.392   0.769   6.878  0.2572 -1.9174  0.5039
   10MOL   H70511523   1.372   0.883   7.002 -1.8170 -0.0136 -0.1049
   10MOL   H70611524   1.658   0.518   7.090 -2.0150  0.1836  0.7025
   10MOL   H70711525   1.671   0.621   7.234  0.4728  4.0620 -0.3406
   10MOL   H70811526   1.891   0.566   7.180  1.0454  0.8893 -0.2729
   10MOL   H70911527   1.870   0.734   7.137  2.8769 -0.8512  0.9861
   10MOL   H71011528   1.855   0.663   6.893 -3.6446 -2.5215 -0.0300
   10MOL   H71111529   1.855   0.498   6.941 -1.6113  0.6581 -1.9697
   10MOL   H71211530   2.096   0.534   7.025  2.5349  0.9916  0.6093
   10MOL   H71311531   2.089   0.700   6.987  1.8553  0.0113 -3.1536
   10MOL   H71411532   2.097   0.466   6.781 -2.0960  0.8601 -0.9116
   10MOL   H71511533   2.048   0.629   6.748 -2.1228 -0.6394  1.8633
   10MOL   H71611534   2.276   0.585   6.710 -1.3820 -0.8498  0.6835
   10MOL   H71711535   2.277   0.707   6.832 -0.9410 -0.1355  2.5480
   10MOL   H71811536   2.331   0.402   6.857 -1.3893  0.3726  0.4948
   10MOL   H71911537   2.312   0.488   6.998  1.3130 -0.6241  0.2164
   10MOL   H72011538   2.530   0.462   6.974  0.1441  1.3152  0.4658
   10MOL   H72111539   2.543   0.497   6.798  2.6413  1.1604  0.1592
   10MOL   O72211540   2.504   0.702   7.063 -0.3369  0.1637 -0.1301
   10MOL   C72311541   2.539   0.834   7.106  0.4792  0.0169 -0.7550
   10MOL   C72411542   2.426   0.914   7.182 -0.5750 -0.1464  0.7105
   10MOL   C72511543   2.291   0.938   7.110 -0.3294  0.3106  0.4409
   10MOL   C72611544   2.192   1.036   7.183 -0.7471 -0.1687  0.2265
   10MOL   C72711545   2.045   1.036   7.134 -0.7746 -0.2674 -0.3468
   10MOL   C72811546   2.020   1.064   6.985 -0.1861 -0.1332 -0.1650
   10MOL   C72911547   1.870   1.114   6.962  0.2602  0.4384 -0.4403
   10MOL   C73011548   1.836   1.258   7.020  0.6411 -0.1883 -0.4714
   10MOL   C73111549   1.716   1.330   6.952  0.3464  0.3952 -0.6555
   10MOL   C73211550   1.655   1.431   7.047 -0.1919  0.1231  0.1735
   10MOL   O73311551   1.580   1.535   6.980 -0.3674 -0.2828  0.0587
   10MOL   C73411552   1.445   1.527   6.958 -0.8019  0.5201 -0.4534
   10MOL   O73511553   1.375   1.434   6.989  0.4379 -0.2097 -0.9390
   10MOL   C73611554   1.400   1.643   6.879 -0.0542  0.1887 -0.0283
   10MOL   C73711555   1.393   1.775   6.949 -0.7976  0.8709 -0.4111
   10MOL   C73811556   1.535   1.831   6.972  0.1737 -0.1605  0.5450
   10MOL   C73911557   1.536   1.936   7.081  0.2604  0.3167  0.3735
   10MOL   C74011558   1.670   1.951   7.151 -0.2818 -0.4187 -0.5534
   10MOL   C74111559   1.685   2.064   7.251  0.0935  0.0413  0.7206
   10MOL   C74211560   1.810   2.067   7.346  0.0640 -0.1437 -0.0609
   10MOL   C74311561   1.817   2.201   7.423  0.3392 -0.2419  1.1007
   10MOL   C74411562   1.936   2.214   7.521  0.6315 -0.1554  0.6350
   10MOL   O74511563   1.953   2.146   7.622 -0.1667  0.0494  0.0327
   10MOL   H74611564   2.624   0.825   7.174 -1.7777  1.7229  2.4007
   10MOL   H74711565   2.578   0.894   7.023  0.4821  1.3978  0.2223
   10MOL   H74811566   2.394   0.864   7.273 -0.2392 -1.5047  0.1023
   10MOL   H74911567   2.479   1.002   7.219 -0.1517  0.5609 -1.5108
   10MOL   H75011568   2.302   0.971   7.006 -0.6476  0.6926  0.5276
   10MOL   H75111569   2.254   0.836   7.108 -0.3396  0.3223 -0.3571
   10MOL   H75211570   2.198   1.025   7.291 -2.5154 -0.7075  0.2900
   10MOL   H75311571   2.226   1.140   7.177  1.3089 -0.8902 -1.1071
   10MOL   H75411572   1.984   1.104   7.194  0.9448  1.6595 -0.7057
   10MOL   H75511573   2.001   0.938   7.152 -3.2842  1.1509  1.5037
   10MOL   H75611574   2.048   0.972   6.933 -1.0412  0.6248 -2.0175
   10MOL   H75711575   2.089   1.139   6.947  0.0053  0.1032  0.6484
   10MOL   H75811576   1.790   1.051   6.998 -0.6510  0.5250 -2.2691
   10MOL   H75911577   1.849   1.108   6.855 -0.0216  2.7744 -0.5570
   10MOL   H76011578   1.925   1.321   7.012 -0.2328  1.0506 -0.4535
   10MOL   H76111579   1.818   1.246   7.126  2.3235  0.6523 -0.0693
   10MOL   H76211580   1.747   1.380   6.860  0.9782 -2.4989 -2.0702
   10MOL   H76311581   1.636   1.262   6.923  1.1068 -1.6900  1.9506
   10MOL   H76411582   1.588   1.385   7.120 -0.0102  1.9692  1.5643
   10MOL   H76511583   1.735   1.483   7.101  0.3005 -0.4708  0.0154
   10MOL   H76611584   1.307   1.610   6.832  1.7053 -1.6000 -2.3338
   10MOL   H76711585   1.466   1.653   6.793  1.7336  2.2955  1.5381
   10MOL   H76811586   1.338   1.753   7.041 -0.7059  1.2720 -0.2601
   10MOL   H76911587   1.326   1.837   6.889 -2.0071 -0.2858 -0.2776
   10MOL   H77011588   1.574   1.873   6.879 -0.0534 -1.6238 -0.2290
   10MOL   H77111589   1.600   1.750   7.006 -2.0002 -2.0517  0.3194
   10MOL   H77211590   1.457   1.918   7.154 -1.4814  0.6541 -1.4146
   10MOL   H77311591   1.520   2.036   7.041 -0.0267  0.0969 -0.0593
   10MOL   H77411592   1.690   1.857   7.203 -0.2846 -1.6888 -2.7661
   10MOL   H77511593   1.749   1.942   7.076 -0.6104  1.7677 -1.1955
   10MOL   H77611594   1.680   2.157   7.193  2.2280  0.7260  1.5696
   10MOL   H77711595   1.598   2.062   7.316  0.2977 -0.1720  0.9894
   10MOL   H77811596   1.903   2.057   7.291 -0.3422 -1.5856 -0.5095
   10MOL   H77911597   1.819   1.984   7.416 -0.7804 -0.1766  0.0201
   10MOL   H78011598   1.809   2.288   7.358 -1.1059 -0.2480  1.2538
   10MOL   H78111599   1.728   2.212   7.487  0.6298 -1.3777  1.7076
   10MOL   O78211600   2.029   2.300   7.482  0.0345  0.2662  0.4424
   10MOL   C78311601   2.148   2.328   7.554  0.4054  0.6624  0.0727
   10MOL   C78411602   2.226   2.452   7.493 -0.0762  0.6221  0.6587
   10MOL   C78511603   2.282   2.426   7.353 -0.9967 -0.3501  0.5326
   10MOL   C78611604   2.189   2.407   7.235  0.1215 -0.1896 -0.5033
   10MOL   C78711605   2.258   2.364   7.097  0.0299 -0.9233 -0.0979
   10MOL   C78811606   2.146   2.315   7.005 -0.1167 -0.0059 -0.8298
   10MOL   C78911607   2.051   2.426   6.973 -0.4154  0.0543 -0.4784
   10MOL   C79011608   1.950   2.395   6.859 -0.5686  0.1826  0.9626
   10MOL   C79111609   1.852   2.289   6.901  0.2268 -0.4805 -0.1702
   10MOL   C79211610   1.760   2.251   6.785  0.2214 -0.2607  0.6757
   10MOL   O79311611   1.661   2.343   6.755 -0.0053 -0.7404 -0.2512
   10MOL   C79411612   1.553   2.359   6.829 -0.2338 -0.2893 -0.2340
   10MOL   O79511613   1.526   2.282   6.924 -0.1509 -0.5944 -0.3078
   10MOL   C79611614   1.478   2.485   6.800  0.6146 -0.0253  0.7110
   10MOL   C79711615   1.324   2.481   6.797 -1.0664 -0.5331  0.6809
   10MOL   C79811616   1.255   2.468   6.933 -0.6214 -0.0861  0.3141
   10MOL   C79911617   1.102   2.485   6.915  0.4701 -0.8116 -0.5656
   10MOL   C80011618   1.030   2.489   7.048  0.0807 -0.0945  0.1522
   10MOL   C80111619   1.030   2.355   7.132  0.3662  0.3908  0.6338
   10MOL   C80211620   0.948   2.243   7.058  0.0910 -0.1204  0.5713
   10MOL   C80311621   0.872   2.150   7.158 -0.1636  0.3208  0.2876
   10MOL   C80411622   0.960   2.035   7.219  0.3172  0.1014  0.1351
   10MOL   O80511623   0.946   1.917   7.187 -0.3047  0.7097  0.0518
   10MOL   H80611624   2.118   2.355   7.656  1.4227 -1.3134  0.9251
   10MOL   H80711625   2.216   2.243   7.548 -0.4800 -0.0097 -0.3770
   10MOL   H80811626   2.160   2.538   7.480  0.6457  1.1730  0.5844
   10MOL   H80911627   2.301   2.487   7.564 -1.0993  1.3362  1.3999
   10MOL   H81011628   2.357   2.501   7.327 -1.1353 -0.0055  1.1050
   10MOL   H81111629   2.342   2.335   7.358 -0.1115  0.2786  1.5436
   10MOL   H81211630   2.124   2.321   7.250 -0.0034 -0.2684 -1.4774
   10MOL   H81311631   2.113   2.485   7.232 -0.4448 -0.7118  0.0974
   10MOL   H81411632   2.325   2.280   7.117  2.1773  1.2997  2.3754
   10MOL   H81511633   2.309   2.447   7.048  0.3802 -1.0095  0.1209
   10MOL   H81611634   2.089   2.240   7.059  1.0853 -0.8528 -0.7229
   10MOL   H81711635   2.180   2.266   6.914  2.1160  0.2427 -0.1653
   10MOL   H81811636   2.110   2.515   6.955 -0.1310 -0.1561 -0.6042
   10MOL   H81911637   1.998   2.450   7.065 -0.2748  0.1771 -0.4303
   10MOL   H82011638   2.003   2.365   6.768 -1.0506 -0.9530  1.0519
   10MOL   H82111639   1.888   2.482   6.836 -1.1082 -0.0522  1.5299
   10MOL   H82211640   1.894   2.192   6.926 -2.8491 -1.4127  1.5279
   10MOL   H82311641   1.797   2.324   6.988  1.9236  1.0370  0.3275
   10MOL   H82411642   1.816   2.227   6.695 -1.8786 -1.4492 -0.3488
   10MOL   H82511643   1.707   2.161   6.815 -1.2783  0.1446 -0.6618
   10MOL   H82611644   1.501   2.527   6.702 -1.1182  0.5586  0.5224
   10MOL   H82711645   1.512   2.563   6.869 -1.3361 -0.4989  2.2464
   10MOL   H82811646   1.296   2.399   6.730 -1.2969  1.0348 -1.1986
   10MOL   H82911647   1.288   2.571   6.747  2.0954 -0.7115 -2.1081
   10MOL   H83011648   1.288   2.545   7.002  1.1208  1.3421 -2.0800
   10MOL   H83111649   1.279   2.371   6.976  1.1005  1.3904  2.7982
   10MOL   H83211650   1.072   2.393   6.865 -2.7077 -0.1620  0.0440
   10MOL   H83311651   1.075   2.576   6.862  0.9822  0.5206  1.3963
   10MOL   H83411652   1.063   2.571   7.111 -2.5505  0.6943  0.5720
   10MOL   H83511653   0.923   2.498   7.031  0.1761 -0.6417 -0.7854
   10MOL   H83611654   1.131   2.327   7.161 -0.3758 -1.7603  1.1805
   10MOL   H83711655   0.973   2.381   7.221  0.3020 -0.7568  0.9301
   10MOL   H83811656   1.020   2.181   7.004 -0.3080  1.1350 -1.4396
   10MOL   H83911657   0.882   2.272   6.977  1.2508 -0.6340 -0.5785
   10MOL   H84011658   0.826   2.205   7.241 -0.5461  0.9178 -0.3176
   10MOL   H84111659   0.782   2.105   7.117  1.1434 -0.6302 -1.6213
   10MOL   O84211660   1.053   2.077   7.309 -0.1083 -0.0266  0.4104
   10MOL   C84311661   1.134   1.980   7.377 -0.4796 -0.6510  0.5511
   10MOL   C84411662   1.250   2.045   7.457  0.1012 -0.6077 -0.4396
   10MOL   C84511663   1.340   1.935   7.510 -0.1088 -0.3139 -0.2313
   10MOL   C84611664   1.461   1.985   7.584  0.4671  0.3813 -0.1981
   10MOL   C84711665   1.565   1.876   7.612  0.1024 -0.1679 -0.0050
   10MOL   C84811666   1.685   1.941   7.699 -0.1109  0.1650 -0.9149
   10MOL   C84911667   1.793   1.844   7.723 -0.4144  0.1742 -0.6280
   10MOL   C85011668   1.766   1.750   0.093  0.3830  0.0175 -0.2537
   10MOL   C85111669   1.887   1.656   0.108 -0.0318  0.5150 -0.0598
   10MOL   C85211670   1.893   1.577   0.237  0.1030 -0.7145  0.3367
   10MOL   O85311671   1.971   1.650   0.336 -0.0735  0.1139  0.1688
   10MOL   C85411672   2.041   1.586   0.432  0.2381 -0.1654  0.1557
   10MOL   O85511673   2.046   1.463   0.435  0.5840 -0.0848 -0.2831
   10MOL   C85611674   2.107   1.669   0.538 -0.3240 -0.3767  0.7306
   10MOL   C85711675   2.010   1.742   0.642  0.9704  0.3183 -0.1391
   10MOL   C85811676   1.936   1.867   0.589  0.1748  0.1183 -0.3574
   10MOL   C85911677   1.804   1.896   0.662  0.7290 -0.0760  0.5205
   10MOL   C86011678   1.825   1.955   0.804 -0.0204  0.0736  0.6442
   10MOL   C86111679   1.692   2.009   0.852 -0.3428 -0.1253  0.2850
   10MOL   C86211680   1.701   2.067   0.993 -0.5588  0.6494  0.2877
   10MOL   C86311681   1.574   2.129   1.052 -0.5200  0.1683  0.2976
   10MOL   C86411682   1.458   2.032   1.065 -0.0023  0.7275  0.2341
   10MOL   O86511683   1.354   2.040   0.994 -0.6318  0.2598 -0.3523
   10MOL   H86611684   1.078   1.895   7.415 -1.4106 -1.0120 -1.5951
   10MOL   H86711685   1.184   1.942   7.288 -2.3989 -1.3824 -0.2327
   10MOL   H86811686   1.292   2.108   7.379 -2.9439  1.6868 -0.3151
   10MOL   H86911687   1.208   2.107   7.536  0.4191  1.1560 -1.6444
   10MOL   H87011688   1.293   1.879   7.591  0.7996  2.0777  2.0441
   10MOL   H87111689   1.371   1.870   7.429  1.1098 -0.3734  0.2723
   10MOL   H87211690   1.491   2.068   7.519  1.3707  1.2575  1.3001
   10MOL   H87311691   1.432   2.021   7.683  1.2747  0.0328  0.1730
   10MOL   H87411692   1.600   1.844   7.513  0.7798 -1.8162  0.7455
   10MOL   H87511693   1.512   1.799   7.668  1.1885 -0.4860  0.6074
   10MOL   H87611694   1.640   1.956   0.041 -1.2201  2.2685 -1.7221
   10MOL   H87711695   1.740   2.024   7.655  1.1372 -0.2218 -0.1264
   10MOL   H87811696   1.890   1.893   7.729 -0.3164  0.2443 -2.4816
   10MOL   H87911697   1.799   1.782   7.633  1.3413  1.9727 -1.8056
   10MOL   H88011698   1.681   1.687   0.070  2.4037 -3.1662  0.6985
   10MOL   H88111699   1.746   1.810   0.181 -0.2569 -1.1566  0.4032
   10MOL   H88211700   1.883   1.573   0.036  1.6628  1.2919 -1.0989
   10MOL   H88311701   1.977   1.716   0.095  0.5063  0.2141  2.1067
   10MOL   H88411702   1.796   1.563   0.285  0.0129 -0.0173  0.3588
   10MOL   H88511703   1.934   1.477   0.225 -0.7880 -0.8102 -2.3866
   10MOL   H88611704   2.168   1.738   0.480 -1.0402 -1.4631 -1.3449
   10MOL   H88711705   2.179   1.607   0.593  0.5647 -0.0603 -0.0613
   10MOL   H88811706   2.053   1.795   0.728 -1.8716  1.7349  0.4654
   10MOL   H88911707   1.939   1.663   0.663 -1.0716  1.9650 -0.7021
   10MOL   H89011708   1.909   1.851   0.484 -0.4670  2.1111 -0.5300
   10MOL   H89111709   1.999   1.957   0.588  0.5962 -0.1793 -0.5747
   10MOL   H89211710   1.743   1.805   0.660  0.3674  0.1905 -0.9789
   10MOL   H89311711   1.754   1.968   0.598  1.0376 -0.6233 -0.3395
   10MOL   H89411712   1.860   1.880   0.875 -0.8546  1.3472  2.4256
   10MOL   H89511713   1.903   2.028   0.781  0.2008 -1.1014 -2.7482
   10MOL   H89611714   1.646   2.077   0.781  1.6762 -0.2043 -1.1365
   10MOL   H89711715   1.618   1.930   0.866  0.1479 -0.8728 -1.2211
   10MOL   H89811716   1.782   2.139   0.986 -0.3841  0.4073 -0.1628
   10MOL   H89911717   1.734   2.002   1.074  1.3456  0.5648 -0.5346
   10MOL   H90011718   1.585   2.180   1.148  0.0489 -2.0236  1.4499
   10MOL   H90111719   1.539   2.191   0.970 -0.5341  0.3822  0.4639
   10MOL   O90211720   1.490   1.929   1.152 -0.1169  0.0439 -0.3096
   10MOL   C90311721   1.415   1.808   1.142 -0.0465 -0.2015  0.2429
   10MOL   C90411722   1.474   1.719   1.027  0.2500 -0.1118  0.2093
   10MOL   C90511723   1.612   1.666   1.070  0.1988 -0.3967 -1.1067
   10MOL   C90611724   1.669   1.566   0.972  0.1601  0.5125  0.3624
   10MOL   C90711725   1.805   1.509   1.021  0.2466  0.2305 -0.2177
   10MOL   C90811726   1.929   1.592   0.998  1.3470 -0.0538  0.6037
   10MOL   C90911727   2.064   1.519   0.994  0.6759  1.1809  0.2592
   10MOL   C91011728   2.189   1.605   0.983 -0.8575 -0.5730  0.0522
   10MOL   C91111729   2.315   1.519   0.946  0.0881  0.4472 -0.3701
   10MOL   C91211730   2.370   1.419   1.053  0.5207  0.2117  1.4463
   10MOL   O91311731   2.469   1.327   1.007  0.0725 -0.1059 -0.0350
   10MOL   C91411732   2.600   1.359   1.017 -0.7662  0.6961  0.7892
   10MOL   O91511733   2.646   1.469   1.058 -0.0109  0.5678 -0.1507
   10MOL   C91611734   2.693   1.263   0.951 -0.3982  0.6951 -0.4763
   10MOL   C91711735   2.636   1.171   0.840 -0.4316  0.0561  0.0592
   10MOL   C91811736   2.578   1.246   0.713 -0.5360 -0.0879  0.6812
   10MOL   C91911737   2.680   1.318   0.621  0.1677  0.0440 -0.3332
   10MOL   C92011738   2.609   1.423   0.528 -0.5650  0.5547 -0.0922
   10MOL   C92111739   2.698   1.458   0.401 -0.1441 -0.5507  0.4673
   10MOL   C92211740   2.670   1.594   0.332 -0.2820 -0.3999  0.0185
   10MOL   C92311741   2.735   1.714   0.406 -0.0025  0.2417  0.6453
   10MOL   C92411742   2.886   1.723   0.417  0.0171 -0.0324 -0.7858
   10MOL   O92511743   2.939   1.806   0.498  0.4625 -0.3664  0.5598
   10MOL   H92611744   1.432   1.758   1.238 -1.0618 -2.4294 -0.6982
   10MOL   H92711745   1.306   1.815   1.143 -0.1216 -0.9292 -1.3926
   10MOL   H92811746   1.408   1.633   1.017  0.2109  0.1633 -2.0745
   10MOL   H92911747   1.483   1.773   0.933  2.2880 -0.6596  0.0598
   10MOL   H93011748   1.676   1.752   1.087  0.1908 -0.9229  1.7121
   10MOL   H93111749   1.609   1.627   1.171 -0.3326 -0.6582 -1.2202
   10MOL   H93211750   1.605   1.478   0.971 -0.6382  1.0453  2.2421
   10MOL   H93311751   1.682   1.593   0.867 -0.9714 -1.0541 -0.2002
   10MOL   H93411752   1.819   1.419   0.961  0.1260 -0.1831  0.3674
   10MOL   H93511753   1.788   1.488   1.127  2.0578 -1.5891 -0.2422
   10MOL   H93611754   1.944   1.664   1.079 -0.2734  1.6956 -0.6105
   10MOL   H93711755   1.914   1.645   0.904  0.6199 -1.8410 -0.2960
   10MOL   H93811756   2.063   1.446   0.913  1.5818  2.2280 -0.7179
   10MOL   H93911757   2.072   1.463   1.087  0.1934 -2.0092 -1.5516
   10MOL   H94011758   2.194   1.646   1.084 -0.8576 -2.7839  0.9694
   10MOL   H94111759   2.163   1.681   0.910 -3.1177 -0.3959  1.0006
   10MOL   H94211760   2.271   1.457   0.867  1.9202 -0.0422 -1.0319
   10MOL   H94311761   2.391   1.582   0.900  1.3267 -1.4601 -1.0071
   10MOL   H94411762   2.415   1.481   1.130  1.3561  0.1762  0.9951
   10MOL   H94511763   2.286   1.364   1.095 -0.5643  0.0487 -0.8379
   10MOL   H94611764   2.720   1.198   1.034 -2.0895  0.4146 -0.1300
   10MOL   H94711765   2.777   1.318   0.908 -0.0571  0.6020  0.0663
   10MOL   H94811766   2.562   1.110   0.893  0.7999 -0.2291  1.4772
   10MOL   H94911767   2.714   1.100   0.813  1.7848  2.4691 -0.0036
   10MOL   H95011768   2.502   1.321   0.739 -1.2661 -1.0123  1.2443
   10MOL   H95111769   2.524   1.175   0.651  0.7449 -2.0259  1.7347
   10MOL   H95211770   2.739   1.242   0.569  0.1764  0.9728 -1.7058
   10MOL   H95311771   2.749   1.373   0.685 -0.8332  1.9144 -0.8060
   10MOL   H95411772   2.510   1.386   0.503 -0.9259  2.2628 -1.2766
   10MOL   H95511773   2.594   1.515   0.584  1.4476  2.5990 -2.7338
   10MOL   H95611774   2.803   1.433   0.417  0.2965  0.3001 -1.0188
   10MOL   H95711775   2.680   1.370   0.338 -0.5344 -0.2807  0.1990
   10MOL   H95811776   2.563   1.614   0.328 -0.2911 -0.4826 -0.1568
   10MOL   H95911777   2.700   1.597   0.227 -5.1528 -0.9722 -1.5037
   10MOL   H96011778   2.694   1.808   0.370  0.1045 -0.4437 -1.2990
   10MOL   H96111779   2.692   1.704   0.506  0.2214  1.3610  0.8607
   10MOL   O96211780   2.953   1.629   0.343 -0.2092  0.4524 -0.2545
   10MOL   C96311781   3.088   1.598   0.370 -0.8006  0.6756  1.1820
   10MOL   C96411782   3.092   1.479   0.466  0.2968 -0.6645  0.2251
   10MOL   C96511783   3.228   1.446   0.527 -0.2948  0.9675  0.6205
   10MOL   C96611784   3.226   1.309   0.585  0.0642 -0.5717  0.7232
   10MOL   C96711785   3.336   1.283   0.687 -0.2219  0.0374 -0.3680
   10MOL   C96811786   3.326   1.132   0.736 -0.3147  0.5517 -0.3734
   10MOL   C96911787   3.397   1.095   0.870 -0.3391 -0.4293 -0.0761
   10MOL   C97011788   3.389   0.943   0.909  0.7462 -0.5227  0.2699
   10MOL   C97111789   3.434   0.895   1.046  0.4313  0.4359 -0.2055
   10MOL   C97211790   3.584   0.917   1.071  0.0492 -0.5098  0.2063
   10MOL   O97311791   3.612   0.858   1.193 -0.0619 -0.1453  0.1752
   10MOL   C97411792   3.722   0.887   1.252  0.1196  0.1515 -0.7062
   10MOL   O97511793   3.810   0.964   1.214 -0.1569  0.3839  0.5093
   10MOL   C97611794   3.729   0.816   1.385 -0.0366  0.0407 -0.5954
   10MOL   C97711795   3.807   0.893   1.495  0.6256  0.3033  0.2815
   10MOL   C97811796   3.959   0.866   1.503  0.1534  0.6820 -0.0744
   10MOL   C97911797   4.022   0.937   1.622  0.3023  0.1705 -0.9245
   10MOL   C98011798   4.174   0.923   1.614  0.3913 -0.6633 -0.5840
   10MOL   C98111799   4.248   1.036   1.546  0.8058 -0.4684  0.0213
   10MOL   C98211800   4.401   1.024   1.563  0.1776 -0.0217  0.4578
   10MOL   C98311801   4.481   1.123   1.481  0.6794  0.1810 -0.6010
   10MOL   C98411802   4.470   1.263   1.544 -0.0858  0.2851  0.4563
   10MOL   O98511803   4.390   1.345   1.490 -0.2372 -0.5315  0.0046
   10MOL   H98611804   3.151   1.583   0.283  0.5313  1.3878  2.0173
   10MOL   H98711805   3.136   1.679   0.423 -0.2992  1.0537  0.1458
   10MOL   H98811806   3.016   1.491   0.543  1.1263  0.1261  0.9343
   10MOL   H98911807   3.070   1.397   0.398  0.9519 -0.8679  0.2528
   10MOL   H99011808   3.307   1.438   0.452 -1.4615 -1.1876 -0.4161
   10MOL   H99111809   3.258   1.521   0.600  0.1681 -1.4221  2.9643
   10MOL   H99211810   3.134   1.282   0.638 -0.8645 -0.2559 -0.6928
   10MOL   H99311811   3.226   1.239   0.501  1.9783 -1.2068  1.2128
   10MOL   H99411812   3.313   1.346   0.773 -0.3014  0.0925 -0.4299
   10MOL   H99511813   3.430   1.303   0.637  0.2103 -0.8164  0.0978
   10MOL   H99611814   3.357   1.070   0.652  1.2184  1.2907 -0.3718
   10MOL   H99711815   3.221   1.108   0.751 -1.2091  3.3886 -1.7902
   10MOL   H99811816   3.345   1.156   0.945  1.9420  1.1858  0.2474
   10MOL   H99911817   3.500   1.130   0.869 -0.9592  1.4886  0.7746
   10MOL     H111818   3.450   0.878   0.846  0.0078  0.1304 -1.1104
   10MOL     H211819   3.286   0.907   0.906  0.3570  0.4166  1.7112
   10MOL     H311820   3.375   0.943   1.124  0.1017 -1.1739  0.5609
   10MOL     H411821   3.405   0.791   1.060 -0.0440  0.8509  2.1827
   10MOL     H511822   3.644   0.872   0.992  0.4530 -0.1524  0.3088
   10MOL     H611823   3.607   1.023   1.065 -0.9881 -0.2509  0.6472
   10MOL     H711824   3.772   0.717   1.364  0.1469 -0.1947  0.8460
   10MOL     H811825   3.627   0.793   1.417 -0.0839  1.3763  0.2277
   10MOL     H911826   3.752   0.878   1.587  0.9160 -2.1755  0.0754
   10MOL    H1011827   3.795   1.000   1.479  1.6404  0.3585 -0.1797
   10MOL    H1111828   4.002   0.907   1.412 -0.1231 -2.1165 -1.5207
   10MOL    H1211829   3.976   0.758   1.496 -0.1678  0.6902 -1.0316
   10MOL    H1311830   3.987   0.884   1.711  0.8910 -1.4300 -1.6301
   10MOL    H1411831   3.987   1.039   1.641  1.8056  0.6162 -0.5077
   10MOL    H1511832   4.205   0.927   1.718  1.1544 -0.2137 -0.8195
   10MOL    H1611833   4.193   0.818   1.591 -1.3952 -0.6415 -2.3394
   10MOL    H1711834   4.213   1.042   1.443 -0.1689  0.2987  0.3978
   10MOL    H1811835   4.222   1.128   1.598  1.7002 -1.5291  2.4280
   10MOL    H1911836   4.437   0.924   1.536  1.0834  0.4966 -0.2922
   10MOL    H2011837   4.432   1.034   1.668 -0.9767  2.6127  0.5769
   10MOL    H2111838   4.587   1.096   1.479  0.1662 -1.8982 -1.5747
   10MOL    H2211839   4.451   1.143   1.379  0.0398 -0.4211 -0.5331
   10MOL    O2311840   4.544   1.280   1.660 -0.3110 -0.6738 -0.1514
   10MOL    C2411841   4.512   1.387   1.752  0.0447  0.3146 -0.3321
   10MOL    C2511842   4.447   1.329   1.877  0.1494 -0.7399  0.2676
   10MOL    C2611843   4.541   1.222   1.946 -0.4921  0.6208  0.1611
   10MOL    C2711844   4.497   1.145   2.074  0.0538 -0.5655  0.3340
   10MOL    C2811845   4.357   1.078   2.061  0.6667 -0.2334  0.6005
   10MOL    C2911846   4.286   1.017   2.185  0.5993  0.2170 -0.3996
   10MOL    C3011847   4.171   1.091   2.269 -0.2690  0.3533  0.1880
   10MOL    C3111848   4.109   0.997   2.373  0.8844  0.4228 -0.0276
   10MOL    C3211849   4.027   0.878   2.324  0.0245  0.2096  0.2516
   10MOL    C3311850   3.917   0.889   2.212  0.8660  0.3687  0.6567
   10MOL    O3411851   3.860   0.759   2.192  0.7143  0.2739  0.5346
   10MOL    C3511852   3.828   0.716   2.069  0.3623  0.5509 -0.2800
   10MOL    O3611853   3.854   0.771   1.966  0.2679  0.4211  0.4977
   10MOL    C3711854   3.741   0.590   2.067  0.9703  0.3761 -0.3408
   10MOL    C3811855   3.809   0.464   2.139  0.6918 -0.2239  0.2728
   10MOL    C3911856   3.775   0.456   2.283  0.4830  0.1686  0.0795
   10MOL    C4011857   3.860   0.348   2.356  0.3286  0.2731 -0.2729
   10MOL    C4111858   3.877   0.216   2.289  0.2868  0.2365  0.1497
   10MOL    C4211859   3.974   0.126   2.370  0.6536 -0.4223  0.0583
   10MOL    C4311860   4.003   7.753   2.291 -0.5388  0.2026 -0.5087
   10MOL    C4411861   4.052   7.647   2.389 -0.6194 -0.2934 -0.4740
   10MOL    C4511862   4.072   7.515   2.318  0.0827  0.0738  0.8232
   10MOL    O4611863   4.183   7.488   2.273 -0.2505 -0.6327 -0.1847
   10MOL    H4711864   4.609   1.431   1.774 -0.1903  0.3202  0.7231
   10MOL    H4811865   4.446   1.465   1.715 -1.1564 -0.7855 -0.5245
   10MOL    H4911866   4.434   1.403   1.956  1.7741  0.5619 -0.6515
   10MOL    H5011867   4.348   1.287   1.858 -0.0896 -0.3546  0.6470
   10MOL    H5111868   4.556   1.147   1.868  2.6047 -0.8371  2.0713
   10MOL    H5211869   4.636   1.265   1.976  0.8292 -2.8191  1.1806
   10MOL    H5311870   4.571   1.071   2.104  0.9304 -0.0738 -0.5527
   10MOL    H5411871   4.495   1.210   2.161 -0.3380 -1.0608  0.6944
   10MOL    H5511872   4.376   1.006   1.981  1.0638  1.1122 -0.5305
   10MOL    H5611873   4.287   1.148   2.015  0.7234 -2.0837 -2.4910
   10MOL    H5711874   4.357   0.972   2.255  1.4196  2.3672  0.1946
   10MOL    H5811875   4.248   0.924   2.143 -2.1990  0.5177  1.3990
   10MOL    H5911876   4.095   1.117   2.195  0.2647  0.5164 -0.3099
   10MOL    H6011877   4.207   1.183   2.315 -0.5993  0.3533  0.4466
   10MOL    H6111878   4.058   1.063   2.443  1.7079  2.8782 -1.6545
   10MOL    H6211879   4.188   0.957   2.437  0.0375 -2.0797 -0.5032
   10MOL    H6311880   4.100   0.802   2.295 -1.0907 -0.8679  0.2607
   10MOL    H6411881   3.982   0.816   2.401  0.9418 -2.2827 -1.1229
   10MOL    H6511882   3.839   0.959   2.241  1.2145  1.4367 -0.9086
   10MOL    H6611883   3.967   0.925   2.122 -2.9653  0.7108 -1.4772
   10MOL    H6711884   3.708   0.578   1.964  0.6434  0.4191 -0.2416
   10MOL    H6811885   3.647   0.617   2.115  0.2598  0.9053 -2.0028
   10MOL    H6911886   3.916   0.464   2.118  1.1497  0.5760  2.4338
   10MOL    H7011887   3.770   0.376   2.090 -2.1665 -0.0648  2.1044
   10MOL    H7111888   3.669   0.431   2.292  1.1763 -2.5743  1.0200
   10MOL    H7211889   3.788   0.552   2.333  0.1205 -0.9291  2.3528
   10MOL    H7311890   3.818   0.327   2.454 -0.2323 -2.5245 -1.0848
   10MOL    H7411891   3.956   0.396   2.377 -0.0604  0.5637  0.9255
   10MOL    H7511892   3.782   0.163   2.279  0.7767 -0.5007 -0.6855
   10MOL    H7611893   3.911   0.229   2.186  0.7807  0.0408  0.2891
   10MOL    H7711894   4.071   0.172   2.391  0.8127 -1.0714  0.7604
   10MOL    H7811895   3.926   0.116   2.467  0.7162  0.1763  0.1564
   10MOL    H7911896   4.078   0.009   2.212  0.6270  0.1697  0.5693
   10MOL    H8011897   3.918   7.717   2.234 -0.2712 -0.4288 -0.5218
   10MOL    H8111898   4.150   7.671   2.430 -0.8462 -1.2696  0.6669
   10MOL    H8211899   3.977   7.620   2.463 -1.2390  0.3763 -0.8551
   10MOL    O8311900   3.964   7.436   2.313  0.0819 -0.2817  0.1320
   10MOL    C8411901   3.965   7.304   2.268  0.2003  0.0876 -0.4562
   10MOL    C8511902   3.819   7.257   2.270  0.0607 -0.7441  0.0223
   10MOL    C8611903   3.815   7.105   2.259  0.2241 -0.1153 -0.6135
   10MOL    C8711904   3.689   7.044   2.320  0.5172 -0.3597 -0.0197
   10MOL    C8811905   3.692   6.891   2.307 -0.2372 -0.1526  0.4078
   10MOL    C8911906   3.583   6.821   2.376 -0.2908  0.4458 -0.0683
   10MOL    C9011907   3.588   6.672   2.351 -0.2260  0.4825  0.5261
   10MOL    C9111908   3.471   6.601   2.421 -0.3566 -0.3475 -0.5511
   10MOL    C9211909   3.484   6.449   2.414  0.4809  0.1291  0.4176
   10MOL    C9311910   3.370   6.357   2.459  0.6225  0.3329 -0.0777
   10MOL    O9411911   3.261   6.366   2.367  0.5266  0.3589 -0.1865
   10MOL    C9511912   3.129   6.343   2.404  0.0877 -0.6171  0.1358
   10MOL    O9611913   3.089   6.305   2.509  0.2828 -0.1078  0.0905
   10MOL    C9711914   3.038   6.384   2.289  0.0437  0.1298 -0.9499
   10MOL    C9811915   3.052   6.533   2.245 -0.1047  0.5076 -0.1140
   10MOL    C9911916   3.149   6.551   2.125 -0.2897  0.1468 -0.0993
   10MOL   C10011917   3.164   6.698   2.084  0.2353 -0.7866  0.1452
   10MOL   C10111918   3.259   6.713   1.962 -0.4794 -0.6186 -0.0887
   10MOL   C10211919   3.214   6.662   1.826  0.1203 -0.2499 -0.0302
   10MOL   C10311920   3.103   6.748   1.758  0.4890 -0.0558  0.0477
   10MOL   C10411921   3.042   6.686   1.635  0.5663 -0.0562 -0.0534
   10MOL   C10511922   3.081   6.755   1.506 -0.3387  0.7832 -0.3846
   10MOL   O10611923   3.175   6.718   1.441  0.3400  0.6521  0.5424
   10MOL   H10711924   4.000   7.307   2.165 -0.6862  2.5063 -0.7120
   10MOL   H10811925   4.029   7.239   2.328 -0.2281  0.4264  0.3709
   10MOL   H10911926   3.798   7.274   2.375  0.9485 -0.9742  0.2437
   10MOL   H11011927   3.747   7.302   2.201  0.2013  2.1556  1.7083
   10MOL   H11111928   3.820   7.060   2.159  1.0829  0.2151 -0.7213
   10MOL   H11211929   3.908   7.070   2.304  1.6101  0.9136 -2.6071
   10MOL   H11311930   3.687   7.065   2.427 -1.3214 -0.1326 -0.0721
   10MOL   H11411931   3.596   7.088   2.281  0.0438 -1.1611  0.1931
   10MOL   H11511932   3.788   6.855   2.343 -0.1321 -0.1037  0.1735
   10MOL   H11611933   3.694   6.861   2.202 -1.3222 -0.2455  0.4039
   10MOL   H11711934   3.493   6.868   2.335  0.4070 -0.3062 -2.5918
   10MOL   H11811935   3.579   6.839   2.483 -2.0970 -1.3822  0.2087
   10MOL   H11911936   3.684   6.636   2.390 -1.5249 -2.1060  1.4526
   10MOL   H12011937   3.587   6.648   2.244  1.1900  0.7508  0.4385
   10MOL   H12111938   3.381   6.641   2.374 -1.3264 -2.1152 -0.2323
   10MOL   H12211939   3.467   6.633   2.525  0.4876 -0.1291 -0.5779
   10MOL   H12311940   3.514   6.419   2.314 -4.6472 -1.5214 -0.7858
   10MOL   H12411941   3.575   6.430   2.470 -2.1095 -0.2461  4.7852
   10MOL   H12511942   3.410   6.259   2.485  0.0961 -0.0269 -0.6396
   10MOL   H12611943   3.348   6.405   2.554  1.1267 -0.7588  0.6044
   10MOL   H12711944   2.938   6.369   2.331  0.6439 -0.3514  0.3054
   10MOL   H12811945   3.047   6.317   2.203  2.4334 -1.6662  0.6782
   10MOL   H12911946   3.090   6.594   2.327 -1.4160  1.8027 -0.4458
   10MOL   H13011947   2.957   6.570   2.206 -0.5811 -0.3988  0.1572
   10MOL   H13111948   3.116   6.490   2.041 -1.0886  2.7883 -1.7671
   10MOL   H13211949   3.246   6.510   2.154 -0.2780  0.5274  0.3994
   10MOL   H13311950   3.210   6.753   2.165  1.7885 -0.1598 -1.1410
   10MOL   H13411951   3.065   6.740   2.065 -0.6773 -2.2704  1.5569
   10MOL   H13511952   3.277   6.821   1.956  1.1022 -0.7762  1.3185
   10MOL   H13611953   3.354   6.662   1.977 -0.7637 -0.8108  1.1114
   10MOL   H13711954   3.297   6.670   1.756  0.2620  0.8298  0.2483
   10MOL   H13811955   3.196   6.555   1.837  0.1163 -0.3318 -0.7959
   10MOL   H13911956   3.125   6.855   1.753 -0.7543  0.2629  1.1638
   10MOL   H14011957   3.022   6.744   1.831  0.6360  0.1507  0.2247
   10MOL   H14111958   3.079   6.584   1.634 -2.8558 -1.3991  1.3654
   10MOL   H14211959   2.934   6.697   1.646  0.6987  0.4864  0.7566
   10MOL   O14311960   3.008   6.862   1.490 -0.4666  0.4153 -0.1030
   10MOL   C14411961   3.016   6.936   1.371  0.1207 -0.2490  0.2737
   10MOL   C14511962   2.908   6.914   1.261 -0.0870  0.4460 -0.1207
   10MOL   C14611963   2.773   6.970   1.294  0.3879  0.0334  0.7569
   10MOL   C14711964   2.692   6.985   1.162 -0.0303 -0.0922  0.2141
   10MOL   C14811965   2.561   7.063   1.168  1.1400 -0.0886  0.8327
   10MOL   C14911966   2.500   7.099   1.034  0.3909 -0.0736 -0.3938
   10MOL   C15011967   2.441   6.998   0.934 -0.0144  0.2044  0.4761
   10MOL   C15111968   2.386   7.064   0.808 -0.7099  0.2894 -0.2641
   10MOL   C15211969   2.248   7.123   0.819 -0.2999 -0.2599 -0.4779
   10MOL   C15311970   2.198   7.158   0.681  0.1637 -1.1717  0.5568
   10MOL   O15411971   2.259   7.262   0.611 -0.0648  0.5856 -0.0776
   10MOL   C15511972   2.190   7.334   0.519  0.1737 -0.1112 -0.1014
   10MOL   O15611973   2.072   7.335   0.494 -0.7566  0.1626 -0.5517
   10MOL   C15711974   2.283   7.434   0.444 -0.0741 -0.8961 -0.3670
   10MOL   C15811975   2.296   7.566   0.526  0.1036  0.2199  0.3169
   10MOL   C15911976   2.181   7.668   0.536  0.1465 -0.3090  0.3125
   10MOL   C16011977   2.173   0.004   0.418  1.5724  0.3998  0.4498
   10MOL   C16111978   2.060   0.101   0.432  0.2176  0.1745  0.1645
   10MOL   C16211979   2.078   0.213   0.329 -0.2615  0.3946  1.0042
   10MOL   C16311980   2.068   0.173   0.174  0.3402 -0.4747 -0.1370
   10MOL   C16411981   2.104   0.293   0.084 -0.0902 -0.3343 -0.4535
   10MOL   C16511982   2.000   0.404   0.072  0.8660 -0.5779 -0.1610
   10MOL   O16611983   1.883   0.382   0.038 -0.5944 -0.0009 -0.0426
   10MOL   H16711984   3.013   7.044   1.388 -0.3872  0.0244 -1.4922
   10MOL   H16811985   3.116   6.933   1.328 -0.4798 -0.0106 -1.1703
   10MOL   H16911986   2.949   6.955   1.168  1.0033 -0.3588  0.0058
   10MOL   H17011987   2.892   6.807   1.248  1.6386 -0.0042  1.2351
   10MOL   H17111988   2.715   6.923   1.374  0.6469 -0.6523  0.5443
   10MOL   H17211989   2.789   7.068   1.340 -0.9366  0.5010  0.2341
   10MOL   H17311990   2.758   7.041   1.096 -1.0154 -1.4080 -1.9621
   10MOL   H17411991   2.691   6.895   1.100  1.0474 -0.1740  0.3008
   10MOL   H17511992   2.581   7.157   1.219  0.8378  1.8357 -2.3920
   10MOL   H17611993   2.490   7.012   1.233  0.3531 -2.1241 -1.5513
   10MOL   H17711994   2.575   7.154   0.976  0.4714  0.6282  0.3681
   10MOL   H17811995   2.423   7.174   1.053  0.8595  0.6267 -1.1937
   10MOL   H17911996   2.367   6.935   0.983 -0.7703  0.3980 -0.4060
   10MOL   H18011997   2.518   6.926   0.905 -1.4696 -1.2161  0.1133
   10MOL   H18111998   2.373   6.985   0.734 -0.6453 -0.9694  1.0408
   10MOL   H18211999   2.458   7.141   0.779  0.1228 -0.4235 -0.1108
   10MOL   H18312000   2.183   7.038   0.841  1.9411 -1.7930  0.4371
   10MOL   H18412001   2.245   7.200   0.896  0.9871  0.1852 -0.8570
   10MOL   H18512002   2.222   7.073   0.617 -0.1255 -1.4854  0.8623
   10MOL   H18612003   2.093   7.177   0.702  0.1566  0.3744 -0.8046
   10MOL   H18712004   2.237   7.462   0.349  0.7387 -1.5480 -0.9516
   10MOL   H18812005   2.368   7.376   0.410  0.1479 -0.3651 -0.7228
   10MOL   H18912006   2.378   7.626   0.486 -0.3123 -0.4045 -1.5320
   10MOL   H19012007   2.323   7.531   0.625  0.0250  0.6544  0.4953
   10MOL   H19112008   2.200   7.726   0.626  1.4342  0.2367 -0.3000
   10MOL   H19212009   2.092   7.607   0.547  0.3670 -0.6216  0.3871
   10MOL   H19312010   2.174   7.707   0.324  0.3855 -0.4679  0.9238
   10MOL   H19412011   2.263   0.066   0.416  2.1166 -0.2963  2.0048
   10MOL   H19512012   1.968   0.044   0.416 -0.2871  0.7286  1.0634
   10MOL   H19612013   2.068   0.128   0.537  1.9541 -0.3506  0.1866
   10MOL   H19712014   2.001   0.289   0.344 -1.1634 -0.0839 -1.0829
   10MOL   H19812015   2.169   0.269   0.351  0.5787  1.0278 -3.6121
   10MOL   H19912016   1.968   0.144   0.142 -0.3419 -0.5736  1.9641
   10MOL   H20012017   2.132   0.087   0.157  1.7913  0.2895  1.3251
   10MOL   H20112018   2.198   0.333   0.122 -0.6865  0.6154  0.0573
   10MOL   H20212019   2.141   0.262   7.743  0.1626  0.0879 -0.4888
   10MOL   H20312020   2.051   0.497   0.098  0.9214 -0.4940 -0.5702
   11MOL     O112021   5.082   5.634   6.742 -0.3196 -0.2524  0.2330
   11MOL     C212022   5.068   5.745   6.659 -0.2587  0.8614  0.4933
   11MOL     C312023   5.127   5.865   6.732  0.1466 -0.1008  0.5589
   11MOL     C412024   5.120   5.998   6.655  0.0986  0.6346  0.2157
   11MOL     C512025   5.230   6.092   6.693 -0.2161  0.5801  0.0310
   11MOL     C612026   5.239   6.224   6.608  0.0339 -0.1462  0.9244
   11MOL     C712027   5.378   6.286   6.610 -0.1287 -0.0075 -0.4592
   11MOL     C812028   5.384   6.434   6.559 -0.1734  0.2614  0.2706
   11MOL     C912029   5.329   6.439   6.415 -0.3927  0.2523 -0.2978
   11MOL    C1012030   5.335   6.582   6.354  0.4672 -0.5527 -0.3667
   11MOL    C1112031   5.316   6.577   6.197  0.6217 -0.6314 -0.3474
   11MOL    O1212032   5.350   6.708   6.140 -0.3507  0.0393  0.3772
   11MOL    C1312033   5.294   6.735   6.020  0.5843 -0.4842 -0.2651
   11MOL    O1412034   5.211   6.662   5.964  0.6946 -0.5032 -0.0484
   11MOL    C1512035   5.338   6.866   5.962 -1.2118 -0.5595 -0.3190
   11MOL    C1612036   5.485   6.906   5.998 -0.3201 -0.0660 -0.2012
   11MOL    C1712037   5.545   7.012   5.904  0.0257 -0.1967 -0.0632
   11MOL    C1812038   5.669   7.066   5.965 -0.2841  0.4215  0.4924
   11MOL    C1912039   5.735   7.187   5.895  0.8940  0.3738  0.6022
   11MOL    C2012040   5.862   7.249   5.961  0.3443 -0.5381 -0.2480
   11MOL    C2112041   5.932   7.343   5.864  1.0574  0.3277 -0.0130
   11MOL    C2212042   6.038   7.427   5.940 -0.6309  0.0074  0.5168
   11MOL    C2312043   6.139   7.354   6.035  0.1864 -0.3682  0.8883
   11MOL    O2412044   6.161   7.392   6.148  0.0372  0.1513  0.6004
   11MOL    H2512045   5.127   5.724   6.570 -0.9927  0.5287  0.0817
   11MOL    H2612046   4.966   5.768   6.627 -0.5621  1.7794  2.0259
   11MOL    H2712047   5.077   5.866   6.829 -1.0781 -0.4176 -0.0585
   11MOL    H2812048   5.232   5.854   6.759 -0.4027 -0.0871  2.8096
   11MOL    H2912049   5.128   5.969   6.550  2.8653 -2.5323  1.2239
   11MOL    H3012050   5.027   6.049   6.681  0.1761  0.4436  0.8579
   11MOL    H3112051   5.227   6.121   6.798 -1.2303 -0.2402  0.2343
   11MOL    H3212052   5.325   6.040   6.687 -1.5184 -2.1256  1.6559
   11MOL    H3312053   5.170   6.299   6.646  0.8193 -0.0614  2.2351
   11MOL    H3412054   5.214   6.211   6.503  1.4762  2.8177  0.1815
   11MOL    H3512055   5.455   6.215   6.580  0.8113  0.1472  1.5337
   11MOL    H3612056   5.420   6.293   6.710 -1.1931  1.6080 -0.0944
   11MOL    H3712057   5.483   6.482   6.560 -0.2946  0.5158  3.3965
   11MOL    H3812058   5.317   6.487   6.626 -0.5018 -1.4415  1.2953
   11MOL    H3912059   5.230   6.397   6.397 -0.9900  0.5822  2.0507
   11MOL    H4012060   5.401   6.386   6.353  0.0897 -1.1144  1.3942
   11MOL    H4112061   5.265   6.649   6.405 -0.0431 -0.7533 -0.7945
   11MOL    H4212062   5.438   6.614   6.370  0.3036  0.3467 -1.0472
   11MOL    H4312063   5.393   6.506   6.170  2.2034  0.6426  0.7000
   11MOL    H4412064   5.215   6.545   6.170 -0.1102  1.5710 -0.3107
   11MOL    H4512065   5.274   6.952   5.982 -2.7039 -1.7835  0.2362
   11MOL    H4612066   5.337   6.860   5.853  0.0969 -0.7336 -0.3333
   11MOL    H4712067   5.543   6.814   5.993  1.6169  1.0574  1.1063
   11MOL    H4812068   5.492   6.931   6.104  0.5311 -0.9326 -0.0417
   11MOL    H4912069   5.470   7.090   5.890 -2.0143 -2.2508 -0.8618
   11MOL    H5012070   5.547   6.960   5.808 -3.8383  0.7849 -0.7588
   11MOL    H5112071   5.747   6.990   5.963 -2.0993 -1.4569 -0.7938
   11MOL    H5212072   5.662   7.068   6.074  2.5392 -1.9365  0.7718
   11MOL    H5312073   5.764   7.159   5.793 -0.1109  1.6215 -0.0514
   11MOL    H5412074   5.661   7.266   5.880 -0.5830 -1.1211 -0.1942
   11MOL    H5512075   5.813   7.307   6.039 -1.0458 -1.9393 -0.0445
   11MOL    H5612076   5.931   7.173   5.999  1.2646  0.8162  0.8347
   11MOL    H5712077   5.861   7.415   5.824  0.5310  0.0514  0.4219
   11MOL    H5812078   5.976   7.297   5.775  3.8586 -0.6661  1.8300
   11MOL    H5912079   6.112   7.463   5.869  1.1879 -2.7336  0.9475
   11MOL    H6012080   5.995   7.511   5.995 -0.3807  1.0079 -0.7797
   11MOL    H6112081   5.064   5.565   6.680 -0.1442 -0.4418  0.3923
   11MOL    O6212082   6.186   7.245   5.979  0.3953 -0.1045  0.0398
   11MOL    C6312083   6.270   7.163   6.059  0.6254 -0.1843  0.0870
   11MOL    C6412084   6.296   7.041   5.992 -0.2304  0.2932  0.3960
   11MOL    C6512085   6.412   6.971   6.068 -0.3275  0.3030 -0.6642
   11MOL    C6612086   6.454   6.826   6.018  0.4925  0.3790  0.0814
   11MOL    C6712087   6.554   6.744   6.109  0.3196 -0.1617  0.9758
   11MOL    C6812088   6.558   6.593   6.080 -0.1074 -0.7619  0.5003
   11MOL    C6912089   6.653   6.520   6.174  0.1000 -0.0210  0.0909
   11MOL    C7012090   6.628   6.366   6.173 -0.5311 -0.9024  0.1333
   11MOL    C7112091   6.674   6.294   6.046  0.6595 -0.0275 -0.2194
   11MOL    C7212092   6.638   6.149   6.041  0.1187 -0.1087 -0.0300
   11MOL    O7312093   6.745   6.078   6.103 -0.1424 -0.0713  0.0412
   11MOL    C7412094   6.761   5.954   6.066  0.7680 -0.2452  0.4750
   11MOL    O7512095   6.690   5.886   5.986 -0.2268 -0.0957 -0.0022
   11MOL    C7612096   6.890   5.884   6.114  0.6870  0.4004 -0.5615
   11MOL    C7712097   7.003   5.930   6.030 -0.0065 -0.3926 -0.3834
   11MOL    C7812098   7.062   6.071   6.045 -0.6291 -0.3601 -0.0497
   11MOL    C7912099   7.193   6.087   5.963  0.5673 -0.5316  0.8137
   11MOL    C8012100   7.265   6.224   5.978  0.0307 -0.1612 -0.0572
   11MOL    C8112101   7.409   6.228   5.919 -0.2761 -0.2164  0.0424
   11MOL    C8212102   7.473   6.368   5.907  1.1256 -0.1194 -0.0192
   11MOL    C8312103   7.610   6.371   5.850  0.5914  0.4576  0.1363
   11MOL    C8412104   7.710   6.284   5.911  0.2836  0.4842 -0.6585
   11MOL    O8512105   7.746   6.181   5.851 -0.1191  0.1146  0.1750
   11MOL    H8612106   6.360   7.223   6.070  0.5983 -0.1053 -0.1323
   11MOL    H8712107   6.213   7.137   6.149 -1.0644 -0.6112 -1.0856
   11MOL    H8812108   6.210   6.975   6.006 -0.6986 -0.1338 -3.7103
   11MOL    H8912109   6.326   7.054   5.888  1.1307  2.7562  1.0662
   11MOL    H9012110   6.503   7.031   6.062 -0.4284  0.6619  1.0181
   11MOL    H9112111   6.396   6.961   6.176  1.3565 -0.9059 -0.5101
   11MOL    H9212112   6.361   6.770   6.013  0.2318  0.8616 -0.4158
   11MOL    H9312113   6.499   6.820   5.919  1.4190  0.0245  0.5124
   11MOL    H9412114   6.527   6.750   6.214 -1.1321 -0.3253  0.6246
   11MOL    H9512115   6.654   6.779   6.086  0.2941  0.1264  1.2986
   11MOL    H9612116   6.598   6.584   5.979  0.8796 -0.2948  0.8447
   11MOL    H9712117   6.458   6.550   6.076 -0.0460 -0.8384 -0.3129
   11MOL    H9812118   6.629   6.569   6.269  1.6659  0.7976  0.0780
   11MOL    H9912119   6.756   6.535   6.144 -0.0783 -0.1944 -0.6202
   11MOL   H10012120   6.519   6.356   6.183 -0.4480  0.0252  2.1850
   11MOL   H10112121   6.682   6.315   6.253 -0.8453 -2.0804 -0.3925
   11MOL   H10212122   6.630   6.360   5.971 -1.2957 -0.6440  0.3585
   11MOL   H10312123   6.783   6.296   6.047  0.6468  0.2673  0.5755
   11MOL   H10412124   6.549   6.133   6.102  0.5532 -0.7918  0.4356
   11MOL   H10512125   6.614   6.119   5.939  0.5209  0.7176 -0.3643
   11MOL   H10612126   6.873   5.777   6.104 -0.5471  0.3173  1.9226
   11MOL   H10712127   6.897   5.913   6.219 -0.0636  0.7647 -0.6042
   11MOL   H10812128   6.980   5.916   5.924  2.8710 -2.0993 -0.8521
   11MOL   H10912129   7.089   5.867   6.053  0.8046 -0.1864 -2.6352
   11MOL   H11012130   7.073   6.093   6.151  0.0066  0.5219 -0.2985
   11MOL   H11112131   6.991   6.144   6.005 -1.4397 -1.4862 -0.7143
   11MOL   H11212132   7.183   6.062   5.857 -4.1588 -0.4771  1.1311
   11MOL   H11312133   7.261   6.020   6.016  4.0143  3.0221  1.1621
   11MOL   H11412134   7.200   6.298   5.931  0.6302  0.2610 -0.2264
   11MOL   H11512135   7.271   6.257   6.082 -0.3946  0.8611 -0.3495
   11MOL   H11612136   7.469   6.170   5.989  1.6489  1.1442 -0.4715
   11MOL   H11712137   7.407   6.170   5.826 -1.6778 -1.1129  0.5970
   11MOL   H11812138   7.464   6.413   6.006 -0.9887 -0.6532  0.0435
   11MOL   H11912139   7.416   6.435   5.843 -1.8171 -1.8315  0.7076
   11MOL   H12012140   7.603   6.337   5.747  2.8805 -0.0149  0.1118
   11MOL   H12112141   7.648   6.472   5.840 -0.0262  0.6151 -0.6884
   11MOL   O12212142   7.727   6.317   6.038  1.1990 -0.0768  1.0591
   11MOL   C12312143   0.037   6.221   6.120  0.1207 -0.2959  0.2604
   11MOL   C12412144   7.744   6.223   6.264 -0.1877  0.3712 -0.6155
   11MOL   C12512145   7.592   6.201   6.285 -1.1513 -0.1481 -0.2593
   11MOL   C12612146   7.557   6.053   6.285  0.0544 -0.1532 -0.3195
   11MOL   C12712147   7.407   6.033   6.308 -0.0023  0.4880 -0.6422
   11MOL   C12812148   7.369   5.878   6.292  0.5697  0.4328 -0.2106
   11MOL   C12912149   7.230   5.856   6.339  1.3060 -0.0817 -0.3573
   11MOL   C13012150   7.186   5.714   6.312 -0.9986  0.7267  0.1748
   11MOL   C13112151   7.051   5.661   6.375  0.4045 -0.5373 -0.2946
   11MOL   C13212152   7.034   5.688   6.528  0.4644 -0.0003 -0.1596
   11MOL   O13312153   6.904   5.713   6.564 -0.0583 -0.5412  0.2202
   11MOL   C13412154   6.862   5.836   6.558  0.0426  0.8621  0.3292
   11MOL   O13512155   6.921   5.932   6.515 -0.1293  0.4656  0.4358
   11MOL   C13612156   6.723   5.853   6.616  0.1375  0.1334  0.8172
   11MOL   C13712157   6.717   5.782   6.760 -0.6401 -0.1464 -0.0836
   11MOL   C13812158   6.588   5.818   6.841  0.2968  0.5148 -0.4974
   11MOL   C13912159   6.596   5.781   6.996  0.0691 -0.8681 -0.5099
   11MOL   C14012160   6.468   5.823   7.068 -0.4192  0.1234 -0.0128
   11MOL   C14112161   6.470   5.798   7.221 -0.0444  0.1698 -0.5990
   11MOL   C14212162   6.346   5.861   7.291 -0.7168  0.5760 -0.7433
   11MOL   C14312163   6.208   5.796   7.251 -0.1927  0.9256 -0.7537
   11MOL   C14412164   6.172   5.664   7.322 -0.4047 -0.3365 -0.1878
   11MOL   O14512165   6.214   5.637   7.436 -0.2919  0.1602  0.4287
   11MOL   H14612166   0.022   6.122   6.079 -3.3338  0.0054  0.6221
   11MOL   H14712167   0.140   6.257   6.120  0.5309 -1.3399 -3.1183
   11MOL   H14812168   0.044   6.162   6.334 -2.0250 -1.1555 -0.4346
   11MOL   H14912169   0.014   6.326   6.292  2.1620  0.2370 -2.1970
   11MOL   H15012170   7.567   6.231   6.387 -1.6469  3.1090 -1.2731
   11MOL   H15112171   7.532   6.257   6.212  0.0979  0.3719 -0.9006
   11MOL   H15212172   7.602   5.999   6.201  0.0426 -0.3726 -0.1859
   11MOL   H15312173   7.605   5.999   6.367 -0.6155 -0.2061  0.0351
   11MOL   H15412174   7.339   6.090   6.244 -0.4493 -0.8560 -1.3901
   11MOL   H15512175   7.385   6.068   6.408  0.8916  1.5789 -0.8203
   11MOL   H15612176   7.425   5.804   6.348 -0.0629 -0.1134 -0.2858
   11MOL   H15712177   7.388   5.852   6.188 -0.0192  0.9430 -0.4549
   11MOL   H15812178   7.163   5.918   6.279 -1.3408 -2.0227  0.5068
   11MOL   H15912179   7.219   5.885   6.444  1.1861  0.5199 -0.5334
   11MOL   H16012180   7.260   5.651   6.360 -2.1760 -0.6310  0.2462
   11MOL   H16112181   7.185   5.682   6.208 -0.1940 -0.3190  0.4812
   11MOL   H16212182   6.969   5.718   6.330 -0.8435 -1.7628  0.3767
   11MOL   H16312183   7.039   5.554   6.360 -0.5521 -0.3650 -0.8128
   11MOL   H16412184   7.055   5.592   6.575 -1.1740 -1.2287 -1.8708
   11MOL   H16512185   7.105   5.754   6.578  0.7345 -0.5495  0.1866
   11MOL   H16612186   6.651   5.816   6.544  2.5424 -0.3254 -1.4289
   11MOL   H16712187   6.693   5.958   6.622  1.4484  0.5237  0.6777
   11MOL   H16812188   6.811   5.808   6.809 -0.6577 -1.6228  0.7651
   11MOL   H16912189   6.721   5.673   6.751 -0.1602 -0.0872 -0.6084
   11MOL   H17012190   6.515   5.760   6.785  0.7727 -0.0296 -0.5624
   11MOL   H17112191   6.571   5.925   6.827  2.3109  0.9496  0.2018
   11MOL   H17212192   6.680   5.835   7.040 -1.9526  0.6180  1.6756
   11MOL   H17312193   6.615   5.674   7.004  3.8309 -0.4038 -2.1908
   11MOL   H17412194   6.451   5.927   7.042  1.8448  0.2242 -1.2476
   11MOL   H17512195   6.387   5.775   7.015 -0.2251 -0.0253 -0.1747
   11MOL   H17612196   6.473   5.690   7.235 -0.6957  0.1937 -0.2343
   11MOL   H17712197   6.558   5.837   7.273 -1.5797 -0.4635  2.5812
   11MOL   H17812198   6.346   5.966   7.263 -0.7534  0.8007  0.0875
   11MOL   H17912199   6.372   5.858   7.397  0.2001  3.1030 -0.8786
   11MOL   H18012200   6.125   5.858   7.284  1.6255  1.7096  2.5847
   11MOL   H18112201   6.207   5.781   7.143  1.7597  0.2527 -0.7049
   11MOL   O18212202   6.092   5.582   7.245 -0.4836 -0.0684 -0.4713
   11MOL   C18312203   6.076   5.450   7.292  0.2670 -0.3115  0.3012
   11MOL   C18412204   5.985   5.368   7.196 -0.5815 -0.5569 -0.5318
   11MOL   C18512205   5.962   5.229   7.248  0.2053 -0.5680  0.2243
   11MOL   C18612206   5.874   5.141   7.156 -0.0497 -0.6582  0.0326
   11MOL   C18712207   5.861   5.002   7.205 -0.7692 -0.4488  0.0814
   11MOL   C18812208   5.748   4.930   7.132  0.7383  0.0301  0.2298
   11MOL   C18912209   5.730   4.779   7.172 -0.0829 -0.2190 -0.1964
   11MOL   C19012210   5.589   4.726   7.143  1.2492  0.6741 -0.1442
   11MOL   C19112211   5.550   4.695   6.998 -0.3761  0.6022  0.2937
   11MOL   C19212212   5.420   4.624   6.976  0.2019  0.6325  0.0192
   11MOL   O19312213   5.379   4.645   6.842 -0.6115 -0.7355 -0.1155
   11MOL   C19412214   5.274   4.575   6.801  0.0520 -0.5441 -0.7418
   11MOL   O19512215   5.207   4.500   6.873 -0.2916 -0.8013 -0.1524
   11MOL   C19612216   5.222   4.604   6.656  0.8033  0.1524  0.3479
   11MOL   C19712217   5.075   4.562   6.633  0.5095 -0.0444  0.4731
   11MOL   C19812218   5.017   4.631   6.510  0.7794 -0.7918  0.1561
   11MOL   C19912219   4.870   4.613   6.499  0.1569  0.4500  0.5463
   11MOL   C20012220   4.819   4.472   6.465  0.2479 -0.1113 -0.0671
   11MOL   C20112221   4.666   4.461   6.449 -0.5193 -0.2885  0.0923
   11MOL   C20212222   4.607   4.326   6.414  0.3781 -0.4710 -0.0269
   11MOL   C20312223   4.454   4.309   6.447  0.8104 -0.3015 -0.2254
   11MOL   C20412224   4.416   4.310   6.600  0.2738  0.3349 -0.0641
   11MOL   O20512225   4.396   4.417   6.656  0.1976  0.2924  0.1632
   11MOL   H20612226   6.174   5.403   7.293  0.4491  0.0391 -0.4732
   11MOL   H20712227   6.052   5.445   7.398 -0.3301  0.0609  0.1887
   11MOL   H20812228   5.885   5.409   7.182 -1.3805 -1.6667  1.5166
   11MOL   H20912229   6.022   5.356   7.095 -1.3405  1.4494 -1.0626
   11MOL   H21012230   6.057   5.179   7.263  1.0640  0.9778  0.0866
   11MOL   H21112231   5.906   5.235   7.342 -1.2337  0.7704 -0.6920
   11MOL   H21212232   5.775   5.184   7.157  0.9474  1.8090 -2.0891
   11MOL   H21312233   5.905   5.148   7.051 -1.8744  0.7527 -0.4250
   11MOL   H21412234   5.840   5.009   7.311 -1.9362  2.0506 -0.2801
   11MOL   H21512235   5.951   4.941   7.212 -0.5289 -0.0419  0.5226
   11MOL   H21612236   5.780   4.921   7.029  1.7910 -3.3439  0.7693
   11MOL   H21712237   5.654   4.985   7.132 -0.7335 -2.4075  1.2139
   11MOL   H21812238   5.759   4.765   7.276 -1.0761 -1.2021 -0.0437
   11MOL   H21912239   5.799   4.712   7.120 -0.5514 -1.3567  0.6362
   11MOL   H22012240   5.512   4.794   7.180  1.8893  1.6080 -0.4837
   11MOL   H22112241   5.575   4.633   7.197  0.0497 -0.4419 -2.2919
   11MOL   H22212242   5.547   4.795   6.953 -0.6647  0.6333  0.3840
   11MOL   H22312243   5.631   4.635   6.956 -0.3449  0.4020  0.6404
   11MOL   H22412244   5.421   4.516   6.988 -0.0064  0.5325 -0.8622
   11MOL   H22512245   5.340   4.667   7.037 -0.2790 -1.2771  0.7531
   11MOL   H22612246   5.291   4.548   6.592  1.3512  1.0586  0.1391
   11MOL   H22712247   5.230   4.710   6.633 -0.7607 -0.0962 -1.4389
   11MOL   H22812248   5.014   4.587   6.719 -0.6919 -3.3108  0.6482
   11MOL   H22912249   5.065   4.454   6.626  0.3247 -0.0178  0.3182
   11MOL   H23012250   5.061   4.599   6.415 -2.0136 -1.4571 -0.9791
   11MOL   H23112251   5.033   4.738   6.519  0.3003 -0.3732 -3.3383
   11MOL   H23212252   4.831   4.691   6.433  0.6780 -0.1096 -0.4234
   11MOL   H23312253   4.824   4.631   6.596  0.6569  0.4695  0.7848
   11MOL   H23412254   4.869   4.454   6.370 -0.7102  0.3340 -0.6686
   11MOL   H23512255   4.855   4.405   6.542  0.4630  1.2215  1.0168
   11MOL   H23612256   4.613   4.505   6.534  0.6459 -0.0783  0.7116
   11MOL   H23712257   4.648   4.531   6.367  0.5919  0.5007  0.4996
   11MOL   H23812258   4.673   4.250   6.458 -0.6825 -0.5540  1.4552
   11MOL   H23912259   4.631   4.307   6.310 -1.0942  1.3293 -0.7127
   11MOL   H24012260   4.396   4.388   6.400  1.2881 -0.3763 -0.9450
   11MOL   H24112261   4.396   4.223   6.414 -1.7869  1.6244 -0.8006
   11MOL   O24212262   4.416   4.185   6.662  0.5955  0.7605  1.0313
   11MOL   C24312263   4.390   4.175   6.805 -0.5295 -0.1755 -0.2558
   11MOL   C24412264   4.327   4.040   6.842  0.7212 -0.2812 -0.4167
   11MOL   C24512265   4.284   4.033   6.992  0.0637 -0.2060  0.1566
   11MOL   C24612266   4.184   3.927   7.022 -0.1969  0.8166 -0.0601
   11MOL   C24712267   4.152   3.905   7.172  1.2990  0.1913 -1.0607
   11MOL   C24812268   4.250   3.832   7.256  0.4625 -0.0617  0.3069
   11MOL   C24912269   4.189   3.761   7.375 -0.5243  0.4730  0.2005
   11MOL   C25012270   4.277   3.663   7.453 -0.2825  0.2677  0.2572
   11MOL   C25112271   4.367   3.723   7.566  0.6554 -0.1260  0.3355
   11MOL   C25212272   4.476   3.632   7.623 -0.2682 -0.2037  0.3496
   11MOL   O25312273   4.548   3.704   7.725 -0.3060 -0.4997 -0.1552
   11MOL   C25412274   4.659   3.642   0.014  0.8053  0.1756 -0.4493
   11MOL   O25512275   4.694   3.530   7.743  0.7231  0.2060  0.5358
   11MOL   C25612276   4.739   3.727   0.110  0.5131  0.1966  0.7513
   11MOL   C25712277   4.757   3.872   0.051 -0.4891 -0.2525 -0.5205
   11MOL   C25812278   4.812   3.957   0.157 -0.4664  0.2428  0.3110
   11MOL   C25912279   4.833   4.103   0.116 -0.0082  0.8292 -0.1743
   11MOL   C26012280   4.885   4.189   0.232  0.4765  0.9348 -0.0598
   11MOL   C26112281   4.918   4.333   0.194  0.0415 -0.2179  0.2204
   11MOL   C26212282   4.995   4.398   0.305  0.6219 -0.3172  0.1416
   11MOL   C26312283   5.027   4.546   0.286 -0.4431  0.5024  1.1032
   11MOL   C26412284   5.047   4.614   0.422 -0.3094  0.7286 -0.7487
   11MOL   O26512285   4.980   4.709   0.457  0.1356 -0.2630 -0.1046
   11MOL   H26612286   4.489   4.181   6.851 -0.0408 -0.4194 -1.2522
   11MOL   H26712287   4.332   4.258   6.845 -1.9798 -0.9500 -0.7030
   11MOL   H26812288   4.240   4.012   6.782 -0.8425  1.0714  1.1561
   11MOL   H26912289   4.404   3.967   6.816  1.7585  1.1254 -1.3693
   11MOL   H27012290   4.375   4.029   7.051  0.6028 -0.0298 -0.6532
   11MOL   H27112291   4.253   4.136   7.012 -0.3815 -0.5821  1.4423
   11MOL   H27212292   4.094   3.954   6.966 -1.6250  0.7482  2.1267
   11MOL   H27312293   4.217   3.828   6.991  0.8058  0.1259  3.0197
   11MOL   H27412294   4.059   3.852   7.195  1.9067  0.2964  1.9027
   11MOL   H27512295   4.130   4.003   7.214  2.3809 -0.5064  1.2609
   11MOL   H27612296   4.331   3.901   7.282  2.4901 -2.0075 -0.6415
   11MOL   H27712297   4.300   3.748   7.206  1.7964  0.1952  1.1675
   11MOL   H27812298   4.110   3.697   7.336 -0.4467  1.6452 -2.0018
   11MOL   H27912299   4.151   3.837   7.442 -0.2761 -0.3066  1.2455
   11MOL   H28012300   4.325   3.593   7.385 -2.8617 -1.2958 -0.0406
   11MOL   H28112301   4.208   3.594   7.502  1.5911 -0.3799  2.0463
   11MOL   H28212302   4.418   3.816   7.540 -0.2026 -0.0872 -1.2321
   11MOL   H28312303   4.296   3.753   7.643  0.0472  0.2429 -0.3643
   11MOL   H28412304   4.424   3.546   7.665 -3.5366  1.5974  0.1601
   11MOL   H28512305   4.542   3.602   7.542  0.7987  1.4140  0.5990
   11MOL   H28612306   4.836   3.679   0.122 -0.9154 -2.4564  2.1612
   11MOL   H28712307   4.686   3.726   0.205 -0.1312 -1.3004  0.3860
   11MOL   H28812308   4.663   3.916   0.016 -1.0695  1.2905  2.8176
   11MOL   H28912309   4.823   3.863   7.721 -2.0144 -0.5382 -1.6804
   11MOL   H29012310   4.909   3.915   0.184 -1.1406 -2.4022 -1.2797
   11MOL   H29112311   4.753   3.953   0.249 -0.6206  1.8200  0.3074
   11MOL   H29212312   4.736   4.140   0.083  0.3214  0.6895 -1.3017
   11MOL   H29312313   4.901   4.095   0.032 -0.4715  0.7260 -0.5427
   11MOL   H29412314   4.817   4.190   0.317  1.2526  1.1703  0.5627
   11MOL   H29512315   4.972   4.140   0.277 -0.3522  0.0360  0.5922
   11MOL   H29612316   4.979   4.330   0.104 -0.0516  0.8019  0.1189
   11MOL   H29712317   4.827   4.388   0.172 -0.3819 -1.1427 -0.3310
   11MOL   H29812318   5.092   4.349   0.321  1.2593  1.0248  0.4422
   11MOL   H29912319   4.939   4.388   0.397  0.8783 -3.5304  0.0297
   11MOL   H30012320   5.125   4.553   0.237  0.1313 -1.0690  1.9783
   11MOL   H30112321   4.954   4.606   0.232  0.6712  0.4989 -0.4478
   11MOL   O30212322   5.150   4.569   0.485 -0.1865  0.1479 -0.1153
   11MOL   C30312323   5.175   4.616   0.610 -0.1591  0.2384 -0.2397
   11MOL   C30412324   5.270   4.509   0.665 -0.4083 -0.2819 -0.2694
   11MOL   C30512325   5.413   4.506   0.603  0.3816 -0.2650  0.1638
   11MOL   C30612326   5.487   4.385   0.660  0.6417 -0.0101 -0.7498
   11MOL   C30712327   5.631   4.381   0.610 -0.1695 -0.5243 -0.1676
   11MOL   C30812328   5.730   4.444   0.715 -0.1787 -0.1852  0.4186
   11MOL   C30912329   5.865   4.473   0.656 -0.8157 -0.4757 -0.6296
   11MOL   C31012330   5.962   4.550   0.754  0.1065  0.3225  0.1949
   11MOL   C31112331   6.091   4.608   0.686 -1.1311  0.1031  0.5192
   11MOL   C31212332   6.187   4.501   0.635  0.6824  0.5143 -0.2082
   11MOL   O31312333   6.262   4.439   0.742 -0.2835  0.7710 -0.3805
   11MOL   C31412334   6.360   4.344   0.713 -0.0018 -0.6702 -0.4122
   11MOL   O31512335   6.404   4.314   0.603 -0.5466 -0.1991 -0.1473
   11MOL   C31612336   6.415   4.281   0.839  0.6682  0.2148 -0.2600
   11MOL   C31712337   6.478   4.391   0.933 -1.0918 -0.0517  0.0642
   11MOL   C31812338   6.570   4.340   1.050  0.0213 -0.5949 -0.3265
   11MOL   C31912339   6.637   4.448   1.133  0.3172 -0.2015  0.4444
   11MOL   C32012340   6.733   4.391   1.242 -0.2235  0.2462 -0.4831
   11MOL   C32112341   6.768   4.502   1.350  0.1686  0.1785 -0.5393
   11MOL   C32212342   6.855   4.456   1.466 -0.0375  0.0103 -0.0092
   11MOL   C32312343   7.003   4.460   1.432  0.2283 -0.2923  0.3045
   11MOL   C32412344   7.082   4.463   1.561 -0.1874  0.1104 -0.4655
   11MOL   O32512345   7.041   4.409   1.661 -0.3104  0.3129  0.1129
   11MOL   H32612346   5.215   4.717   0.607 -1.7601  0.9087  0.5087
   11MOL   H32712347   5.083   4.609   0.669 -2.0437  0.8098 -2.9871
   11MOL   H32812348   5.263   4.519   0.774 -0.4920  2.1932 -0.4611
   11MOL   H32912349   5.222   4.413   0.645 -1.8453  0.1008  1.2036
   11MOL   H33012350   5.401   4.512   0.495 -1.8292  2.8628  0.5225
   11MOL   H33112351   5.463   4.595   0.642  0.0158 -0.4863  1.1476
   11MOL   H33212352   5.497   4.391   0.768 -0.8705  2.1566 -0.6919
   11MOL   H33312353   5.423   4.299   0.644  1.2363 -1.0198  1.9832
   11MOL   H33412354   5.645   4.434   0.516  0.3899 -0.0073  0.2048
   11MOL   H33512355   5.665   4.279   0.588  0.1045 -0.4086 -0.2826
   11MOL   H33612356   5.752   4.372   0.795 -0.0422  2.4571  2.8287
   11MOL   H33712357   5.683   4.528   0.765 -0.4594  0.0552 -0.2437
   11MOL   H33812358   5.837   4.537   0.572 -3.0781 -0.1751  0.3197
   11MOL   H33912359   5.913   4.380   0.626  0.2414 -1.0338  2.6408
   11MOL   H34012360   5.996   4.489   0.838 -1.0787  0.8583  1.0770
   11MOL   H34112361   5.897   4.628   0.792 -0.6063 -0.0567 -0.2250
   11MOL   H34212362   6.066   4.679   0.607  1.6501  1.0268  0.4480
   11MOL   H34312363   6.138   4.669   0.763 -0.0529  0.7265 -0.6197
   11MOL   H34412364   6.137   4.425   0.576  1.4938  1.5546 -2.3088
   11MOL   H34512365   6.260   4.555   0.574  1.2651 -1.3032 -1.1462
   11MOL   H34612366   6.488   4.206   0.810  0.0599  0.1579 -1.6649
   11MOL   H34712367   6.329   4.240   0.891 -0.1561  1.4755 -0.6056
   11MOL   H34812368   6.398   4.450   0.978  1.1493  1.8532  1.6877
   11MOL   H34912369   6.525   4.464   0.867 -1.0746  0.8697  1.0829
   11MOL   H35012370   6.648   4.277   1.008  1.5522  1.4520 -0.5501
   11MOL   H35112371   6.511   4.272   1.113  2.0666 -2.0747  0.0526
   11MOL   H35212372   6.557   4.502   1.183  0.7867  0.7818  0.1485
   11MOL   H35312373   6.684   4.517   1.063  1.4687 -1.6280 -0.2160
   11MOL   H35412374   6.682   4.305   1.287 -0.2375  0.1165 -0.7454
   11MOL   H35512375   6.818   4.354   1.186  0.0577  2.4343 -1.5429
   11MOL   H35612376   6.800   4.595   1.303 -0.5323  0.9940  0.5841
   11MOL   H35712377   6.664   4.520   1.378  0.2819  0.5523 -0.3542
   11MOL   H35812378   6.830   4.359   1.511 -3.8319  1.0214  0.2895
   11MOL   H35912379   6.846   4.527   1.548 -0.7693  0.9665 -0.9130
   11MOL   H36012380   7.040   4.376   1.373  0.4109 -0.8473  1.1898
   11MOL   H36112381   7.027   4.544   1.367  3.0291 -1.3871 -0.1593
   11MOL   O36212382   7.193   4.533   1.555 -0.0146  0.4182 -0.1707
   11MOL   C36312383   7.281   4.531   1.664  0.5518  0.3717  0.9610
   11MOL   C36412384   7.381   4.418   1.644 -0.1497 -0.3026 -0.3500
   11MOL   C36512385   7.506   4.418   1.737 -0.5561  0.2533  0.4577
   11MOL   C36612386   7.626   4.345   1.685  0.6211 -0.6899  0.0207
   11MOL   C36712387   7.742   4.372   1.778 -0.0471 -0.0080  0.6238
   11MOL   C36812388   0.117   4.306   1.729 -0.6345  0.6185  0.1547
   11MOL   C36912389   0.132   4.161   1.746  0.4487  0.4791  0.1055
   11MOL   C37012390   0.272   4.100   1.705  0.6331 -0.4670 -0.2841
   11MOL   C37112391   0.291   4.094   1.555 -0.3724 -0.0790  0.3653
   11MOL   C37212392   0.423   4.031   1.518  0.6859 -0.0770 -0.1909
   11MOL   O37312393   0.457   4.053   1.381 -0.3617  0.0842  0.4617
   11MOL   C37412394   0.475   3.953   1.294 -0.3680  1.1096  0.5183
   11MOL   O37512395   0.441   3.838   1.327  0.1391 -0.1950  0.0184
   11MOL   C37612396   0.523   3.990   1.153 -0.1329 -0.2233  0.0398
   11MOL   C37712397   0.560   3.866   1.070  0.2532 -0.3930 -1.1658
   11MOL   C37812398   0.558   3.894   0.924  0.5094  0.4260 -0.0570
   11MOL   C37912399   0.576   3.768   0.844 -0.5419  0.0064 -0.0157
   11MOL   C38012400   0.569   3.796   0.697 -0.4323 -1.2186  0.5544
   11MOL   C38112401   0.581   3.672   0.602 -0.2792 -0.0733 -0.6368
   11MOL   C38212402   0.571   3.719   0.455 -0.2593  0.4503  0.4335
   11MOL   C38312403   0.575   3.617   0.343  0.6465 -0.2584  0.1894
   11MOL   C38412404   0.551   3.691   0.205 -0.0158 -0.8778  0.3194
   11MOL   O38512405   0.459   3.659   0.132  0.5949 -0.1374  0.7998
   11MOL   H38612406   7.332   4.627   1.657 -2.2278  1.8343  0.0027
   11MOL   H38712407   7.233   4.522   1.761 -1.7929  1.4329 -0.0731
   11MOL   H38812408   7.325   4.326   1.658 -1.0490 -0.2130 -3.1222
   11MOL   H38912409   7.407   4.416   1.538  1.2757  0.3275 -0.0265
   11MOL   H39012410   7.526   4.524   1.755 -0.2151  0.3628 -0.5757
   11MOL   H39112411   7.483   4.372   1.834 -1.9552 -0.8106 -0.3616
   11MOL   H39212412   7.607   4.238   1.677 -0.9078 -0.4300 -0.0909
   11MOL   H39312413   7.656   4.373   1.584  0.1939 -1.2256 -0.2556
   11MOL   H39412414   7.714   4.345   1.880 -0.5541  3.6118  1.5258
   11MOL   H39512415   0.014   4.476   1.797  0.9573 -0.7664  3.6198
   11MOL   H39612416   0.192   4.354   1.791  0.8124 -2.1152  0.5673
   11MOL   H39712417   0.135   4.353   1.632  1.2932  0.8810  0.6311
   11MOL   H39812418   0.048   4.111   1.699 -1.3104  1.7082  1.9050
   11MOL   H39912419   0.118   4.138   1.851  1.5242  0.4542  0.2492
   11MOL   H40012420   0.275   3.996   1.736 -3.0266 -0.2677  0.9393
   11MOL   H40112421   0.351   4.158   1.754  1.5183 -0.4172 -1.7460
   11MOL   H40212422   0.205   4.053   1.502  0.5398 -1.1201 -0.3059
   11MOL   H40312423   0.289   4.202   1.540  0.9531  0.0179  0.8232
   11MOL   H40412424   0.504   4.072   1.578 -0.5847  0.7412  1.0051
   11MOL   H40512425   0.419   3.925   1.542  0.5517 -0.2241 -0.8556
   11MOL   H40612426   0.609   4.057   1.152  0.3385 -0.8124 -1.9608
   11MOL   H40712427   0.440   4.044   1.107  1.1379  0.4023 -1.5672
   11MOL   H40812428   0.499   3.778   1.092  0.2535  0.0003  0.4849
   11MOL   H40912429   0.659   3.832   1.098  0.3516 -0.3024 -1.4023
   11MOL   H41012430   0.631   3.971   0.901  1.0055  0.2232  0.7902
   11MOL   H41112431   0.458   3.929   0.898 -0.3322 -0.1238  2.2981
   11MOL   H41212432   0.505   3.692   0.874 -0.3740  0.0512  0.4964
   11MOL   H41312433   0.661   3.710   0.880 -0.8238 -0.7245 -0.5318
   11MOL   H41412434   0.470   3.837   0.676 -0.7350 -1.8891  0.6794
   11MOL   H41512435   0.639   3.868   0.654 -2.2400 -1.4118 -2.9100
   11MOL   H41612436   0.669   3.610   0.612 -1.3056 -1.5000 -0.3573
   11MOL   H41712437   0.511   3.590   0.617  0.4339 -0.9079 -1.7559
   11MOL   H41812438   0.656   3.785   0.441  1.6808 -1.9637  0.5671
   11MOL   H41912439   0.481   3.780   0.449 -0.9557 -0.7622 -1.8853
   11MOL   H42012440   0.670   3.564   0.353  0.7409 -0.2206 -0.4763
   11MOL   H42112441   0.509   3.530   0.346  0.9304 -0.5644 -1.5926
   11MOL   O42212442   0.644   3.787   0.176 -0.0461 -0.4331 -0.4001
   11MOL   C42312443   0.622   3.848   0.053  0.0277  0.1656 -0.3194
   11MOL   C42412444   0.747   3.886   7.749  0.1323  0.1162 -0.7524
   11MOL   C42512445   0.735   3.933   7.600 -0.2456  0.5902  1.0835
   11MOL   C42612446   0.869   3.968   7.532 -0.4336  0.3101  0.1318
   11MOL   C42712447   0.947   4.071   7.612 -0.2380  0.3120 -0.0848
   11MOL   C42812448   1.085   4.101   7.538 -0.0061  0.4425 -0.3299
   11MOL   C42912449   1.167   4.204   7.621 -0.4565 -0.3193  0.3169
   11MOL   C43012450   1.319   4.191   7.592  0.0720  0.6063  0.5674
   11MOL   C43112451   1.388   4.294   7.684  0.2877 -0.0635 -0.9005
   11MOL   C43212452   1.398   4.260   0.077 -0.6147 -0.0773  0.4622
   11MOL   O43312453   1.474   4.364   0.134  0.3153 -0.2210  0.5923
   11MOL   C43412454   1.526   4.364   0.261  0.4599  0.0509  0.0924
   11MOL   O43512455   1.543   4.264   0.328 -0.3060  0.1543 -0.1815
   11MOL   C43612456   1.577   4.498   0.307 -0.3167  0.8891  0.4452
   11MOL   C43712457   1.480   4.610   0.261  0.8364  0.8903  0.0192
   11MOL   C43812458   1.541   4.757   0.269  0.3644 -0.2856  0.2000
   11MOL   C43912459   1.550   4.818   0.407 -0.2810  0.6812  0.7707
   11MOL   C44012460   1.585   4.964   0.391  0.4988 -0.6479  0.1725
   11MOL   C44112461   1.540   5.057   0.511 -0.6858  0.8045 -0.2397
   11MOL   C44212462   1.624   5.040   0.643  0.2410 -0.0771  0.0938
   11MOL   C44312463   1.776   5.085   0.639 -0.0560 -0.5716  0.2627
   11MOL   C44412464   1.784   5.231   0.684  0.2627 -0.0075  0.1763
   11MOL   O44512465   1.793   5.318   0.599 -0.1109 -0.0589 -0.3189
   11MOL   H44612466   0.571   3.792   7.732 -1.7926  1.7064 -0.2825
   11MOL   H44712467   0.564   3.937   0.078  0.4123  0.9763 -2.2351
   11MOL   H44812468   0.788   3.965   0.054  0.4459 -0.7982  0.2187
   11MOL   H44912469   0.814   3.799   7.746  1.3071  1.0309 -1.8752
   11MOL   H45012470   0.687   3.857   7.539  1.1520  1.5148 -1.2067
   11MOL   H45112471   0.682   4.028   7.608  0.5412  1.2005 -0.8975
   11MOL   H45212472   0.942   3.887   7.535  0.4973  1.1105 -0.5384
   11MOL   H45312473   0.855   4.011   7.433 -1.4199  0.3907  0.2990
   11MOL   H45412474   0.960   4.050   7.718 -1.8568 -0.7879 -0.1003
   11MOL   H45512475   0.887   4.162   7.616 -0.1857  0.2821  2.0351
   11MOL   H45612476   1.055   4.135   7.439  1.0846  1.4472 -0.3359
   11MOL   H45712477   1.147   4.014   7.519 -2.1289 -1.7348  2.4075
   11MOL   H45812478   1.157   4.179   7.727 -2.1486  1.2101  0.5468
   11MOL   H45912479   1.122   4.302   7.605 -1.5670 -0.9516 -0.4401
   11MOL   H46012480   1.331   4.220   7.487 -2.5399  0.9335  0.3330
   11MOL   H46112481   1.361   4.092   7.606 -0.8553  0.3186  1.2999
   11MOL   H46212482   1.491   4.314   7.653  0.5202  0.6582  0.2938
   11MOL   H46312483   1.332   4.386   7.666 -1.8329 -0.8639  1.3481
   11MOL   H46412484   1.303   4.248   0.128 -0.1958 -1.8349  0.8563
   11MOL   H46512485   1.453   4.167   0.089  0.9360  0.9581  1.7100
   11MOL   H46612486   1.673   4.496   0.255 -1.2751 -2.0928 -1.3610
   11MOL   H46712487   1.602   4.498   0.413  1.5881  1.8803  0.0251
   11MOL   H46812488   1.391   4.600   0.324  0.3400 -3.5886 -1.2248
   11MOL   H46912489   1.445   4.591   0.160 -0.5327 -0.6151  0.7555
   11MOL   H47012490   1.479   4.821   0.206  0.8743 -0.9952 -1.0219
   11MOL   H47112491   1.638   4.752   0.220  0.9573 -0.9491  1.4147
   11MOL   H47212492   1.630   4.760   0.454 -1.2712 -1.0302  0.4121
   11MOL   H47312493   1.456   4.813   0.462 -1.8912  0.1988 -1.9711
   11MOL   H47412494   1.692   4.967   0.371  0.4504 -1.7300 -0.2593
   11MOL   H47512495   1.532   4.998   0.302  1.0720 -0.1566  0.0140
   11MOL   H47612496   1.536   5.161   0.478 -0.7351  0.3419 -1.7301
   11MOL   H47712497   1.434   5.039   0.531 -0.5169 -1.8584 -1.5177
   11MOL   H47812498   1.625   4.934   0.669  1.3200 -0.1468 -0.2231
   11MOL   H47912499   1.574   5.092   0.725  0.8804  3.9135 -1.8950
   11MOL   H48012500   1.839   5.030   0.709  1.5473  0.4213 -0.3797
   11MOL   H48112501   1.817   5.069   0.539  2.1697 -0.2394  1.0983
   11MOL   O48212502   1.773   5.246   0.824  0.5370  0.2451 -0.7138
   11MOL   C48312503   1.805   5.373   0.884 -0.8240 -0.3785 -0.1785
   11MOL   C48412504   1.672   5.434   0.928 -0.6045 -0.5450 -0.3529
   11MOL   C48512505   1.687   5.565   1.015 -0.2010  0.0429 -0.2524
   11MOL   C48612506   1.558   5.620   1.080 -0.7202  0.3217  0.0679
   11MOL   C48712507   1.592   5.754   1.146  0.5179  0.1303 -0.4043
   11MOL   C48812508   1.459   5.807   1.208 -0.4992  0.8873  0.7487
   11MOL   C48912509   1.470   5.939   1.290  0.1346  0.7372  0.4520
   11MOL   C49012510   1.339   5.996   1.339  0.6107 -0.2966  0.4052
   11MOL   C49112511   1.338   6.147   1.372 -0.1620 -0.1892 -0.7449
   11MOL   C49212512   1.211   6.207   1.430 -0.1235  0.3871 -0.0768
   11MOL   O49312513   1.163   6.139   1.544  0.2234 -0.4808  0.3059
   11MOL   C49412514   1.037   6.113   1.555  0.0248  0.2407 -0.7448
   11MOL   O49512515   0.948   6.135   1.472 -0.9201  0.3712 -0.0800
   11MOL   C49612516   1.005   6.061   1.698  0.8047  0.5035 -0.3928
   11MOL   C49712517   1.121   5.966   1.756 -0.2781 -0.5236  0.0402
   11MOL   C49812518   1.257   6.021   1.813  0.2965 -0.1252 -0.5012
   11MOL   C49912519   1.337   5.910   1.889 -0.0192  0.3060 -0.2052
   11MOL   C50012520   1.447   5.974   1.972  0.0648  0.2029 -0.2929
   11MOL   C50112521   1.574   5.888   2.007 -0.2350  0.2411 -0.2496
   11MOL   C50212522   1.678   5.946   2.103 -0.6988  1.0172 -0.4027
   11MOL   C50312523   1.806   5.872   2.112  0.1836 -0.5825 -0.8467
   11MOL   C50412524   1.791   5.733   2.177  0.1940  0.5089 -0.2438
   11MOL   O50512525   1.684   5.687   2.216 -0.4391 -0.1345  0.2047
   11MOL   H50612526   1.875   5.353   0.965 -1.9989 -1.8813  0.4967
   11MOL   H50712527   1.860   5.434   0.812 -0.1585  0.8755  1.3588
   11MOL   H50812528   1.604   5.457   0.846 -0.5851 -0.7471 -0.4251
   11MOL   H50912529   1.624   5.359   0.992 -1.3995  2.0357  2.1996
   11MOL   H51012530   1.750   5.545   1.102 -1.3379  0.6597  0.7120
   11MOL   H51112531   1.741   5.637   0.953 -0.3336 -2.0810 -2.9303
   11MOL   H51212532   1.489   5.634   0.998 -0.3564  1.0860 -0.1146
   11MOL   H51312533   1.516   5.553   1.156  0.8511 -1.9040 -0.9534
   11MOL   H51412534   1.624   5.817   1.064  0.0598 -1.8213 -2.1280
   11MOL   H51512535   1.663   5.741   1.228 -1.8651 -3.6155  1.2299
   11MOL   H51612536   1.418   5.747   1.289 -1.4833 -1.2992 -1.2907
   11MOL   H51712537   1.385   5.825   1.130 -0.2145  1.7478  0.6750
   11MOL   H51812538   1.514   6.005   1.215 -1.0552  0.8902 -0.1110
   11MOL   H51912539   1.546   5.946   1.368  0.0164 -2.5095  0.9193
   11MOL   H52012540   1.313   5.951   1.435 -0.5915  2.4449  1.3993
   11MOL   H52112541   1.263   5.977   1.264  0.6339 -0.1893  0.3553
   11MOL   H52212542   1.423   6.168   1.437  0.6932 -2.3525 -1.1261
   11MOL   H52312543   1.359   6.189   1.274 -2.3129 -0.6145 -1.4302
   11MOL   H52412544   1.223   6.313   1.451 -0.3005  0.7735 -1.8405
   11MOL   H52512545   1.145   6.193   1.344 -0.2665 -1.2315  0.2727
   11MOL   H52612546   0.912   6.006   1.681  0.6060  0.1368  1.7036
   11MOL   H52712547   0.997   6.157   1.749  1.1831  0.4959 -0.3222
   11MOL   H52812548   1.166   5.890   1.692  1.4577  1.0107 -0.5943
   11MOL   H52912549   1.079   5.921   1.846  0.1979  2.4566  1.8017
   11MOL   H53012550   1.238   6.107   1.877 -0.9433 -0.7347 -0.0314
   11MOL   H53112551   1.328   6.056   1.739  1.1311 -1.8814 -0.5652
   11MOL   H53212552   1.375   5.843   1.812 -1.3762 -1.3735  0.5254
   11MOL   H53312553   1.268   5.856   1.954 -2.2664  0.0675 -2.6975
   11MOL   H53412554   1.480   6.061   1.915  2.2907 -0.3268  0.1275
   11MOL   H53512555   1.405   6.016   2.063  1.6632 -0.1299  0.6111
   11MOL   H53612556   1.533   5.790   2.033 -0.2782  0.0083 -1.1983
   11MOL   H53712557   1.628   5.867   1.915  1.9021  2.4845  0.4400
   11MOL   H53812558   1.634   5.957   2.202 -1.2737  3.1999 -0.8690
   11MOL   H53912559   1.709   6.047   2.078  3.2033 -0.2628 -1.1456
   11MOL   H54012560   1.856   5.864   2.015  1.4687  0.4404 -0.2781
   11MOL   H54112561   1.873   5.933   2.173 -1.1994  1.0209 -0.9161
   11MOL   O54212562   1.908   5.683   2.179  0.1450 -0.3174  0.0805
   11MOL   C54312563   1.929   5.551   2.214  0.6889 -0.1452  0.1314
   11MOL   C54412564   2.034   5.500   2.109  0.6708 -0.6361  0.1957
   11MOL   C54512565   1.982   5.511   1.961  0.6389  0.1900  0.6395
   11MOL   C54612566   2.074   5.446   1.854 -0.3208  0.4426  0.0516
   11MOL   C54712567   2.025   5.443   1.706  0.2592 -0.1083 -0.8262
   11MOL   C54812568   2.130   5.399   1.607 -0.2929 -0.3725  0.0044
   11MOL   C54912569   2.066   5.411   1.461  0.1624 -0.2901 -0.2774
   11MOL   C55012570   2.166   5.378   1.347  0.1963 -0.9220 -1.2567
   11MOL   C55112571   2.095   5.375   1.210 -0.2241 -0.1885 -0.1554
   11MOL   C55212572   2.031   5.239   1.190  0.3187 -0.0063 -0.8140
   11MOL   O55312573   2.128   5.133   1.158  0.0343  0.0579 -0.0860
   11MOL   C55412574   2.139   5.085   1.038  0.3193  0.2937  0.2710
   11MOL   O55512575   2.068   5.115   0.941  1.1017 -0.0141  0.4434
   11MOL   C55612576   2.241   4.970   1.022 -0.0378 -0.3759 -0.3229
   11MOL   C55712577   2.334   4.997   0.904  0.4668 -0.6542 -0.1495
   11MOL   C55812578   2.285   4.932   0.776 -0.0798 -0.4394 -1.1681
   11MOL   C55912579   2.388   4.951   0.664 -0.0086 -0.1602  0.5486
   11MOL   C56012580   2.348   4.916   0.516  0.4293 -0.6192 -0.8222
   11MOL   C56112581   2.467   4.924   0.419 -0.0857 -0.4728 -0.8780
   11MOL   C56212582   2.440   4.871   0.275 -0.0254 -0.0356 -0.3505
   11MOL   C56312583   2.531   4.940   0.178  0.1815  0.6740 -0.1890
   11MOL   C56412584   2.507   4.877   0.038 -0.7593  0.8132  0.3355
   11MOL   O56512585   2.453   4.944   7.707  1.1541 -0.1645 -0.1124
   11MOL   H56612586   1.981   5.558   2.309 -0.8649  0.6554  0.9320
   11MOL   H56712587   1.840   5.488   2.218 -0.2039  1.1572  0.9315
   11MOL   H56812588   2.123   5.562   2.110  1.3735 -1.6483  1.5150
   11MOL   H56912589   2.075   5.403   2.138 -0.9259 -1.6480 -0.8322
   11MOL   H57012590   1.885   5.462   1.954  0.0052  1.0877  2.7623
   11MOL   H57112591   1.960   5.613   1.928  1.8174  0.8917  1.9681
   11MOL   H57212592   2.172   5.492   1.862 -0.4272  0.8416 -0.8980
   11MOL   H57312593   2.088   5.345   1.892 -1.0854  0.4202  0.2770
   11MOL   H57412594   2.007   5.548   1.685 -0.2378 -0.2768 -1.2501
   11MOL   H57512595   1.934   5.385   1.693  0.2962 -0.8444  2.0058
   11MOL   H57612596   2.176   5.302   1.625  1.0673  0.4072  0.7946
   11MOL   H57712597   2.210   5.473   1.609 -1.0069  0.4061  0.0881
   11MOL   H57812598   2.041   5.517   1.453  2.4423  0.4546  1.9601
   11MOL   H57912599   1.969   5.360   1.458  0.8544 -1.6024 -1.1428
   11MOL   H58012600   2.220   5.285   1.363  3.1515  1.0708  0.7557
   11MOL   H58112601   2.248   5.449   1.337 -0.8515  0.5584  0.3860
   11MOL   H58212602   2.015   5.447   1.192 -2.6061 -2.5199  0.6663
   11MOL   H58312603   2.173   5.377   1.134 -1.3192  1.4171 -1.2759
   11MOL   H58412604   1.963   5.203   1.267  0.2790 -1.2177 -1.4034
   11MOL   H58512605   1.974   5.258   1.099 -1.1131  2.1429  0.4594
   11MOL   H58612606   2.169   4.888   1.015  1.1225 -1.6773  2.3559
   11MOL   H58712607   2.282   4.954   1.121 -1.9090  0.9201  0.7139
   11MOL   H58812608   2.429   4.948   0.928  1.4615  2.5750  2.8183
   11MOL   H58912609   2.349   5.103   0.884  0.3118 -0.5364  0.3713
   11MOL   H59012610   2.188   4.981   0.767  0.4899  1.0859  0.7091
   11MOL   H59112611   2.251   4.832   0.802  1.5718 -0.3731  1.4746
   11MOL   H59212612   2.481   4.901   0.691 -0.6936 -0.4988  2.3172
   11MOL   H59312613   2.429   5.052   0.660  0.5907 -0.4751 -1.9530
   11MOL   H59412614   2.315   4.812   0.524 -0.3856 -0.4573 -2.0793
   11MOL   H59512615   2.261   4.973   0.485 -0.6651 -1.4814  0.6057
   11MOL   H59612616   2.496   5.029   0.422 -2.7939  0.2901  0.4723
   11MOL   H59712617   2.555   4.866   0.445  0.3105  0.1485 -0.8163
   11MOL   H59812618   2.337   4.896   0.249 -0.3864 -0.8477  0.2735
   11MOL   H59912619   2.440   4.762   0.278 -2.9794 -0.0389  0.8917
   11MOL   H60012620   2.518   5.047   0.191  1.2444  0.4526  3.3980
   11MOL   H60112621   2.637   4.920   0.196  0.9605  1.7388 -3.2280
   11MOL   O60212622   2.551   4.748   0.040 -0.1852 -0.1693  0.2462
   11MOL   C60312623   2.528   4.666   7.688 -0.4531  0.6836  0.9702
   11MOL   C60412624   2.470   4.531   7.734  0.2483 -0.1230  0.5003
   11MOL   C60512625   2.437   4.432   7.626  0.9535 -0.4601  0.3274
   11MOL   C60612626   2.343   4.318   7.676  0.8398 -0.7790 -0.2412
   11MOL   C60712627   2.299   4.210   7.572 -1.1216  0.0238 -0.4816
   11MOL   C60812628   2.420   4.157   7.491  0.4403 -0.0895  0.3998
   11MOL   C60912629   2.387   4.060   7.373  0.6595  0.1556 -0.0286
   11MOL   C61012630   2.400   4.124   7.236 -0.6891 -0.0578  0.7515
   11MOL   C61112631   2.331   4.039   7.132  0.0662  0.4013  0.3348
   11MOL   C61212632   2.302   4.108   7.004  0.3497  0.1504  0.6888
   11MOL   O61312633   2.209   4.218   7.012 -0.2613  0.3634 -0.6870
   11MOL   C61412634   2.173   4.292   6.908 -0.7832 -0.5931 -1.1418
   11MOL   O61512635   2.217   4.284   6.792  0.1017  0.2523 -0.3456
   11MOL   C61612636   2.057   4.381   6.942 -0.8479 -0.7095  0.1766
   11MOL   C61712637   1.929   4.376   6.851 -0.1283 -0.3627 -0.5252
   11MOL   C61812638   1.839   4.507   6.879  0.0942  0.1287  0.5980
   11MOL   C61912639   1.796   4.521   7.026  0.2756 -0.4678 -0.2314
   11MOL   C62012640   1.713   4.647   7.048  0.6396 -0.2712 -0.0611
   11MOL   C62112641   1.664   4.678   7.196 -0.1384 -0.0294 -0.0994
   11MOL   C62212642   1.571   4.799   7.193 -0.5509  0.4093  0.4130
   11MOL   C62312643   1.564   4.885   7.326  0.7336  0.3984  1.0820
   11MOL   C62412644   1.531   4.791   7.445 -0.6952  0.8841 -0.0776
   11MOL   O62512645   1.421   4.745   7.469 -0.0213  0.1759 -0.4329
   11MOL   H62612646   2.467   4.712   7.611  0.5094  4.1217  2.2035
   11MOL   H62712647   2.624   4.643   7.640  0.4298 -1.3114  3.5784
   11MOL   H62812648   2.526   4.486   0.059 -1.5365  1.5042  2.6970
   11MOL   H62912649   2.373   4.564   0.015 -0.0153  0.9593 -1.0707
   11MOL   H63012650   2.396   4.486   7.541 -1.0839  1.8377  2.6722
   11MOL   H63112651   2.534   4.391   7.596  1.6137  2.0473 -1.1665
   11MOL   H63212652   2.385   4.263   0.004 -0.6543  0.4629  1.3290
   11MOL   H63312653   2.254   4.361   7.722  0.4684 -0.3814 -1.3187
   11MOL   H63412654   2.215   4.236   7.507  0.7075  0.4467 -2.7394
   11MOL   H63512655   2.252   4.133   7.633 -1.4262 -0.5529 -1.4270
   11MOL   H63612656   2.492   4.112   7.559 -0.1354 -1.1981  0.2746
   11MOL   H63712657   2.466   4.245   7.446  0.0402  0.4729  1.0798
   11MOL   H63812658   2.289   4.014   7.383  1.3442 -1.2669  0.2627
   11MOL   H63912659   2.449   3.970   7.375 -1.3847 -1.3367 -0.9021
   11MOL   H64012660   2.506   4.125   7.211 -1.0082 -2.8836 -1.0242
   11MOL   H64112661   2.351   4.220   7.244 -1.4503 -0.4150  0.4432
   11MOL   H64212662   2.398   3.954   7.118 -0.2903  0.1494  0.1442
   11MOL   H64312663   2.238   3.996   7.169  0.6684 -1.1393  0.0950
   11MOL   H64412664   2.389   4.150   6.954 -0.0949  0.9638  0.5930
   11MOL   H64512665   2.274   4.022   6.942  0.3931  1.1732 -0.7745
   11MOL   H64612666   2.099   4.481   6.948 -1.0493 -0.5252 -1.2062
   11MOL   H64712667   2.025   4.364   7.044  0.8292  0.0767  0.8382
   11MOL   H64812668   1.861   4.293   6.871  0.8594 -0.6980  1.5953
   11MOL   H64912669   1.954   4.354   6.748 -0.2062  0.2301 -0.6701
   11MOL   H65012670   1.752   4.485   6.816  0.0601  2.4799 -0.2454
   11MOL   H65112671   1.881   4.600   6.839  0.1734  0.8009  2.2125
   11MOL   H65212672   1.875   4.545   7.096  0.3226  0.2667 -0.5324
   11MOL   H65312673   1.750   4.428   7.060 -0.5229  0.0222  0.0278
   11MOL   H65412674   1.773   4.731   7.012  2.5504 -2.0309 -1.0627
   11MOL   H65512675   1.628   4.636   6.981  0.4278 -0.6503  0.2651
   11MOL   H65612676   1.608   4.594   7.236 -0.0060  0.0825  0.3226
   11MOL   H65712677   1.749   4.707   7.257  0.5498  0.8830 -1.4646
   11MOL   H65812678   1.468   4.772   7.168 -0.9822  2.4932 -0.2066
   11MOL   H65912679   1.594   4.873   7.116 -2.0124 -1.0477 -1.5001
   11MOL   H66012680   1.655   4.941   7.348  0.9124  0.8460 -0.7743
   11MOL   H66112681   1.491   4.964   7.311  1.1541  0.3214 -1.5096
   11MOL   O66212682   1.640   4.785   7.533  0.6073  0.4764  0.0220
   11MOL   C66312683   1.628   4.707   7.656 -0.5573 -0.1107  0.1321
   11MOL   C66412684   1.641   4.557   7.628  0.2797 -0.0529  0.2684
   11MOL   C66512685   1.769   4.519   7.563 -0.4593 -0.5032  0.6064
   11MOL   C66612686   1.773   4.381   7.503  0.8045  0.6861  0.1423
   11MOL   C66712687   1.911   4.351   7.440  0.5833  0.8706  0.2500
   11MOL   C66812688   1.916   4.215   7.361 -0.2374 -0.3161  0.5495
   11MOL   C66912689   1.909   4.091   7.444 -0.3790  0.3153  0.1983
   11MOL   C67012690   1.948   3.964   7.363 -0.1630 -0.3202  0.8229
   11MOL   C67112691   1.932   3.834   7.439 -0.4266  0.1745 -0.1786
   11MOL   C67212692   1.996   3.715   7.370  0.3799  0.5867 -0.8066
   11MOL   O67312693   1.935   3.686   7.243 -0.6634  0.1318  0.4854
   11MOL   C67412694   1.994   3.704   7.124 -0.7088  0.3046 -0.1953
   11MOL   O67512695   2.114   3.735   7.108  0.1808 -0.1182 -0.0921
   11MOL   C67612696   1.891   3.711   7.009 -0.0627 -0.3974 -0.7923
   11MOL   C67712697   1.849   3.857   6.971  0.1710  0.5918 -0.5169
   11MOL   C67812698   1.949   3.946   6.894 -0.8166 -0.0714  0.0518
   11MOL   C67912699   1.993   3.879   6.764  0.0681 -0.1117 -0.4667
   11MOL   C68012700   2.097   3.965   6.684  0.1107  0.7049 -0.5299
   11MOL   C68112701   2.184   3.889   6.585 -0.9355 -0.8853 -0.7366
   11MOL   C68212702   2.328   3.954   6.560  0.7800 -0.1972 -0.0693
   11MOL   C68312703   2.314   4.092   6.501 -0.4920  0.1495  0.3377
   11MOL   C68412704   2.450   4.169   6.491  0.4900  0.1054 -0.6316
   11MOL   O68512705   2.564   4.115   6.491  0.3223 -0.7898 -0.4918
   11MOL   H68612706   1.700   4.739   7.731  1.6154 -0.6200 -1.6659
   11MOL   H68712707   1.533   4.734   7.701 -0.8752 -0.7521 -0.1415
   11MOL   H68812708   1.636   4.502   7.722  0.4710  1.9424  1.4872
   11MOL   H68912709   1.552   4.520   7.576  0.8070 -1.6230  0.4822
   11MOL   H69012710   1.796   4.596   7.491 -0.2185 -0.1563  1.0658
   11MOL   H69112711   1.855   4.529   7.630 -1.6076  2.5844  1.7020
   11MOL   H69212712   1.749   4.300   7.572  1.3945 -0.0761 -0.5308
   11MOL   H69312713   1.702   4.370   7.421  1.9412 -1.4133 -0.6001
   11MOL   H69412714   1.980   4.356   7.524 -0.6697 -1.0213  1.4169
   11MOL   H69512715   1.936   4.437   7.376 -1.9393  1.3304 -0.1639
   11MOL   H69612716   2.002   4.221   7.294 -1.9985 -0.7524 -1.8111
   11MOL   H69712717   1.833   4.220   7.292 -1.2807  3.9288  1.9593
   11MOL   H69812718   1.817   4.077   7.500  0.0328  2.4429  1.4647
   11MOL   H69912719   1.974   4.093   7.531 -2.7456 -0.5649  2.0221
   11MOL   H70012720   2.053   3.970   7.336 -0.9167  2.8847 -1.6849
   11MOL   H70112721   1.891   3.960   7.270 -1.5550  0.5546  1.6204
   11MOL   H70212722   1.992   3.841   7.530 -0.2911 -2.9677  0.0521
   11MOL   H70312723   1.826   3.822   7.460 -0.5368  0.3612 -0.6376
   11MOL   H70412724   2.101   3.737   7.353  0.8442 -2.4125 -2.1261
   11MOL   H70512725   1.984   3.629   7.436  0.8150  1.9560  1.0922
   11MOL   H70612726   1.810   3.654   7.053 -0.4111  1.3022  0.8392
   11MOL   H70712727   1.948   3.667   6.927  4.0843 -0.3465  1.9198
   11MOL   H70812728   1.806   3.914   7.053 -0.0391 -0.6335  0.2359
   11MOL   H70912729   1.770   3.853   6.896  2.0133 -0.7757 -2.4559
   11MOL   H71012730   2.038   3.948   6.958 -0.3797 -1.1085 -0.5134
   11MOL   H71112731   1.924   4.050   6.872  3.4371  0.5899 -2.3518
   11MOL   H71212732   1.915   3.879   6.688  0.3816  2.2409 -0.8355
   11MOL   H71312733   2.029   3.778   6.783 -0.3810 -0.4678 -1.5010
   11MOL   H71412734   2.040   4.047   6.640  1.7290  2.1621  0.0388
   11MOL   H71512735   2.173   4.008   6.749 -0.8898  4.0236 -1.4339
   11MOL   H71612736   2.199   3.791   6.632 -2.6101 -1.8459 -2.1484
   11MOL   H71712737   2.124   3.877   6.495 -1.7860 -0.4303 -0.2394
   11MOL   H71812738   2.379   3.900   6.481 -0.1443 -0.7431 -0.3068
   11MOL   H71912739   2.391   3.974   6.646  1.4167  0.2476 -0.6337
   11MOL   H72012740   2.270   4.090   6.401  2.2911 -1.8281 -0.9233
   11MOL   H72112741   2.248   4.157   6.559 -1.4022  0.6788 -1.2724
   11MOL   O72212742   2.426   4.307   6.483  0.1988  0.1092 -0.0554
   11MOL   C72312743   2.539   4.396   6.474 -0.0060 -0.1837 -0.2464
   11MOL   C72412744   2.558   4.431   6.327 -1.0676  0.4571 -0.1732
   11MOL   C72512745   2.469   4.540   6.267  0.2924 -0.5414  0.0844
   11MOL   C72612746   2.518   4.605   6.137 -0.3882 -0.6350  0.2314
   11MOL   C72712747   2.439   4.726   6.082 -0.7772 -0.2845  0.6691
   11MOL   C72812748   2.513   4.769   5.956  0.0870 -0.2363 -0.4391
   11MOL   C72912749   2.461   4.893   5.889 -0.4496  0.0296  0.1212
   11MOL   C73012750   2.528   4.923   5.756 -0.7935  0.0128  0.0670
   11MOL   C73112751   2.668   4.988   5.776 -0.7626  0.0392 -0.0102
   11MOL   C73212752   2.740   5.012   5.645 -0.0787 -0.1395  0.4907
   11MOL   O73312753   2.867   5.080   5.665  0.1687  0.5196  0.0550
   11MOL   C73412754   2.958   5.064   5.572 -0.1527 -0.0992  0.1515
   11MOL   O73512755   2.945   5.013   5.462  0.5497  0.0913  0.2809
   11MOL   C73612756   3.090   5.118   5.608  0.4916  0.0820 -0.4245
   11MOL   C73712757   3.184   5.034   5.696  0.4785 -0.9901 -0.5255
   11MOL   C73812758   3.129   4.990   5.829  0.1084 -0.3280 -0.4647
   11MOL   C73912759   3.233   4.939   5.930  0.2804 -0.0776  0.6062
   11MOL   C74012760   3.176   4.876   6.058 -0.1459  0.1716  0.2641
   11MOL   C74112761   3.274   4.780   6.138 -0.0952  0.2936 -0.3635
   11MOL   C74212762   3.228   4.757   6.286  0.5957 -0.4195 -0.4664
   11MOL   C74312763   3.322   4.666   6.365  0.0502 -0.1101  0.0043
   11MOL   C74412764   3.459   4.721   6.399  0.2688 -0.0238  0.4212
   11MOL   O74512765   3.475   4.759   6.511  0.4348  0.1554 -0.2561
   11MOL   H74612766   2.513   4.483   6.534  1.9470 -0.1488  0.5850
   11MOL   H74712767   2.624   4.341   6.513 -0.7900 -0.7250  0.7344
   11MOL   H74812768   2.659   4.472   6.328 -1.0869  0.5105  2.4602
   11MOL   H74912769   2.575   4.341   6.268  0.8259 -0.0154  1.0866
   11MOL   H75012770   2.372   4.494   6.247 -0.4539  0.7439  0.6615
   11MOL   H75112771   2.436   4.622   6.332  3.1255 -0.2128  1.1469
   11MOL   H75212772   2.622   4.633   6.156 -0.3835  0.1529 -0.9064
   11MOL   H75312773   2.524   4.530   6.058  1.5231  0.1701 -0.4266
   11MOL   H75412774   2.443   4.798   6.164  0.8361  0.9570 -0.4735
   11MOL   H75512775   2.337   4.698   6.057 -0.3502  0.0642 -1.5091
   11MOL   H75612776   2.515   4.693   5.877  2.0700 -1.4839  0.7813
   11MOL   H75712777   2.616   4.788   5.984 -0.4818  1.5408  0.5642
   11MOL   H75812778   2.476   4.979   5.955 -1.9873 -0.7754  1.5219
   11MOL   H75912779   2.355   4.876   5.878 -0.2431 -0.5836 -0.9308
   11MOL   H76012780   2.466   4.991   5.699  1.1023  0.8177 -1.0596
   11MOL   H76112781   2.530   4.828   5.702  1.4400  0.3252 -0.4346
   11MOL   H76212782   2.659   5.071   5.846  2.5967  1.1788 -0.8185
   11MOL   H76312783   2.731   4.919   5.834 -1.5447 -0.0019  0.8029
   11MOL   H76412784   2.760   4.916   5.596 -2.6047 -1.3813  1.8051
   11MOL   H76512785   2.671   5.071   5.585  1.1772  0.9310  0.0792
   11MOL   H76612786   3.082   5.217   5.653 -2.4290 -0.6437  0.7710
   11MOL   H76712787   3.146   5.142   5.517  0.0763  1.4797 -0.3322
   11MOL   H76812788   3.275   5.094   5.705  0.2418 -0.6752 -0.2588
   11MOL   H76912789   3.219   4.955   5.630 -1.2432 -0.2154 -2.4236
   11MOL   H77012790   3.051   4.915   5.819 -0.8806  0.1219  2.9752
   11MOL   H77112791   3.083   5.082   5.866  1.9496 -1.3399  4.8442
   11MOL   H77212792   3.308   5.015   5.956  0.0779  1.1688 -2.2061
   11MOL   H77312793   3.293   4.864   5.878 -0.4178 -0.1436 -0.1230
   11MOL   H77412794   3.152   4.960   6.123 -0.8249 -0.2783  0.6038
   11MOL   H77512795   3.082   4.830   6.027 -0.1269  0.5199 -0.3182
   11MOL   H77612796   3.298   4.690   6.082 -0.6073  1.0175 -1.7705
   11MOL   H77712797   3.372   4.827   6.133 -0.6614  1.5382 -0.1991
   11MOL   H77812798   3.133   4.703   6.276  0.9384 -0.9305 -1.0000
   11MOL   H77912799   3.206   4.856   6.324 -0.4695 -0.6616 -0.4396
   11MOL   H78012800   3.268   4.638   6.456 -0.7463  3.4531  0.6905
   11MOL   H78112801   3.335   4.575   6.306  0.2362 -1.2951  1.8261
   11MOL   O78212802   3.555   4.705   6.306 -0.0693 -0.5072  0.3824
   11MOL   C78312803   3.676   4.764   6.317  1.1952 -0.6550 -0.4014
   11MOL   C78412804   3.697   4.855   6.199 -0.7011 -0.2943 -0.7973
   11MOL   C78512805   3.675   4.777   6.062  0.3339  0.4673 -0.3948
   11MOL   C78612806   3.665   4.866   5.942 -0.0999  0.0511 -0.4833
   11MOL   C78712807   3.674   4.799   5.817  0.1973 -0.3881  0.2463
   11MOL   C78812808   3.706   4.891   5.701 -0.0956 -0.3532  0.0952
   11MOL   C78912809   3.600   4.997   5.657 -0.5731 -0.0069 -0.2920
   11MOL   C79012810   3.657   5.084   5.549 -0.6758  0.9832  0.0096
   11MOL   C79112811   3.550   5.194   5.509  0.2697 -0.1038 -0.0602
   11MOL   C79212812   3.600   5.260   5.374 -0.2462  0.2874  0.6197
   11MOL   O79312813   3.504   5.356   5.343 -0.6164 -0.6329  0.5558
   11MOL   C79412814   3.518   5.411   5.231 -0.0380  0.4119 -0.2398
   11MOL   O79512815   3.611   5.402   5.151  0.4855  0.6033  0.2766
   11MOL   C79612816   3.391   5.496   5.196  0.0356  0.3137  0.7246
   11MOL   C79712817   3.293   5.424   5.114  0.0637  0.4250 -0.1842
   11MOL   C79812818   3.209   5.315   5.185 -0.8700 -0.3982  0.7032
   11MOL   C79912819   3.075   5.290   5.120  0.8109  0.2268  0.4530
   11MOL   C80012820   2.984   5.213   5.217  0.2007 -0.2481 -0.3524
   11MOL   C80112821   2.851   5.175   5.150 -0.0947  0.2711 -0.0183
   11MOL   C80212822   2.746   5.125   5.248  0.4263 -0.8571  0.4948
   11MOL   C80312823   2.605   5.118   5.186 -0.0517  0.3050  0.7717
   11MOL   C80412824   2.494   5.062   5.271 -0.4589  0.1058 -0.5272
   11MOL   O80512825   2.515   5.018   5.384 -0.1424  1.0477 -0.3943
   11MOL   H80612826   3.683   4.819   6.411  0.6553  0.1482 -0.8274
   11MOL   H80712827   3.752   4.686   6.328  1.2237 -0.5520  0.1306
   11MOL   H80812828   3.630   4.940   6.207  1.3339  1.2304  0.3131
   11MOL   H80912829   3.788   4.912   6.214 -1.4636  0.9216 -0.7659
   11MOL   H81012830   3.758   4.705   6.059  0.3469  0.4418  0.6428
   11MOL   H81112831   3.590   4.710   6.072  1.1312 -0.4210  0.4788
   11MOL   H81212832   3.572   4.923   5.940  0.7585  1.5392  0.5575
   11MOL   H81312833   3.745   4.940   5.952  0.1455 -0.2147 -0.4695
   11MOL   H81412834   3.583   4.745   5.790  0.7172 -1.4912  0.6611
   11MOL   H81512835   3.747   4.719   5.810  0.0916 -0.5227  0.6995
   11MOL   H81612836   3.735   4.837   5.611 -0.3363 -1.5970  0.7589
   11MOL   H81712837   3.795   4.947   5.728  0.5044 -1.3747  0.2440
   11MOL   H81812838   3.559   5.066   5.730 -0.0501  1.1268 -1.0527
   11MOL   H81912839   3.511   4.951   5.614 -0.3079  0.4645 -1.3605
   11MOL   H82012840   3.686   5.017   5.468 -0.3581 -1.0792  1.7677
   11MOL   H82112841   3.758   5.115   5.576  0.5894  0.2001 -3.5465
   11MOL   H82212842   3.449   5.155   5.498 -0.4929  1.2569  1.8494
   11MOL   H82312843   3.538   5.271   5.585  0.5505  0.6399 -0.7513
   11MOL   H82412844   3.697   5.309   5.383 -0.2512  0.4595 -0.2313
   11MOL   H82512845   3.606   5.184   5.297  1.4061  1.5419 -0.5363
   11MOL   H82612846   3.422   5.582   5.136 -1.7566  1.9163  2.0129
   11MOL   H82712847   3.349   5.531   5.291  0.1713 -0.5679  1.1107
   11MOL   H82812848   3.353   5.384   5.032 -0.8509 -1.6163  0.0968
   11MOL   H82912849   3.236   5.499   5.060  0.2035 -0.1054 -1.0903
   11MOL   H83012850   3.190   5.347   5.288 -0.3631  2.7236 -0.1300
   11MOL   H83112851   3.261   5.220   5.197  2.5116  1.5843  2.5358
   11MOL   H83212852   3.078   5.238   5.024  0.2402 -1.9035  1.5425
   11MOL   H83312853   3.025   5.386   5.105  1.9419  1.0132  1.6346
   11MOL   H83412854   3.023   5.112   5.233 -0.7115 -0.4765  0.4282
   11MOL   H83512855   2.982   5.273   5.307 -1.4116 -0.1161 -0.4599
   11MOL   H83612856   2.813   5.268   5.109 -1.0500 -0.2228 -0.2447
   11MOL   H83712857   2.863   5.108   5.066  1.3921 -0.6777  0.9180
   11MOL   H83812858   2.746   5.189   5.336  0.0577  0.9872 -0.8077
   11MOL   H83912859   2.776   5.025   5.278  2.2101 -0.2097  0.8952
   11MOL   H84012860   2.576   5.221   5.165 -0.0157  0.3399  0.8928
   11MOL   H84112861   2.604   5.049   5.102 -2.6692 -1.8987  2.5361
   11MOL   O84212862   2.373   5.063   5.227 -0.3570 -0.1565  0.3960
   11MOL   C84312863   2.263   5.015   5.298 -0.5466 -0.1559 -0.6468
   11MOL   C84412864   2.127   5.058   5.242 -0.3304  0.4022 -0.7308
   11MOL   C84512865   2.105   5.033   5.088  0.6451 -0.4006 -0.2165
   11MOL   C84612866   1.959   5.042   5.035 -0.2369  0.5053  0.1510
   11MOL   C84712867   1.934   5.018   4.881 -0.1959 -0.3533  0.8975
   11MOL   C84812868   1.786   5.028   4.833 -0.9451  0.3128 -0.3104
   11MOL   C84912869   1.752   5.179   4.813 -0.3660  0.2290  0.2126
   11MOL   C85012870   1.623   5.216   4.744 -0.2764 -0.3149  0.3373
   11MOL   C85112871   1.508   5.176   4.840 -0.1838  0.9744  0.2944
   11MOL   C85212872   1.374   5.219   4.781  0.3321 -0.1080 -0.7656
   11MOL   O85312873   1.261   5.167   4.851 -0.2852 -0.3071  0.7429
   11MOL   C85412874   1.179   5.077   4.788 -0.5774  0.2076 -0.0530
   11MOL   O85512875   1.209   5.019   4.684  0.4611 -0.0343  0.4036
   11MOL   C85612876   1.052   5.063   4.860 -0.2940 -0.4211 -0.3059
   11MOL   C85712877   1.063   5.001   5.000 -0.5386  0.2947  0.3698
   11MOL   C85812878   0.926   4.968   5.062 -0.2010 -0.2820  0.2980
   11MOL   C85912879   0.834   5.095   5.080  0.5016  0.0537  0.8403
   11MOL   C86012880   0.701   5.066   5.147  0.8913 -0.2500  0.1949
   11MOL   C86112881   0.594   5.029   5.040 -0.0298 -0.5986  0.5128
   11MOL   C86212882   0.449   5.048   5.086  0.2914  0.4401 -0.1695
   11MOL   C86312883   0.339   4.977   5.007 -0.5035  0.7998  0.5596
   11MOL   C86412884   0.318   4.830   5.045  0.6829  0.2357  0.0342
   11MOL   O86512885   0.235   4.807   5.132 -0.5974  0.0198 -0.1016
   11MOL   H86612886   2.258   4.908   5.277 -0.8968  0.0009 -1.3715
   11MOL   H86712887   2.274   5.034   5.405  1.1167 -1.6534 -0.5337
   11MOL   H86812888   2.053   4.996   5.293  0.3226 -0.1899 -0.5050
   11MOL   H86912889   2.100   5.161   5.265  0.1579  0.5438 -0.7978
   11MOL   H87012890   2.157   5.113   5.036 -0.0761  1.3500  1.6838
   11MOL   H87112891   2.156   4.944   5.051  2.6854  1.0006 -0.8882
   11MOL   H87212892   1.904   4.963   5.087 -0.3511  1.1899  1.0797
   11MOL   H87312893   1.916   5.142   5.045  1.6353  1.2909  0.4943
   11MOL   H87412894   1.960   4.914   4.862  0.7127  0.1769 -0.8492
   11MOL   H87512895   2.007   5.071   4.820 -0.0890  1.1540  2.3141
   11MOL   H87612896   1.723   4.978   4.907 -0.0967  1.7931  1.4509
   11MOL   H87712897   1.771   4.977   4.739  1.6241 -0.8101 -0.1560
   11MOL   H87812898   1.830   5.216   4.746 -0.0061  1.1238  1.1268
   11MOL   H87912899   1.759   5.238   4.904  1.5802  2.0113 -1.0342
   11MOL   H88012900   1.611   5.151   4.657  1.4771  0.8506 -0.8238
   11MOL   H88112901   1.622   5.323   4.722  2.1971 -0.1716  0.8054
   11MOL   H88212902   1.498   5.071   4.866  0.4844  0.4446 -1.4923
   11MOL   H88312903   1.517   5.222   4.938  0.4733 -1.7095  1.5402
   11MOL   H88412904   1.361   5.327   4.793 -2.0403 -0.0835 -2.9198
   11MOL   H88512905   1.376   5.201   4.674 -1.3710 -2.8764 -0.3776
   11MOL   H88612906   0.997   4.994   4.796 -0.6286 -2.3684  2.0045
   11MOL   H88712907   0.993   5.154   4.853  1.0740  0.4237 -1.1266
   11MOL   H88812908   1.115   5.077   5.057  3.1704 -1.4918 -0.4982
   11MOL   H88912909   1.125   4.912   5.001  0.1613  0.7441 -1.3685
   11MOL   H89012910   0.944   4.928   5.162  0.4127 -0.9307 -0.0709
   11MOL   H89112911   0.872   4.887   5.013 -0.5684 -0.2300  0.6130
   11MOL   H89212912   0.823   5.149   4.986  1.5061 -2.5110 -0.7989
   11MOL   H89312913   0.891   5.172   5.133  0.0376  0.3606  0.8918
   11MOL   H89412914   0.709   4.981   5.215 -1.5752 -1.0080 -0.4190
   11MOL   H89512915   0.671   5.158   5.198  2.0298  0.2199  0.0368
   11MOL   H89612916   0.609   5.086   4.948  2.2342  1.6751  2.2334
   11MOL   H89712917   0.614   4.922   5.027 -2.6246 -0.6450 -4.4062
   11MOL   H89812918   0.440   5.156   5.081  0.6522  0.5008  0.3956
   11MOL   H89912919   0.440   5.020   5.191  1.5900  0.6655  0.0080
   11MOL   H90012920   0.243   5.030   5.010  0.1213  1.9074  1.0698
   11MOL   H90112921   0.363   4.975   4.901 -1.2700 -1.3087  0.3954
   11MOL   O90212922   0.408   4.751   4.990  0.0163  0.0240 -0.2394
   11MOL   C90312923   0.409   4.614   5.013 -0.0629  0.1877 -0.4369
   11MOL   C90412924   0.545   4.564   4.962  0.0249  0.4872  0.6309
   11MOL   C90512925   0.676   4.613   5.029 -0.2341 -0.9555 -0.4767
   11MOL   C90612926   0.706   4.559   5.179  0.1042  0.0017 -0.2995
   11MOL   C90712927   0.821   4.638   5.241  0.0094 -0.0355 -0.2680
   11MOL   C90812928   0.912   4.566   5.347 -0.2505  0.1864  0.6123
   11MOL   C90912929   1.043   4.650   5.386  0.2187 -0.4672  0.2288
   11MOL   C91012930   1.129   4.585   5.494 -0.3525 -0.3088 -0.0922
   11MOL   C91112931   1.231   4.683   5.551  0.6046  0.4826 -0.5600
   11MOL   C91212932   1.297   4.603   5.668 -0.1689 -0.7229  0.0608
   11MOL   O91312933   1.394   4.692   5.723  0.6698 -0.3016 -0.1848
   11MOL   C91412934   1.369   4.756   5.835  0.2829 -0.0513  0.0035
   11MOL   O91512935   1.270   4.741   5.910  0.4487 -0.1148 -0.3659
   11MOL   C91612936   1.475   4.858   5.864 -0.4207 -0.0057  0.0861
   11MOL   C91712937   1.590   4.803   5.941  0.5791  0.0606 -0.4356
   11MOL   C91812938   1.658   4.916   6.016  0.0394 -0.0162  0.9294
   11MOL   C91912939   1.786   4.866   6.085  0.0114  0.1237 -0.7848
   11MOL   C92012940   1.860   4.974   6.158 -0.7197 -0.4713 -0.4835
   11MOL   C92112941   2.006   4.928   6.190  0.1223 -0.0295 -0.6146
   11MOL   C92212942   2.102   5.044   6.192  0.4451 -0.4562  0.5079
   11MOL   C92312943   2.245   5.006   6.229  0.3121 -0.2975  0.6479
   11MOL   C92412944   2.345   5.124   6.262 -0.8327 -0.2064  0.2972
   11MOL   O92512945   2.407   5.125   6.368 -0.3389  0.2191 -0.2217
   11MOL   H92612946   0.398   4.592   5.119 -0.7545  0.7334 -0.3933
   11MOL   H92712947   0.331   4.556   4.964  0.4770 -2.1852  1.4318
   11MOL   H92812948   0.551   4.456   4.979 -0.9178  0.2326 -0.5220
   11MOL   H92912949   0.560   4.585   4.856 -0.5157 -2.4143 -0.0697
   11MOL   H93012950   0.763   4.603   4.965 -1.1431 -3.1400 -1.4254
   11MOL   H93112951   0.672   4.722   5.031 -1.7358 -0.9957 -0.1480
   11MOL   H93212952   0.618   4.559   5.244  0.9129 -0.3850  0.8102
   11MOL   H93312953   0.718   4.451   5.176  1.0490  0.1214 -0.9323
   11MOL   H93412954   0.767   4.724   5.280 -1.1820 -0.9673  0.1717
   11MOL   H93512955   0.878   4.676   5.155 -0.0112  0.0755 -0.2330
   11MOL   H93612956   0.948   4.470   5.311 -3.0806 -1.2343  1.4472
   11MOL   H93712957   0.845   4.549   5.431 -1.1660  2.4271  0.3873
   11MOL   H93812958   1.007   4.749   5.416  1.1741  0.2902 -1.0850
   11MOL   H93912959   1.108   4.668   5.301 -2.5561 -0.4220 -1.9536
   11MOL   H94012960   1.174   4.487   5.479  0.6150  0.0930  0.1735
   11MOL   H94112961   1.066   4.568   5.582 -0.6702  0.3232 -0.1903
   11MOL   H94212962   1.297   4.720   5.473  1.5446  0.5618  0.2586
   11MOL   H94312963   1.176   4.768   5.591 -2.4306 -1.8838  0.5335
   11MOL   H94412964   1.227   4.568   5.743  1.5706  0.9009  2.5192
   11MOL   H94512965   1.355   4.518   5.631 -0.4849 -1.0909  0.4201
   11MOL   H94612966   1.428   4.934   5.926  0.1971  2.3646 -2.2628
   11MOL   H94712967   1.509   4.910   5.774  1.0847 -0.2126  0.5213
   11MOL   H94812968   1.659   4.743   5.881  1.1498  1.5394 -1.2982
   11MOL   H94912969   1.556   4.737   6.021 -0.3114 -0.3704 -1.1680
   11MOL   H95012970   1.586   4.963   6.082 -1.4385  0.6937 -1.1409
   11MOL   H95112971   1.687   4.997   5.950 -1.5360  1.0165  1.4894
   11MOL   H95212972   1.851   4.821   6.010 -1.0036 -1.4884 -0.7315
   11MOL   H95312973   1.756   4.783   6.150 -0.6372 -0.3665 -1.6951
   11MOL   H95412974   1.875   5.058   6.090 -1.0392  0.6354  0.8030
   11MOL   H95512975   1.817   5.017   6.248 -0.2141 -2.6075  0.8146
   11MOL   H95612976   2.002   4.879   6.287 -2.0851  0.2680 -0.5112
   11MOL   H95712977   2.043   4.861   6.112  0.1515  0.2844 -0.8672
   11MOL   H95812978   2.068   5.126   6.256  1.3512 -1.2635  2.0698
   11MOL   H95912979   2.102   5.077   6.088 -1.3426 -2.2718 -0.1054
   11MOL   H96012980   2.234   4.940   6.315 -0.6252 -2.8920 -1.4219
   11MOL   H96112981   2.279   4.942   6.148  0.0297 -1.5527  1.5019
   11MOL   O96212982   2.338   5.219   6.163  0.2653 -0.1415  0.3961
   11MOL   C96312983   2.410   5.340   6.166 -1.1351  0.1488 -0.4658
   11MOL   C96412984   2.311   5.460   6.184 -0.0722  0.4586  0.5030
   11MOL   C96512985   2.249   5.460   6.322  0.0385  0.1337  0.3733
   11MOL   C96612986   2.169   5.590   6.347  0.2752 -0.2440  0.6545
   11MOL   C96712987   2.058   5.578   6.451 -0.5774 -0.3917 -0.4133
   11MOL   C96812988   1.973   5.705   6.493 -0.4627  0.1911 -0.2598
   11MOL   C96912989   1.908   5.705   6.629  0.2033 -0.1792 -0.9598
   11MOL   C97012990   1.805   5.601   6.665  0.6329 -0.5166  0.4680
   11MOL   C97112991   1.737   5.632   6.803 -0.4889  0.5468  0.4503
   11MOL   C97212992   1.636   5.520   6.850  0.0191  0.0844  0.5869
   11MOL   O97312993   1.505   5.553   6.794 -0.3411  0.5213  0.4544
   11MOL   C97412994   1.413   5.460   6.785  0.7805 -0.0450 -0.6449
   11MOL   O97512995   1.417   5.350   6.842  0.1543 -0.1788 -0.3116
   11MOL   C97612996   1.291   5.502   6.697  0.4303  0.5045  0.5744
   11MOL   C97712997   1.312   5.506   6.544  0.1299 -0.3231  0.1817
   11MOL   C97812998   1.412   5.618   6.495  0.3452 -0.2507  0.2123
   11MOL   C97912999   1.413   5.627   6.346  0.5892 -0.3791  0.3664
   11MOL   C98013000   1.513   5.738   6.304  0.0211  0.9254 -0.5718
   11MOL   C98113001   1.535   5.736   6.151  0.0132  1.2485  0.7535
   11MOL   C98213002   1.634   5.846   6.115 -0.8019  0.6060 -0.2575
   11MOL   C98313003   1.680   5.840   5.969  0.2580 -0.3654  0.4143
   11MOL   C98413004   1.777   5.953   5.944  0.1104 -0.2142  0.6747
   11MOL   O98513005   1.894   5.930   5.921  0.0925 -0.5286 -0.9244
   11MOL   H98613006   2.473   5.339   6.255 -0.2411 -0.2353 -1.1011
   11MOL   H98713007   2.475   5.343   6.078 -0.7517 -0.2339 -0.1963
   11MOL   H98813008   2.370   5.550   6.167  1.1442 -0.8651 -2.8102
   11MOL   H98913009   2.233   5.448   6.108  1.5336 -3.0986 -0.6933
   11MOL   H99013010   2.180   5.376   6.311  0.3351  0.1502 -1.7025
   11MOL   H99113011   2.315   5.431   6.404  1.9849 -1.9749 -1.8628
   11MOL   H99213012   2.241   5.669   6.367  1.1389 -0.8693  0.0398
   11MOL   H99313013   2.125   5.607   6.249  0.0818  1.4299  1.0111
   11MOL   H99413014   2.107   5.544   6.542 -0.9479  0.6423  0.1766
   11MOL   H99513015   1.985   5.499   6.431 -0.8827  0.0558 -1.0725
   11MOL   H99613016   1.899   5.722   6.415  1.5798 -0.1282 -2.3225
   11MOL   H99713017   2.043   5.789   6.495 -0.4022  0.1233  0.6551
   11MOL   H99813018   1.853   5.798   6.645  1.5494  0.4166  0.4229
   11MOL   H99913019   1.987   5.701   6.704 -0.3977 -1.1362 -0.3775
   11MOL     H113020   1.852   5.503   6.672  2.4619  0.4198  2.0798
   11MOL     H213021   1.726   5.589   6.592  0.4262 -0.0240  0.6069
   11MOL     H313022   1.814   5.646   6.878 -0.5193 -0.3617  0.6516
   11MOL     H413023   1.681   5.725   6.793 -1.9720 -0.4368 -0.5832
   11MOL     H513024   1.664   5.426   6.804  0.8370 -0.4203  2.0841
   11MOL     H613025   1.634   5.515   6.959 -1.5501 -2.4080  0.4809
   11MOL     H713026   1.264   5.601   6.735 -1.2048  0.2114  0.1985
   11MOL     H813027   1.206   5.435   6.711  1.5004 -0.6924  1.4915
   11MOL     H913028   1.220   5.522   6.489  1.5293  0.8630 -1.8744
   11MOL    H1013029   1.342   5.408   6.507  0.9430  0.3772 -1.0474
   11MOL    H1113030   1.512   5.583   6.520  0.0308 -1.5117 -0.2461
   11MOL    H1213031   1.393   5.714   6.543 -2.2152 -0.6323  0.0465
   11MOL    H1313032   1.316   5.656   6.306  0.6297  3.0392  2.6025
   11MOL    H1413033   1.443   5.532   6.301  1.3195 -0.3149  0.7085
   11MOL    H1513034   1.485   5.837   6.338  0.8326  0.6460  0.9566
   11MOL    H1613035   1.607   5.708   6.351  0.2567 -0.7673 -2.0657
   11MOL    H1713036   1.564   5.638   6.114  1.5324  1.3037  1.7834
   11MOL    H1813037   1.441   5.748   6.097 -1.7614 -4.1065  2.2955
   11MOL    H1913038   1.719   5.845   6.184 -1.1789 -0.6119  0.1973
   11MOL    H2013039   1.579   5.938   6.134 -0.7289  1.1573 -2.6178
   11MOL    H2113040   1.721   5.743   5.939  0.8334 -0.2911  0.9393
   11MOL    H2213041   1.597   5.852   5.900 -0.1779 -3.2664  0.3588
   11MOL    O2313042   1.720   6.070   5.948  0.0496 -0.1083  0.4976
   11MOL    C2413043   1.796   6.194   5.939  0.5530  0.1950 -0.0024
   11MOL    C2513044   1.839   6.257   6.074 -0.1064  0.2974 -0.1701
   11MOL    C2613045   1.939   6.170   6.149  0.3767  0.2241 -0.9646
   11MOL    C2713046   1.977   6.217   6.300 -0.0792  0.4712  0.7488
   11MOL    C2813047   2.073   6.106   6.348 -0.0034  0.3950  0.4057
   11MOL    C2913048   2.174   6.136   6.465  0.7325 -0.5315 -0.1151
   11MOL    C3013049   2.287   6.242   6.432  0.4089 -0.4247  0.1199
   11MOL    C3113050   2.392   6.250   6.544 -0.1151 -0.2449 -0.4044
   11MOL    C3213051   2.489   6.128   6.549  0.2820  0.0424  0.1950
   11MOL    C3313052   2.563   6.113   6.681 -1.5194  0.2589 -0.5912
   11MOL    O3413053   2.682   6.024   6.658 -0.4745 -0.1640  0.0255
   11MOL    C3513054   2.703   5.939   6.753  0.5862  0.2028 -0.5149
   11MOL    O3613055   2.650   5.923   6.863 -0.3757 -0.2465 -0.5947
   11MOL    C3713056   2.814   5.850   6.717  0.4713 -0.3247 -0.1533
   11MOL    C3813057   2.948   5.909   6.683  0.4526 -0.7796  0.3076
   11MOL    C3913058   3.004   6.017   6.785  0.5761  0.5830 -0.0381
   11MOL    C4013059   3.145   6.071   6.752  0.1839 -0.0052 -0.3219
   11MOL    C4113060   3.251   5.949   6.764  0.2072  0.1872 -0.6229
   11MOL    C4213061   3.400   6.000   6.740  0.2470  0.0110  0.0157
   11MOL    C4313062   3.512   5.898   6.702 -0.1257 -0.5968 -0.6140
   11MOL    C4413063   3.506   5.837   6.564  0.0948 -0.5910 -0.0744
   11MOL    C4513064   3.588   5.906   6.459  0.1755 -0.7605 -0.0586
   11MOL    O4613065   3.535   5.941   6.354  0.4442 -1.0935 -0.0928
   11MOL    H4713066   1.877   6.187   5.866 -0.0029  1.0299 -0.7096
   11MOL    H4813067   1.726   6.266   5.899 -0.1515  0.4049  1.5790
   11MOL    H4913068   1.883   6.357   6.067 -0.5560  0.6628  1.9292
   11MOL    H5013069   1.754   6.273   6.140 -1.4231  0.9717 -1.9819
   11MOL    H5113070   1.893   6.072   6.158 -4.2462  2.2930 -0.2267
   11MOL    H5213071   2.028   6.169   6.086  0.8530 -1.3494 -0.2709
   11MOL    H5313072   2.026   6.314   6.310 -0.8113  0.8560  0.6334
   11MOL    H5413073   1.891   6.233   6.366 -0.0220  0.0864  0.9166
   11MOL    H5513074   2.132   6.062   6.267  1.3066  1.1340  0.9315
   11MOL    H5613075   2.009   6.022   6.371 -0.6695  0.9972  0.7924
   11MOL    H5713076   2.223   6.048   6.505 -1.5026 -1.6846  0.1311
   11MOL    H5813077   2.134   6.170   6.560 -0.0971 -1.0752 -0.2732
   11MOL    H5913078   2.237   6.339   6.423 -0.0629 -0.6236  0.6209
   11MOL    H6013079   2.333   6.226   6.334  1.0330 -2.0134  0.6611
   11MOL    H6113080   2.338   6.265   6.637  0.6753 -0.2972  0.0656
   11MOL    H6213081   2.458   6.335   6.527  0.9370 -1.3528 -2.0629
   11MOL    H6313082   2.435   6.033   6.544 -0.7813  0.5717  1.2770
   11MOL    H6413083   2.554   6.141   6.463 -1.1960  0.8049 -0.8328
   11MOL    H6513084   2.597   6.213   6.705 -2.4295  0.9229 -1.9864
   11MOL    H6613085   2.486   6.068   6.744 -1.1533  1.5902  0.7986
   11MOL    H6713086   2.786   5.776   6.641  0.3902 -0.0270 -0.4123
   11MOL    H6813087   2.840   5.792   6.806 -0.6192 -0.3285  0.1652
   11MOL    H6913088   2.949   5.937   6.578 -2.4208  0.2351  0.5128
   11MOL    H7013089   3.031   5.838   6.682  2.3935  1.4084 -1.3278
   11MOL    H7113090   2.991   5.979   6.886  0.5351  0.1372 -0.2092
   11MOL    H7213091   2.937   6.102   6.787 -0.3122 -0.1283  1.4015
   11MOL    H7313092   3.165   6.154   6.819  0.6815 -0.7762  0.4908
   11MOL    H7413093   3.142   6.104   6.649 -1.2062  1.5728  0.2101
   11MOL    H7513094   3.235   5.894   6.856 -4.3095  1.4464 -0.5356
   11MOL    H7613095   3.227   5.881   6.682 -0.5726  0.5792 -0.7196
   11MOL    H7713096   3.412   6.073   6.660  0.2426  0.8781  0.7946
   11MOL    H7813097   3.428   6.053   6.831 -1.6664 -0.9232  1.1940
   11MOL    H7913098   3.488   5.814   6.768 -2.7736  0.1339 -0.5799
   11MOL    H8013099   3.604   5.950   6.728 -0.5931  0.2752 -0.6895
   11MOL    H8113100   3.564   5.747   6.581  1.4900  0.3185  0.0267
   11MOL    H8213101   3.409   5.811   6.522 -1.2082 -0.1535  2.5002
   11MOL    O8313102   3.715   5.915   6.488  0.2939  0.2890  0.2538
   11MOL    C8413103   3.799   5.987   6.393  0.2440 -0.5090 -0.0200
   11MOL    C8513104   3.851   6.120   6.450 -0.0679 -0.9932  0.0723
   11MOL    C8613105   3.762   6.239   6.414  0.4426  0.9424 -0.3643
   11MOL    C8713106   3.816   6.375   6.459  0.4650  0.1688  0.2514
   11MOL    C8813107   3.723   6.505   6.432  0.3868  0.8980  0.8950
   11MOL    C8913108   3.620   6.524   6.545 -0.1881 -0.3432  0.1977
   11MOL    C9013109   3.523   6.639   6.497  0.1721  0.3844  0.7157
   11MOL    C9113110   3.409   6.662   6.599 -0.1822  0.2190 -0.3057
   11MOL    C9213111   3.316   6.789   6.557 -0.0283 -0.1623 -0.1395
   11MOL    C9313112   3.206   6.827   6.654  0.7403 -0.2031  0.3280
   11MOL    O9413113   3.275   6.870   6.773 -0.3502  0.1867  0.1590
   11MOL    C9513114   3.207   6.922   6.880 -0.1503 -0.1339  0.2056
   11MOL    O9613115   3.088   6.952   6.884  0.4296 -0.2231  0.7627
   11MOL    C9713116   3.290   6.930   7.004 -0.2856  0.0927  0.2835
   11MOL    C9813117   3.375   6.812   7.020  0.2019 -0.4523  0.4040
   11MOL    C9913118   3.392   6.766   7.165  0.9063  0.3769 -0.0091
   11MOL   C10013119   3.482   6.644   7.183  0.5781 -0.3765 -0.2188
   11MOL   C10113120   3.493   6.614   7.338  0.5437 -0.6314  0.2911
   11MOL   C10213121   3.596   6.510   7.368 -0.1196 -0.5302  0.4488
   11MOL   C10313122   3.600   6.440   7.503  0.0524 -0.5923  0.5888
   11MOL   C10413123   3.506   6.314   7.512 -0.5180  0.3901  0.3710
   11MOL   C10513124   3.358   6.342   7.518 -0.9280  0.2769  0.7710
   11MOL   O10613125   3.312   6.381   7.623 -0.3826 -0.0572  0.8592
   11MOL   H10713126   3.883   5.925   6.362 -0.2142 -0.3356 -1.6958
   11MOL   H10813127   3.747   5.999   6.298 -1.9581 -1.2445  1.0642
   11MOL   H10913128   3.874   6.112   6.556 -1.9228  0.6520  0.6180
   11MOL   H11013129   3.945   6.127   6.395  0.6976 -0.2165  1.4470
   11MOL   H11113130   3.728   6.233   6.311  1.9923  2.3681 -0.9785
   11MOL   H11213131   3.664   6.237   6.463 -0.4025  2.5418 -1.9103
   11MOL   H11313132   3.845   6.371   6.564  0.5090  0.4204  0.2500
   11MOL   H11413133   3.911   6.400   6.411 -0.0361  0.6203 -0.5134
   11MOL   H11513134   3.676   6.499   6.333  1.7758 -2.8681  0.3737
   11MOL   H11613135   3.795   6.587   6.431  1.1866  0.2277 -2.0108
   11MOL   H11713136   3.671   6.551   6.637  1.1723  1.6354 -1.0940
   11MOL   H11813137   3.565   6.431   6.562 -1.8861  0.7448  0.7140
   11MOL   H11913138   3.479   6.625   6.398 -0.6425 -0.1389  1.1487
   11MOL   H12013139   3.578   6.733   6.487  1.5840 -0.5597 -0.7368
   11MOL   H12113140   3.466   6.686   6.689  0.7869 -3.2178  0.0452
   11MOL   H12213141   3.347   6.573   6.608  2.5765 -1.7258 -0.0441
   11MOL   H12313142   3.386   6.873   6.555 -2.1509  1.7803  2.3924
   11MOL   H12413143   3.283   6.774   6.454 -0.8037  0.8248 -0.0430
   11MOL   H12513144   3.141   6.912   6.630 -1.0827 -1.3742  0.9776
   11MOL   H12613145   3.138   6.746   6.680  1.4136 -0.3064  1.8137
   11MOL   H12713146   3.225   6.937   7.091  1.8153 -1.5994  2.0471
   11MOL   H12813147   3.353   7.019   7.006  2.7583 -1.9829  0.9549
   11MOL   H12913148   3.471   6.829   6.971 -0.4591 -0.3702 -0.8688
   11MOL   H13013149   3.334   6.724   6.971  3.7673 -1.7215 -0.4756
   11MOL   H13113150   3.295   6.744   7.208 -0.6977  2.3703 -2.4683
   11MOL   H13213151   3.439   6.852   7.212 -1.6870  0.3240  2.7736
   11MOL   H13313152   3.580   6.653   7.136  1.7162  1.1607  2.3596
   11MOL   H13413153   3.452   6.551   7.135 -1.0256  0.5418 -1.0450
   11MOL   H13513154   3.514   6.704   7.396  0.4650  0.8588 -1.8878
   11MOL   H13613155   3.404   6.561   7.370  0.1529  0.6692  1.4306
   11MOL   H13713156   3.577   6.425   7.302  0.6484 -1.1627  1.0226
   11MOL   H13813157   3.692   6.556   7.346  0.0472 -1.3664 -0.6457
   11MOL   H13913158   3.576   6.511   7.583 -0.2769 -0.9568  0.8161
   11MOL   H14013159   3.704   6.423   7.529 -0.1302 -4.3654 -0.8660
   11MOL   H14113160   3.526   6.247   7.429 -3.1845  1.6702 -1.4213
   11MOL   H14213161   3.529   6.257   7.602 -0.3136 -1.6291 -0.9484
   11MOL   O14313162   3.291   6.313   7.399 -0.0357  0.0336  0.0236
   11MOL   C14413163   3.154   6.336   7.394  0.0247  0.0453  0.4546
   11MOL   C14513164   3.112   6.482   7.356 -0.3691 -0.2127  0.0883
   11MOL   C14613165   2.957   6.493   7.354 -0.3353  0.0957 -0.3948
   11MOL   C14713166   2.906   6.616   7.423 -0.2487 -0.2473  0.4815
   11MOL   C14813167   2.936   6.628   7.576  0.2183  0.0296  0.6144
   11MOL   C14913168   2.851   6.739   7.637  0.0811 -0.1226 -1.0711
   11MOL   C15013169   2.873   6.764   0.029 -0.5088 -0.9023 -0.1850
   11MOL   C15113170   2.801   6.891   0.086  0.1832 -0.0582 -0.1758
   11MOL   C15213171   2.869   7.030   0.042 -0.4603 -0.0413  0.5654
   11MOL   C15313172   2.800   7.156   0.100  0.2050 -0.8816  0.4666
   11MOL   O15413173   2.796   7.145   0.239  0.8114  0.1793  0.0775
   11MOL   C15513174   2.715   7.223   0.308 -0.5158  0.1795 -0.1896
   11MOL   O15613175   2.618   7.283   0.268 -0.2035 -0.1573  0.3386
   11MOL   C15713176   2.745   7.231   0.455  0.0736  0.3775  0.0352
   11MOL   C15813177   2.684   7.130   0.544 -0.2731 -0.1495  0.6945
   11MOL   C15913178   2.755   6.988   0.540  0.2286  0.2088  1.0254
   11MOL   C16013179   2.704   6.902   0.657 -0.4005  0.0834 -0.0302
   11MOL   C16113180   2.776   6.768   0.640  0.2371 -0.3923 -0.3700
   11MOL   C16213181   2.728   6.671   0.748  0.3004  0.2609  0.2236
   11MOL   C16313182   2.818   6.538   0.748  0.3625  0.3510 -0.1363
   11MOL   C16413183   2.762   6.442   0.851  0.0192  0.4041 -0.2729
   11MOL   C16513184   2.657   6.342   0.801  0.0225 -0.7457 -0.6071
   11MOL   O16613185   2.586   6.369   0.707 -0.0539 -0.0842  0.0226
   11MOL   H16713186   3.107   6.270   7.322  1.0970 -0.2636  0.0154
   11MOL   H16813187   3.122   6.297   7.490 -0.8451 -1.7942 -0.5500
   11MOL   H16913188   3.151   6.554   7.428 -1.1003  1.6336 -1.3069
   11MOL   H17013189   3.144   6.518   7.258 -0.8333 -0.2369 -0.0771
   11MOL   H17113190   2.932   6.480   7.249 -0.2584 -2.3967 -0.1352
   11MOL   H17213191   2.909   6.413   7.410 -0.8342  0.1492 -0.7448
   11MOL   H17313192   2.956   6.701   7.377 -0.9151  0.1573  0.4967
   11MOL   H17413193   2.801   6.638   7.401  0.5988  3.0929 -0.6028
   11MOL   H17513194   3.042   6.642   7.601  0.0394 -1.3924  2.2405
   11MOL   H17613195   2.914   6.533   7.623 -1.0516 -0.1828 -0.3962
   11MOL   H17713196   2.747   6.707   7.637  0.4002 -1.3227  1.4723
   11MOL   H17813197   2.857   6.831   7.579  0.4523  0.4918 -0.0732
   11MOL   H17913198   2.974   6.778   0.067 -1.0424  1.0867  0.5776
   11MOL   H18013199   2.827   6.681   0.082 -5.2494  2.1009  0.7372
   11MOL   H18113200   2.811   6.898   0.195 -1.7452 -0.2105  0.0127
   11MOL   H18213201   2.695   6.893   0.061  0.6407  0.2756 -2.1874
   11MOL   H18313202   2.972   7.036   0.077  0.1959  0.9420 -1.4713
   11MOL   H18413203   2.862   7.037   7.690 -0.6437  0.1723  0.5906
   11MOL   H18513204   2.858   7.243   0.071 -2.2183  1.8914  3.5350
   11MOL   H18613205   2.699   7.159   0.059 -0.8601 -0.2199  3.0537
   11MOL   H18713206   2.719   7.328   0.499 -0.4713  0.5494 -0.6539
   11MOL   H18813207   2.852   7.220   0.470 -0.1594  0.5223  1.8953
   11MOL   H18913208   2.578   7.112   0.525 -0.8533  2.1590  1.5104
   11MOL   H19013209   2.673   7.168   0.646  0.1933  1.3495  0.2029
   11MOL   H19113210   2.863   7.000   0.548  0.1842 -0.7033  3.7293
   11MOL   H19213211   2.742   6.946   0.440  3.5754 -0.5717  0.8621
   11MOL   H19313212   2.597   6.884   0.647 -0.1297 -2.4199  1.1843
   11MOL   H19413213   2.735   6.946   0.752  0.4163  1.5450 -0.9530
   11MOL   H19513214   2.748   6.739   0.539  0.6632  0.5498 -0.7651
   11MOL   H19613215   2.882   6.789   0.656 -0.0319  0.8089 -0.0848
   11MOL   H19713216   2.736   6.718   0.846 -2.6090  1.9694 -0.3105
   11MOL   H19813217   2.623   6.649   0.728 -0.0594  1.5275  0.6692
   11MOL   H19913218   2.923   6.558   0.770  0.9369 -1.8116 -0.6883
   11MOL   H20013219   2.830   6.498   0.647 -0.1723  0.2681 -0.1682
   11MOL   H20113220   2.850   6.387   0.883  1.3348  1.3689 -2.1243
   11MOL   H20213221   2.724   6.485   0.944  1.3030  1.8789 -0.4074
   11MOL   H20313222   2.656   6.255   0.867  0.9855  0.4969  1.0889
   12MOL     O113223   2.389   5.550   2.201  0.5581  0.3890  0.7005
   12MOL     C213224   2.419   5.647   2.297 -0.2191  0.1777 -0.1442
   12MOL     C313225   2.315   5.657   2.410 -0.5121 -0.1220  0.0620
   12MOL     C413226   2.375   5.720   2.536 -0.2722  0.3875  0.2173
   12MOL     C513227   2.275   5.765   2.641 -0.0003  0.4731  0.1719
   12MOL     C613228   2.330   5.819   2.778  0.0597 -0.5270  0.4025
   12MOL     C713229   2.368   5.719   2.885 -0.1488 -0.4218 -0.6436
   12MOL     C813230   2.467   5.782   2.987 -0.1509  0.1603  0.2893
   12MOL     C913231   2.478   5.688   3.110  0.0102  1.0326  0.3254
   12MOL    C1013232   2.571   5.568   3.093 -0.4461  0.3143 -0.6390
   12MOL    C1113233   2.584   5.469   3.214  0.0247 -0.1727 -0.0400
   12MOL    O1213234   2.460   5.395   3.251 -0.0592 -0.7753 -0.5125
   12MOL    C1313235   2.442   5.334   3.370 -0.2058  0.3782  0.0800
   12MOL    O1413236   2.517   5.349   3.470  0.3427 -0.2775 -0.2596
   12MOL    C1513237   2.307   5.250   3.386  0.2124 -0.5262  0.6358
   12MOL    C1613238   2.190   5.348   3.415 -0.0651  0.7396 -0.7701
   12MOL    C1713239   2.054   5.273   3.423  0.2813 -0.1434  0.6017
   12MOL    C1813240   1.977   5.322   3.539 -0.6123 -0.2988  0.6960
   12MOL    C1913241   1.840   5.260   3.555  0.2788  0.3431  0.4577
   12MOL    C2013242   1.774   5.293   3.684 -0.5925 -0.4980  0.2974
   12MOL    C2113243   1.794   5.202   3.806 -0.6700  0.4312 -0.7290
   12MOL    C2213244   1.736   5.264   3.927  0.0416 -0.5624 -0.0108
   12MOL    C2313245   1.837   5.366   3.991  0.4426  0.2457  0.2314
   12MOL    O2413246   1.803   5.486   3.989 -0.0107 -0.8636  0.4032
   12MOL    H2513247   2.517   5.615   2.331 -0.5126  0.7777  1.2792
   12MOL    H2613248   2.441   5.748   2.264  0.4874  0.1119  0.1173
   12MOL    H2713249   2.235   5.723   2.376 -0.3608  0.3084  0.5547
   12MOL    H2813250   2.267   5.559   2.420  0.2120 -0.4590  0.2098
   12MOL    H2913251   2.440   5.643   2.578  1.4989  1.4330 -0.5106
   12MOL    H3013252   2.441   5.802   2.505 -2.5696  2.3842  0.4417
   12MOL    H3113253   2.197   5.825   2.594 -0.2979  0.2996  0.4430
   12MOL    H3213254   2.210   5.684   2.673  0.9805  0.2472  1.6416
   12MOL    H3313255   2.279   5.903   2.825  2.3515  0.6900  0.7838
   12MOL    H3413256   2.425   5.856   2.740 -0.2990 -0.5600 -0.5360
   12MOL    H3513257   2.412   5.633   2.835 -0.3739 -1.2845  0.6107
   12MOL    H3613258   2.270   5.700   2.930  0.6633  0.0722  1.3678
   12MOL    H3713259   2.435   5.883   3.013 -4.1334 -1.0792  0.5341
   12MOL    H3813260   2.564   5.807   2.943 -0.2664 -1.6650 -1.0922
   12MOL    H3913261   2.376   5.666   3.140  0.3977  0.3592  1.1659
   12MOL    H4013262   2.511   5.744   3.197  1.6678 -3.6246  2.9145
   12MOL    H4113263   2.534   5.497   3.019 -1.3639  2.1750 -1.9875
   12MOL    H4213264   2.672   5.595   3.061 -0.0602  1.8915  1.7897
   12MOL    H4313265   2.664   5.396   3.204 -1.0945 -1.0729 -3.1464
   12MOL    H4413266   2.601   5.530   3.303  0.8542  1.1177 -1.0701
   12MOL    H4513267   2.316   5.184   3.472  1.2337 -1.4110 -0.1421
   12MOL    H4613268   2.297   5.190   3.295  1.0918 -1.9695  1.4801
   12MOL    H4713269   2.178   5.441   3.360 -0.5616  1.0964 -0.0664
   12MOL    H4813270   2.213   5.383   3.516 -1.7424  1.6095 -0.6844
   12MOL    H4913271   2.057   5.164   3.418 -3.0037 -0.3933  2.7064
   12MOL    H5013272   2.004   5.297   3.329  0.3867 -0.8186  0.3705
   12MOL    H5113273   1.963   5.429   3.533  0.9298 -0.1192 -0.0366
   12MOL    H5213274   2.029   5.311   3.635  0.9243  0.7634  0.0067
   12MOL    H5313275   1.787   5.305   3.472  1.2656 -2.8117 -1.9851
   12MOL    H5413276   1.846   5.155   3.528 -1.4950  0.6799 -1.2612
   12MOL    H5513277   1.797   5.397   3.706 -0.2165 -0.4184 -0.4680
   12MOL    H5613278   1.668   5.295   3.660 -0.2139  1.5374 -1.3186
   12MOL    H5713279   1.901   5.187   3.823 -0.9396 -0.2561  0.4312
   12MOL    H5813280   1.751   5.102   3.800 -0.7584  0.4532 -0.4790
   12MOL    H5913281   1.644   5.319   3.904  0.7841  0.5535 -0.3585
   12MOL    H6013282   1.701   5.196   4.005 -0.6696  1.3610  1.3865
   12MOL    H6113283   2.440   5.574   2.125  2.1836 -1.8328  1.0182
   12MOL    O6213284   1.951   5.311   4.034 -0.2743 -0.1949 -0.0757
   12MOL    C6313285   2.072   5.384   4.044  0.2286 -0.3637  0.2971
   12MOL    C6413286   2.157   5.351   4.171 -0.1272  0.1558  0.3262
   12MOL    C6513287   2.283   5.445   4.172  0.2900 -0.2089  0.0313
   12MOL    C6613288   2.395   5.402   4.269 -0.6129  0.0170 -0.2452
   12MOL    C6713289   2.504   5.511   4.267 -0.8290 -0.2096 -0.1646
   12MOL    C6813290   2.636   5.472   4.324 -0.6712 -0.3394 -0.2445
   12MOL    C6913291   2.723   5.593   4.371 -0.1496 -0.0662 -0.1124
   12MOL    C7013292   2.696   5.634   4.513 -0.3050  0.2811  0.2199
   12MOL    C7113293   2.753   5.768   4.556 -0.5705 -0.3975 -0.3500
   12MOL    C7213294   2.896   5.803   4.514 -0.2449  1.1514 -0.4666
   12MOL    O7313295   2.985   5.715   4.582 -0.1241  0.7662 -0.0434
   12MOL    C7413296   3.032   5.738   4.701 -0.1693 -0.7553 -0.3556
   12MOL    O7513297   3.043   5.850   4.756  0.0499 -0.2354 -0.6799
   12MOL    C7613298   3.077   5.609   4.774 -0.1221  0.6253  0.3005
   12MOL    C7713299   2.946   5.519   4.800 -0.1259 -0.3292  0.1332
   12MOL    C7813300   2.859   5.565   4.914 -0.3618 -0.0955  0.1987
   12MOL    C7913301   2.720   5.498   4.914  0.4360 -0.3808 -0.1784
   12MOL    C8013302   2.639   5.533   5.034  0.9696 -0.0396 -0.1472
   12MOL    C8113303   2.507   5.470   5.025  0.6014  0.3015  0.4776
   12MOL    C8213304   2.406   5.496   5.132  0.5538 -0.2961  1.1239
   12MOL    C8313305   2.284   5.402   5.124 -0.5960 -0.0868 -0.1795
   12MOL    C8413306   2.165   5.454   5.198  0.4361  0.1154 -0.1426
   12MOL    O8513307   2.138   5.421   5.314 -0.7167  0.1061 -0.2205
   12MOL    H8613308   2.141   5.369   3.961  0.2958  1.6211 -0.0294
   12MOL    H8713309   2.053   5.490   4.059  2.6701  0.2959 -1.0306
   12MOL    H8813310   2.098   5.364   4.261 -0.9340 -2.0152  0.1460
   12MOL    H8913311   2.191   5.247   4.181  0.0529  0.1480 -0.3424
   12MOL    H9013312   2.323   5.450   4.071  2.2116 -1.0138  0.7238
   12MOL    H9113313   2.254   5.548   4.195  0.6628 -0.2286  0.6159
   12MOL    H9213314   2.351   5.374   4.365 -0.2974  0.8732  0.1537
   12MOL    H9313315   2.436   5.308   4.233  0.5601  0.5443 -0.2886
   12MOL    H9413316   2.460   5.598   4.316 -0.1943 -0.8478  1.5898
   12MOL    H9513317   2.519   5.532   4.161 -0.6136 -0.2499 -0.1419
   12MOL    H9613318   2.679   5.403   4.251 -1.6122 -0.1512 -0.9775
   12MOL    H9713319   2.616   5.412   4.413 -0.3449 -0.0670  0.0124
   12MOL    H9813320   2.709   5.675   4.301  2.1444 -0.2663 -0.8516
   12MOL    H9913321   2.825   5.561   4.349 -0.3802 -1.7891  1.2087
   12MOL   H10013322   2.733   5.552   4.576  1.3484 -0.3382 -1.5205
   12MOL   H10113323   2.590   5.631   4.540 -0.0328  0.2399  1.3005
   12MOL   H10213324   2.694   5.847   4.511 -3.2038 -1.3395  1.3293
   12MOL   H10313325   2.748   5.780   4.664 -1.5948 -1.1729 -0.3087
   12MOL   H10413326   2.923   5.797   4.408 -1.5327  1.1388 -0.8051
   12MOL   H10513327   2.919   5.906   4.538 -0.6264  1.4149 -1.2239
   12MOL   H10613328   3.120   5.639   4.869 -0.8789  0.5887  0.6537
   12MOL   H10713329   3.141   5.558   4.702  0.4284  2.6062 -0.6825
   12MOL   H10813330   2.965   5.414   4.820  0.5435 -0.5458 -1.5562
   12MOL   H10913331   2.896   5.527   4.703  0.6342 -2.5175 -0.4685
   12MOL   H11013332   2.846   5.673   4.922  0.4087  0.1330 -1.2853
   12MOL   H11113333   2.910   5.540   5.007 -2.9430  2.1031  2.2914
   12MOL   H11213334   2.722   5.392   4.891  1.8155 -0.3176 -0.4022
   12MOL   H11313335   2.683   5.534   4.819  1.0470 -0.4508 -0.4483
   12MOL   H11413336   2.691   5.493   5.122  5.0812 -0.0996 -2.4912
   12MOL   H11513337   2.638   5.642   5.034 -2.3393 -0.0146 -0.5130
   12MOL   H11613338   2.453   5.513   4.941 -1.7312  2.1911  2.8459
   12MOL   H11713339   2.525   5.363   5.018  0.8844  0.5034 -2.3319
   12MOL   H11813340   2.373   5.599   5.128 -0.3902 -0.5906  1.2411
   12MOL   H11913341   2.460   5.482   5.226  2.8278  1.6536  0.1734
   12MOL   H12013342   2.255   5.381   5.021 -0.8458  1.5651 -0.4620
   12MOL   H12113343   2.319   5.308   5.167 -2.0869 -0.3491  0.4933
   12MOL   O12213344   2.085   5.530   5.117  0.2347 -0.0912  0.1458
   12MOL   C12313345   1.956   5.569   5.154 -0.2105  0.1343 -0.5278
   12MOL   C12413346   1.891   5.653   5.042 -0.0458  0.7884  0.0483
   12MOL   C12513347   1.857   5.565   4.921  0.4608 -0.1194 -0.0469
   12MOL   C12613348   1.842   5.654   4.800  0.0801 -0.4801  0.4989
   12MOL   C12713349   1.813   5.572   4.674 -0.2673  0.1797 -0.0622
   12MOL   C12813350   1.829   5.655   4.553 -0.0657  0.4524  0.3775
   12MOL   C12913351   1.811   5.577   4.425  0.0474 -0.2220  0.2666
   12MOL   C13013352   1.804   5.648   4.294  0.9564  0.2986  0.6205
   12MOL   C13113353   1.936   5.717   4.256  0.2437 -0.3700 -0.4316
   12MOL   C13213354   1.928   5.777   4.118  0.1598  0.1098  0.2822
   12MOL   O13313355   2.032   5.864   4.114  0.3819 -0.7968  0.5156
   12MOL   C13413356   2.140   5.831   4.045  0.3535  0.0630 -0.1520
   12MOL   O13513357   2.138   5.742   3.958  0.1069  0.5854 -0.0437
   12MOL   C13613358   2.250   5.933   4.055  0.2476  0.5176 -0.0807
   12MOL   C13713359   2.338   5.909   4.183 -0.5989 -0.4294 -0.5359
   12MOL   C13813360   2.280   5.937   4.324 -0.2966  0.5996  0.2003
   12MOL   C13913361   2.398   5.940   4.431  0.3551  0.8482  0.1764
   12MOL   C14013362   2.351   5.915   4.579 -0.4081  0.1186 -0.3688
   12MOL   C14113363   2.270   5.790   4.586 -0.3654 -0.9543 -0.4457
   12MOL   C14213364   2.283   5.727   4.724 -0.0905  0.8240  0.2721
   12MOL   C14313365   2.191   5.603   4.744  0.1399 -0.6280 -0.5426
   12MOL   C14413366   2.243   5.477   4.693 -0.1146  0.2092 -0.3673
   12MOL   O14513367   2.190   5.428   4.591 -0.2700  1.2095  0.1363
   12MOL   H14613368   1.900   5.477   5.170  1.8190 -0.8265  1.3649
   12MOL   H14713369   1.954   5.646   5.231 -1.5288 -1.9330  1.5832
   12MOL   H14813370   1.799   5.701   5.074 -0.5573 -1.4869  2.0883
   12MOL   H14913371   1.953   5.737   5.008  0.1149  0.3859 -0.6729
   12MOL   H15013372   1.935   5.490   4.906 -0.5866 -1.0018 -1.1640
   12MOL   H15113373   1.765   5.507   4.929  0.1201  0.2898 -0.9813
   12MOL   H15213374   1.757   5.718   4.822  0.0382 -0.3913  0.0880
   12MOL   H15313375   1.929   5.719   4.793 -0.6231  0.4760  0.5512
   12MOL   H15413376   1.713   5.529   4.688 -0.3133  0.1832 -0.3777
   12MOL   H15513377   1.888   5.493   4.672 -0.7647 -0.2979 -0.2089
   12MOL   H15613378   1.926   5.704   4.552 -1.7280  3.8955 -0.4001
   12MOL   H15713379   1.753   5.734   4.553 -2.6016 -1.8441 -2.4999
   12MOL   H15813380   1.711   5.536   4.440  0.1499 -1.0362 -1.2549
   12MOL   H15913381   1.883   5.496   4.418  0.4026  0.1993 -1.1032
   12MOL   H16013382   1.734   5.731   4.297  0.8205  0.2255 -0.3036
   12MOL   H16113383   1.773   5.598   4.202  3.6788  1.6729 -1.1088
   12MOL   H16213384   1.965   5.788   4.333  0.6521 -1.9142  0.8540
   12MOL   H16313385   2.018   5.645   4.246  0.9067  0.2218  0.6805
   12MOL   H16413386   1.919   5.694   4.048 -0.0634 -0.3019  0.8044
   12MOL   H16513387   1.840   5.839   4.099  1.6758  1.3339 -3.1990
   12MOL   H16613388   2.214   6.034   4.038  1.2152  0.6607 -1.3550
   12MOL   H16713389   2.303   5.918   3.961 -0.1356  1.4082 -0.4473
   12MOL   H16813390   2.417   5.981   4.164  3.1938 -4.3837 -0.4545
   12MOL   H16913391   2.384   5.810   4.184 -0.4245 -0.3454  0.5044
   12MOL   H17013392   2.205   5.864   4.356  1.2352 -1.9492 -1.8641
   12MOL   H17113393   2.222   6.029   4.316 -0.4295  0.4036 -1.2468
   12MOL   H17213394   2.454   6.032   4.416 -0.7629  1.3966 -0.6884
   12MOL   H17313395   2.461   5.853   4.411  1.0333  1.6401 -1.2566
   12MOL   H17413396   2.444   5.898   4.634  1.2415 -1.3849 -3.5288
   12MOL   H17513397   2.293   5.999   4.618 -3.3253 -1.6127 -0.9094
   12MOL   H17613398   2.166   5.807   4.560 -0.3556 -0.0081  0.1151
   12MOL   H17713399   2.315   5.723   4.512  0.5921  0.4754 -1.1771
   12MOL   H17813400   2.242   5.798   4.795 -0.5910  1.4142 -0.6112
   12MOL   H17913401   2.387   5.705   4.751  0.6176 -0.1988 -3.0267
   12MOL   H18013402   2.152   5.600   4.845 -0.1997  1.6267 -0.5711
   12MOL   H18113403   2.100   5.622   4.688  0.3867  1.1716 -0.3621
   12MOL   O18213404   2.349   5.436   4.750  0.1749  0.1303  0.2533
   12MOL   C18313405   2.409   5.316   4.724 -0.0419  0.1438 -0.0218
   12MOL   C18413406   2.346   5.198   4.801  0.6200  0.4078 -0.2052
   12MOL   C18513407   2.411   5.061   4.768  0.0156  0.0137 -0.0231
   12MOL   C18613408   2.361   4.941   4.855  0.2662 -0.1442  0.0482
   12MOL   C18713409   2.399   4.808   4.788 -0.4443 -0.0268 -0.7059
   12MOL   C18813410   2.378   4.688   4.874  0.5710 -0.1119 -0.1319
   12MOL   C18913411   2.411   4.553   4.811 -0.1156 -0.6520  0.1587
   12MOL   C19013412   2.437   4.438   4.914 -0.1451 -0.2242 -0.0252
   12MOL   C19113413   2.464   4.302   4.850 -0.4434  0.4483 -0.1107
   12MOL   C19213414   2.474   4.186   4.949 -0.5083 -0.5558 -0.0260
   12MOL   O19313415   2.601   4.198   5.016 -0.2011 -0.0988 -0.1519
   12MOL   C19413416   2.608   4.248   5.141 -0.0868 -0.5667 -0.6387
   12MOL   O19513417   2.507   4.284   5.203 -0.0159 -0.2438 -0.3879
   12MOL   C19613418   2.743   4.225   5.213 -0.2599 -0.4938  1.1426
   12MOL   C19713419   2.746   4.074   5.240  0.1458  0.1746  1.3253
   12MOL   C19813420   2.888   4.024   5.285  0.1243  0.1399  0.5224
   12MOL   C19913421   2.887   3.878   5.327  0.1066  0.2002  0.3202
   12MOL   C20013422   3.016   3.826   5.373 -0.0282 -0.0050  0.2265
   12MOL   C20113423   3.116   3.783   5.264 -0.1731 -0.6687 -0.4399
   12MOL   C20213424   3.076   3.681   5.162 -0.3412 -0.0550 -0.0877
   12MOL   C20313425   3.018   3.549   5.221  0.2741  1.3304  0.4456
   12MOL   C20413426   3.121   3.453   5.269 -0.2878  0.3939  0.0057
   12MOL   O20513427   3.122   3.424   5.387 -0.8543  0.2782 -0.2484
   12MOL   H20613428   2.411   5.309   4.615 -0.1016 -1.5980  0.0697
   12MOL   H20713429   2.510   5.328   4.762  0.3129  1.2824 -1.2854
   12MOL   H20813430   2.362   5.210   4.908 -0.4680 -0.5561  0.0810
   12MOL   H20913431   2.239   5.192   4.778  0.2327  1.0639  1.3247
   12MOL   H21013432   2.415   5.042   4.660 -1.0689  2.8386 -0.6047
   12MOL   H21113433   2.514   5.080   4.798 -0.6867  1.2729  1.6755
   12MOL   H21213434   2.396   4.948   4.958 -0.3505  0.8786  0.1930
   12MOL   H21313435   2.252   4.943   4.863  0.2866 -1.2433  0.7065
   12MOL   H21413436   2.499   4.797   4.747 -0.9736 -1.7186 -1.6381
   12MOL   H21513437   2.333   4.803   4.701 -1.2776 -1.0915 -0.0307
   12MOL   H21613438   2.275   4.690   4.911  1.1039  1.5195  1.3479
   12MOL   H21713439   2.432   4.699   4.968  0.9728 -0.8390 -0.2802
   12MOL   H21813440   2.510   4.573   4.771 -0.1153 -0.9921 -0.0049
   12MOL   H21913441   2.337   4.518   4.739  0.1955 -0.5557 -0.2070
   12MOL   H22013442   2.347   4.429   4.975  0.1522  2.5575  0.8654
   12MOL   H22113443   2.512   4.478   4.982 -1.4517  2.5895 -0.1629
   12MOL   H22213444   2.375   4.286   4.790 -0.2651  0.0258 -0.2657
   12MOL   H22313445   2.542   4.313   4.774  0.1767 -0.3498  0.3963
   12MOL   H22413446   2.388   4.192   5.016  1.2445  0.4940  2.1880
   12MOL   H22513447   2.473   4.089   4.899  1.5598  0.2905 -1.8338
   12MOL   H22613448   2.757   4.279   5.306 -1.1643 -0.9562  1.5632
   12MOL   H22713449   2.811   4.257   5.134  0.6730 -3.1066  0.8264
   12MOL   H22813450   2.710   4.021   5.152 -0.5617  0.3205  1.5241
   12MOL   H22913451   2.668   4.040   5.308 -0.2169  0.3108  0.9786
   12MOL   H23013452   2.943   4.091   5.351  1.4875  2.8257 -3.1264
   12MOL   H23113453   2.959   4.030   5.203 -0.0080  0.2055  0.4131
   12MOL   H23213454   2.850   3.824   5.240  0.0191  0.6821  0.0563
   12MOL   H23313455   2.808   3.864   5.401 -0.4238 -1.9197 -0.6224
   12MOL   H23413456   3.064   3.892   5.445  0.2014  0.2367 -0.1510
   12MOL   H23513457   2.995   3.739   5.435 -0.2013 -1.0700 -1.2934
   12MOL   H23613458   3.153   3.875   5.218 -1.6433 -1.0023 -2.3315
   12MOL   H23713459   3.205   3.739   5.311 -1.0108 -2.0235 -0.0897
   12MOL   H23813460   3.171   3.665   5.111 -0.3880  0.1932 -0.2524
   12MOL   H23913461   3.004   3.720   5.091  0.5543  2.7317  0.4581
   12MOL   H24013462   2.931   3.561   5.285  0.5739  3.0867  0.5334
   12MOL   H24113463   2.976   3.498   5.134 -1.4154  1.5435  1.1257
   12MOL   O24213464   3.205   3.418   5.177  0.6209 -0.0687  0.1603
   12MOL   C24313465   3.316   3.337   5.209 -0.4281 -0.5872 -0.4058
   12MOL   C24413466   3.428   3.423   5.270  0.2338  0.1731  0.0589
   12MOL   C24513467   3.546   3.331   5.326 -0.6492  0.0364  0.2056
   12MOL   C24613468   3.651   3.410   5.407  0.0123  0.5139 -0.6459
   12MOL   C24713469   3.758   3.464   5.313  0.2147  0.8456  0.0506
   12MOL   C24813470   3.849   3.563   5.392  0.1956 -0.1543 -0.3661
   12MOL   C24913471   3.955   3.634   5.306  0.5238 -0.0912 -0.3225
   12MOL   C25013472   4.022   3.738   5.384  0.0942  0.5489 -0.1794
   12MOL   C25113473   4.147   3.794   5.316 -0.3221 -0.1218  0.0550
   12MOL   C25213474   4.226   3.891   5.404 -0.4399  0.3776 -0.2041
   12MOL   O25313475   4.136   3.974   5.483 -0.1022 -0.4226 -0.3389
   12MOL   C25413476   4.063   4.074   5.434  0.3826 -0.4047 -0.6006
   12MOL   O25513477   4.049   4.104   5.316 -0.9154  0.2221  0.5942
   12MOL   C25613478   3.983   4.149   5.547 -0.4534  0.2021 -0.4355
   12MOL   C25713479   3.902   4.065   5.649  0.3114  0.4317  0.5152
   12MOL   C25813480   3.991   4.037   5.773  0.4782  1.1746 -0.3454
   12MOL   C25913481   3.915   3.953   5.879  0.2727  0.2008  0.0167
   12MOL   C26013482   3.796   4.037   5.933  0.1289  0.9047  0.3195
   12MOL   C26113483   3.733   3.977   6.062 -0.0945  0.4558  0.2090
   12MOL   C26213484   3.579   4.001   6.059 -0.6980  0.1954  0.4302
   12MOL   C26313485   3.506   3.932   6.180 -0.4279  0.7523  0.1127
   12MOL   C26413486   3.357   3.924   6.177 -0.4291  1.1873 -0.0996
   12MOL   O26513487   3.293   3.985   6.090 -0.0976  0.1952 -0.2829
   12MOL   H26613488   3.287   3.266   5.287  1.6512 -3.5078 -2.2092
   12MOL   H26713489   3.348   3.275   5.126  0.7377 -1.3036  0.5622
   12MOL   H26813490   3.469   3.498   5.201  1.4411 -1.3577 -0.9213
   12MOL   H26913491   3.389   3.485   5.351 -1.6673 -0.9750  0.0275
   12MOL   H27013492   3.503   3.258   5.394  1.4560  2.1882  4.0464
   12MOL   H27113493   3.584   3.266   5.247  1.6418  0.5364  0.8482
   12MOL   H27213494   3.607   3.488   5.469  1.2535  0.4864  0.2953
   12MOL   H27313495   3.700   3.330   5.464 -0.5528 -2.3281 -3.9929
   12MOL   H27413496   3.716   3.507   5.222 -0.9033 -1.7637 -0.7053
   12MOL   H27513497   3.807   3.375   5.275 -2.8700 -1.0961  0.4038
   12MOL   H27613498   3.900   3.495   5.461  0.8220  1.5882  0.9426
   12MOL   H27713499   3.793   3.636   5.450  0.5791  0.7787 -1.1376
   12MOL   H27813500   3.915   3.674   5.213 -0.1077 -0.0964 -0.0562
   12MOL   H27913501   4.030   3.560   5.282 -0.7734 -2.0059  1.3690
   12MOL   H28013502   4.057   3.697   5.479 -0.4598 -0.1822 -0.2912
   12MOL   H28113503   3.949   3.817   5.400  0.3062  0.6133  0.5062
   12MOL   H28213504   4.208   3.710   5.283  0.5057 -0.0576  1.3973
   12MOL   H28313505   4.127   3.842   5.220 -1.0745  1.6604  1.0983
   12MOL   H28413506   4.306   3.839   5.457  1.5307  3.2305 -0.2224
   12MOL   H28513507   4.290   3.947   5.336 -0.7413 -0.1236 -0.9077
   12MOL   H28613508   3.922   4.229   5.506  1.1215  2.1233  0.9002
   12MOL   H28713509   4.061   4.205   5.598 -0.6819 -0.6068  0.8135
   12MOL   H28813510   3.848   3.980   5.610  0.5642  0.5688 -0.1560
   12MOL   H28913511   3.831   4.138   5.688  0.6957  1.2671 -0.3217
   12MOL   H29013512   4.033   4.128   5.815 -0.8526  0.9092  1.6170
   12MOL   H29113513   4.080   3.985   5.736  0.0915  1.6135 -1.9607
   12MOL   H29213514   3.969   3.924   5.970  0.3478 -1.9266 -0.6822
   12MOL   H29313515   3.897   3.852   5.841 -2.4235  0.9685 -0.8354
   12MOL   H29413516   3.818   4.143   5.944 -0.2842  1.0112  0.1046
   12MOL   H29513517   3.724   4.050   5.853 -2.5413  1.7175  2.7326
   12MOL   H29613518   3.751   3.870   6.052 -2.0837 -0.0421  1.6242
   12MOL   H29713519   3.782   4.001   6.156 -2.2125 -2.2259  2.0638
   12MOL   H29813520   3.531   3.981   5.963  0.9842 -2.0753  0.0302
   12MOL   H29913521   3.565   4.109   6.067 -1.2313  0.1817 -0.2753
   12MOL   H30013522   3.543   3.829   6.181 -1.3289  0.3867 -2.0970
   12MOL   H30113523   3.540   3.974   6.275 -0.2247 -1.1326  0.9033
   12MOL   O30213524   3.308   3.835   6.255  0.0739 -0.4183 -0.4365
   12MOL   C30313525   3.171   3.806   6.265  0.4884  0.2270  0.7672
   12MOL   C30413526   3.125   3.721   6.149  0.3007 -0.3472  0.5622
   12MOL   C30513527   3.223   3.613   6.099  0.0032  0.1591 -0.0529
   12MOL   C30613528   3.238   3.491   6.197  0.0306  0.0364 -0.0282
   12MOL   C30713529   3.296   3.361   6.133 -0.7212 -0.2403 -0.7641
   12MOL   C30813530   3.311   3.229   6.212 -0.8498  0.5417  0.1966
   12MOL   C30913531   3.388   3.121   6.124  0.2746 -0.0203  0.3708
   12MOL   C31013532   3.370   2.986   6.183 -0.0586  0.6629  0.1568
   12MOL   C31113533   3.403   2.870   6.087 -0.2117  0.4537 -0.3066
   12MOL   C31213534   3.415   2.730   6.154 -0.1809 -0.2088  0.2281
   12MOL   O31313535   3.294   2.692   6.199  0.4379  0.1343  0.2599
   12MOL   C31413536   3.227   2.595   6.147  0.1625  0.0836  0.1294
   12MOL   O31513537   3.257   2.544   6.040  0.3037 -0.1211  0.1237
   12MOL   C31613538   3.113   2.543   6.233  0.1921 -0.4051  0.5419
   12MOL   C31713539   3.011   2.650   6.277  0.6065  0.0270  0.4705
   12MOL   C31813540   2.880   2.641   6.191 -0.1517  0.2860 -0.7325
   12MOL   C31913541   2.765   2.554   6.244  0.0411 -0.1636  0.2014
   12MOL   C32013542   2.713   2.606   6.386 -0.2276  0.4645  0.2035
   12MOL   C32113543   2.611   2.500   6.430 -0.6002  0.0097  0.0611
   12MOL   C32213544   2.568   2.526   6.577 -0.0778 -0.1798  0.4080
   12MOL   C32313545   2.498   2.406   6.652  0.0726  0.0452 -0.4411
   12MOL   C32413546   2.357   2.375   6.606  0.1261 -0.1834  0.2485
   12MOL   O32513547   2.286   2.308   6.677 -0.0833  0.2502  0.5022
   12MOL   H32613548   3.168   3.754   6.360  0.6130  0.0803  0.6918
   12MOL   H32713549   3.116   3.900   6.275 -1.5903 -0.9572  0.7485
   12MOL   H32813550   3.018   3.699   6.153  0.0605 -0.0589 -3.0278
   12MOL   H32913551   3.121   3.779   6.057  0.7212 -0.1112  0.6937
   12MOL   H33013552   3.179   3.576   6.006 -3.0688  3.4372 -0.0450
   12MOL   H33113553   3.325   3.648   6.086 -0.3405  1.9506  1.7208
   12MOL   H33213554   3.283   3.527   6.290  0.5599  0.7265 -0.5465
   12MOL   H33313555   3.139   3.470   6.239  0.1340  0.5557  0.4805
   12MOL   H33413556   3.394   3.382   6.089 -0.8406  0.0617 -0.8879
   12MOL   H33513557   3.234   3.351   6.044  1.0392 -2.3478 -1.8081
   12MOL   H33613558   3.217   3.189   6.251 -1.0867  1.0552  0.1581
   12MOL   H33713559   3.376   3.259   6.294  1.1325 -1.6452 -0.5342
   12MOL   H33813560   3.495   3.137   6.110  0.4741  0.4518  2.3180
   12MOL   H33913561   3.347   3.123   6.023 -0.8136  0.2781  0.8080
   12MOL   H34013562   3.269   2.978   6.225 -0.1529 -3.9411 -0.7193
   12MOL   H34113563   3.435   2.975   6.270  0.6019  0.4652 -0.3577
   12MOL   H34213564   3.330   2.876   6.005  0.4585  0.5809 -0.9008
   12MOL   H34313565   3.502   2.878   6.042 -0.2879  0.5418 -0.4592
   12MOL   H34413566   3.466   2.656   6.093 -0.0725  0.2829 -0.2861
   12MOL   H34513567   3.480   2.733   6.241  0.4955 -0.2281 -0.2742
   12MOL   H34613568   3.159   2.498   6.320 -0.2301 -2.6686 -0.3754
   12MOL   H34713569   3.062   2.460   6.184  3.9328 -2.3897 -0.1414
   12MOL   H34813570   3.054   2.750   6.279  2.3363 -0.7082  0.3648
   12MOL   H34913571   2.983   2.647   6.382 -1.6460 -1.7302 -0.1180
   12MOL   H35013572   2.906   2.598   6.094  1.7460  0.5145 -0.3363
   12MOL   H35113573   2.837   2.740   6.181  1.0070  1.0746  1.8256
   12MOL   H35213574   2.791   2.448   6.242 -1.3373 -0.5090 -0.2430
   12MOL   H35313575   2.681   2.561   6.175  0.7673  0.8619 -0.5917
   12MOL   H35413576   2.795   2.601   6.458 -0.0872 -0.5254 -0.0106
   12MOL   H35513577   2.677   2.708   6.376  1.4608  1.0440 -0.1096
   12MOL   H35613578   2.521   2.520   6.371 -0.2272 -0.3280 -0.6224
   12MOL   H35713579   2.635   2.396   6.411 -1.2457 -0.0545 -0.4404
   12MOL   H35813580   2.518   2.622   6.583  0.4885  0.1132  0.3981
   12MOL   H35913581   2.659   2.533   6.635  1.6780  1.4753 -2.4196
   12MOL   H36013582   2.557   2.318   6.626 -1.4155 -0.9934 -0.3593
   12MOL   H36113583   2.496   2.424   6.760  2.7212  0.8077 -0.4652
   12MOL   O36213584   2.318   2.433   6.498 -0.2672 -0.4326  0.6200
   12MOL   C36313585   2.182   2.431   6.458  0.8808 -0.1354  0.3239
   12MOL   C36413586   2.114   2.559   6.503 -0.4584  0.6047 -0.2183
   12MOL   C36513587   1.958   2.562   6.485 -0.0085  0.1060 -0.6653
   12MOL   C36613588   1.894   2.695   6.534  0.2795  0.1013 -0.1884
   12MOL   C36713589   1.745   2.699   6.525 -0.1789 -0.3049  0.4037
   12MOL   C36813590   1.694   2.833   6.574 -0.7144 -0.0195  0.4340
   12MOL   C36913591   1.536   2.831   6.566 -0.4340 -0.1912  0.0832
   12MOL   C37013592   1.486   2.922   6.672 -0.3885 -0.5946 -0.1663
   12MOL   C37113593   1.455   2.854   6.798  0.3017 -0.1381 -0.1916
   12MOL   C37213594   1.410   2.964   6.914  0.8353 -0.5120  0.3230
   12MOL   O37313595   1.316   3.062   6.867 -0.0495 -0.4937 -0.4148
   12MOL   C37413596   1.187   3.033   6.858 -1.0587 -0.2175  0.2509
   12MOL   O37513597   1.142   2.924   6.880  0.5466  0.0482 -0.6023
   12MOL   C37613598   1.091   3.147   6.830  0.0156  0.1914  0.0538
   12MOL   C37713599   1.140   3.254   6.734  0.3536  0.4321 -0.2582
   12MOL   C37813600   1.144   3.203   6.584 -0.1844  0.9109  0.3418
   12MOL   C37913601   1.197   3.304   6.479 -0.0467  0.3656  0.4246
   12MOL   C38013602   1.353   3.318   6.482  0.4629 -0.8913 -0.4214
   12MOL   C38113603   1.410   3.357   6.348 -0.1394 -0.3532 -0.0911
   12MOL   C38213604   1.559   3.396   6.354 -0.4790 -0.7277 -0.0140
   12MOL   C38313605   1.659   3.281   6.387 -1.2904  0.3329 -0.0306
   12MOL   C38413606   1.695   3.187   6.273 -0.1459 -0.1069  0.5914
   12MOL   O38513607   1.612   3.114   6.218 -0.0263 -0.5100  0.3611
   12MOL   H38613608   2.186   2.440   6.350 -1.8926  0.3657  0.2294
   12MOL   H38713609   2.124   2.340   6.474  0.0855  0.2075 -0.5765
   12MOL   H38813610   2.130   2.580   6.609 -0.3264  0.0292 -0.1227
   12MOL   H38913611   2.158   2.641   6.446  0.7477  0.2970  0.2576
   12MOL   H39013612   1.936   2.555   6.378 -1.9790 -0.4498 -0.2424
   12MOL   H39113613   1.905   2.479   6.532  0.9853 -0.1955 -0.0671
   12MOL   H39213614   1.926   2.711   6.637  1.1366 -1.3986 -0.2098
   12MOL   H39313615   1.943   2.776   6.480 -2.3273  0.1693 -2.5840
   12MOL   H39413616   1.707   2.615   6.584 -1.9550  0.4217  0.3158
   12MOL   H39513617   1.718   2.682   6.421 -0.7769  1.7572  0.2076
   12MOL   H39613618   1.724   2.913   6.506 -2.8819 -0.9474 -1.6766
   12MOL   H39713619   1.731   2.849   6.675 -0.6459  1.5748  0.1630
   12MOL   H39813620   1.494   2.733   6.590  0.8004  0.0532  3.5907
   12MOL   H39913621   1.500   2.865   6.469 -0.5213 -0.4365  0.0279
   12MOL   H40013622   1.390   2.955   6.631 -0.8715 -2.6323 -0.7566
   12MOL   H40113623   1.543   3.014   6.680 -2.0244  0.4249  0.1983
   12MOL   H40213624   1.379   2.776   6.798 -0.4609  0.5644  1.7941
   12MOL   H40313625   1.542   2.800   6.834 -0.4829 -0.3413  1.4278
   12MOL   H40413626   1.355   2.907   6.989 -0.7836  0.3280 -0.2012
   12MOL   H40513627   1.494   3.024   6.948  0.1118  0.3292  0.6238
   12MOL   H40613628   1.077   3.189   6.929  2.1109 -0.1358  0.5220
   12MOL   H40713629   0.990   3.113   6.805 -0.2937 -0.2187  1.8286
   12MOL   H40813630   1.239   3.287   6.766  0.6238 -1.8485  1.3645
   12MOL   H40913631   1.073   3.341   6.740  0.5206  0.4614  1.4095
   12MOL   H41013632   1.039   3.180   6.566 -0.6406 -0.9332  4.7737
   12MOL   H41113633   1.194   3.106   6.575 -0.9210  0.4293  1.3889
   12MOL   H41213634   1.151   3.401   6.500  0.5233  0.5431  0.8829
   12MOL   H41313635   1.171   3.275   6.377 -1.7649 -0.6412  1.1282
   12MOL   H41413636   1.367   3.391   6.562  1.1187 -1.7522  0.2671
   12MOL   H41513637   1.391   3.221   6.515  0.7106 -0.4092  0.7172
   12MOL   H41613638   1.400   3.273   6.279 -0.2294  0.5587 -1.2051
   12MOL   H41713639   1.348   3.434   6.303 -3.4871 -1.9431  1.6545
   12MOL   H41813640   1.565   3.475   6.429 -0.7452 -0.8399  0.1246
   12MOL   H41913641   1.601   3.436   6.262 -0.9306 -2.4787 -0.9929
   12MOL   H42013642   1.750   3.332   6.418 -1.1497  0.2587 -0.3232
   12MOL   H42113643   1.627   3.212   6.465  0.5347 -1.7301 -1.0495
   12MOL   O42213644   1.821   3.188   6.227  0.4930 -0.2129 -0.7170
   12MOL   C42313645   1.870   3.088   6.143  0.6415 -1.0487  0.5747
   12MOL   C42413646   1.959   2.992   6.222 -0.1641 -0.1986 -0.2087
   12MOL   C42513647   2.102   3.032   6.266  0.3742 -1.0136  0.1210
   12MOL   C42613648   2.178   2.927   6.351  0.2676  0.2825 -0.0169
   12MOL   C42713649   2.330   2.955   6.359  0.5940  0.1277  0.2985
   12MOL   C42813650   2.372   3.059   6.461 -0.0065 -0.2196 -0.2210
   12MOL   C42913651   2.522   3.088   6.463 -0.2469 -0.7221  0.8063
   12MOL   C43013652   2.559   3.189   6.577  0.1901  0.2928  0.3937
   12MOL   C43113653   2.546   3.130   6.718  0.1971 -0.2329  0.1139
   12MOL   C43213654   2.612   3.229   6.819 -0.3033  0.1275 -0.1268
   12MOL   O43313655   2.649   3.183   6.951 -0.3270 -0.2453 -0.1364
   12MOL   C43413656   2.705   3.265   7.036  0.5824 -0.1777 -1.2699
   12MOL   O43513657   2.694   3.389   7.033 -0.1837 -0.2370 -0.0839
   12MOL   C43613658   2.772   3.186   7.153 -0.1355 -0.2293  0.6512
   12MOL   C43713659   2.841   3.280   7.260 -0.0173  0.2659  0.0598
   12MOL   C43813660   2.753   3.322   7.368  0.0161  0.3417  0.3272
   12MOL   C43913661   2.727   3.213   7.478 -0.4674 -0.7097  0.0594
   12MOL   C44013662   2.651   3.269   7.601 -0.3318  0.3397  0.6024
   12MOL   C44113663   2.502   3.317   7.572 -0.7246  0.1241 -0.3820
   12MOL   C44213664   2.432   3.356   7.703 -0.0269  0.1635  0.2655
   12MOL   C44313665   2.374   3.233   0.019  0.1810  0.2324 -0.0054
   12MOL   C44413666   2.272   3.270   0.132 -0.4740  0.2397  0.6196
   12MOL   O44513667   2.213   3.377   0.125 -0.1107  0.2959  0.4387
   12MOL   H44613668   1.790   3.036   6.090  0.2887  0.8078 -0.7323
   12MOL   H44713669   1.940   3.125   6.068 -3.4436  0.8515 -2.4714
   12MOL   H44813670   1.902   2.942   6.300  1.6239 -1.5888  0.2392
   12MOL   H44913671   1.975   2.911   6.151  2.1333 -0.7609  0.9265
   12MOL   H45013672   2.154   3.044   6.170 -0.1319  0.5999  0.0401
   12MOL   H45113673   2.110   3.123   6.325  1.6372 -2.2565  1.9068
   12MOL   H45213674   2.149   2.939   6.455  1.0159 -0.2241  0.2568
   12MOL   H45313675   2.165   2.825   6.314 -0.3432  0.7469 -1.0874
   12MOL   H45413676   2.363   2.991   6.262 -0.0332 -0.2715 -0.0690
   12MOL   H45513677   2.381   2.863   6.386 -0.0303 -0.1075  0.7057
   12MOL   H45613678   2.340   3.028   6.561  2.6380  0.7861  0.9914
   12MOL   H45713679   2.318   3.153   6.453 -1.2377 -1.0672 -2.2654
   12MOL   H45813680   2.554   3.133   6.369  1.3805  0.5153  1.9112
   12MOL   H45913681   2.573   2.992   6.468 -0.0589 -0.8182 -2.0363
   12MOL   H46013682   2.495   3.278   6.572  0.6685  0.5774 -0.9918
   12MOL   H46113683   2.665   3.209   6.562  0.1576 -0.6852 -1.1990
   12MOL   H46213684   2.447   3.126   6.763 -0.3465  2.8930 -0.6950
   12MOL   H46313685   2.581   3.026   6.721 -0.8293 -0.5558  2.7285
   12MOL   H46413686   2.705   3.262   6.773  0.8663 -2.5638  0.2055
   12MOL   H46513687   2.552   3.320   6.820 -1.2826 -0.4971 -0.6904
   12MOL   H46613688   2.848   3.124   7.106 -0.5989  0.2619 -0.7599
   12MOL   H46713689   2.696   3.121   7.197  0.1386 -0.5842  0.6054
   12MOL   H46813690   2.874   3.365   7.201  1.3452  1.1108  2.0094
   12MOL   H46913691   2.933   3.231   7.291  0.7398  1.0726 -0.8900
   12MOL   H47013692   2.654   3.339   7.325 -0.2841  1.0593  1.2510
   12MOL   H47113693   2.788   3.419   7.405  0.1986  0.7829 -0.9911
   12MOL   H47213694   2.821   3.176   7.519  0.2003  0.3848 -0.4455
   12MOL   H47313695   2.672   3.126   7.443  0.9755 -1.6115 -0.0149
   12MOL   H47413696   2.647   3.189   7.675 -1.6921 -1.2521 -1.1608
   12MOL   H47513697   2.714   3.349   7.641  1.7450 -0.7331 -0.4068
   12MOL   H47613698   2.510   3.391   7.492  0.5426  0.0181 -0.3698
   12MOL   H47713699   2.438   3.237   7.534 -1.8030  0.2538  1.1275
   12MOL   H47813700   2.352   3.426   7.677 -0.7230 -0.4804  0.6367
   12MOL   H47913701   2.501   3.407   0.014  1.8224 -1.6012 -0.2341
   12MOL   H48013702   2.323   3.152   7.723 -1.4478  2.0775 -1.3635
   12MOL   H48113703   2.459   3.184   0.066 -0.0794 -1.3683 -1.1554
   12MOL   O48213704   2.253   3.175   0.228 -0.2624  0.1637  0.4375
   12MOL   C48313705   2.155   3.195   0.327 -0.1848 -0.3403 -0.0398
   12MOL   C48413706   2.005   3.166   0.283 -0.0781  0.3076  0.1825
   12MOL   C48513707   1.898   3.222   0.386 -0.1896 -0.0695 -0.2619
   12MOL   C48613708   1.753   3.182   0.357  0.0190  0.1477 -0.4394
   12MOL   C48713709   1.691   3.245   0.236  0.1803 -0.1105 -0.0200
   12MOL   C48813710   1.543   3.209   0.201 -0.2260 -0.2453 -0.4107
   12MOL   C48913711   1.488   3.271   0.066  0.4308 -1.1200  0.8183
   12MOL   C49013712   1.339   3.229   0.039  0.0476  0.4392 -0.2181
   12MOL   C49113713   1.293   3.304   7.665  0.1902  0.4898  0.5833
   12MOL   C49213714   1.139   3.291   7.647  0.1110 -1.0384 -0.4829
   12MOL   O49313715   1.114   3.151   7.662 -0.2539  0.3127 -0.1414
   12MOL   C49413716   1.017   3.095   7.595 -0.1562  0.8377 -0.5982
   12MOL   O49513717   0.954   3.151   7.507  0.2147  0.1310  0.1143
   12MOL   C49613718   0.984   2.947   7.623  0.6862 -0.4650 -0.1432
   12MOL   C49713719   1.102   2.850   7.611  0.3115 -0.0460 -0.0950
   12MOL   C49813720   1.117   2.783   7.475 -0.4214  0.1919  0.8340
   12MOL   C49913721   1.249   2.703   7.463 -0.1639 -0.3586  0.1120
   12MOL   C50013722   1.253   2.604   7.348  0.1719  0.1809  0.0665
   12MOL   C50113723   1.382   2.515   7.335 -0.2908  0.0351 -0.2538
   12MOL   C50213724   1.503   2.605   7.302  0.0282 -0.3841  0.3571
   12MOL   C50313725   1.620   2.506   7.274 -0.0899 -0.2973  0.3123
   12MOL   C50413726   1.757   2.573   7.250 -0.5136 -1.1194 -0.0986
   12MOL   O50513727   1.855   2.531   7.307 -0.4708  0.4590  0.6670
   12MOL   H50613728   2.184   3.135   0.413  3.1739  2.9531  1.2647
   12MOL   H50713729   2.165   3.300   0.357  0.2603 -1.0227  2.3366
   12MOL   H50813730   1.976   3.223   0.194  0.0500  0.7511  0.4240
   12MOL   H50913731   1.988   3.058   0.274  0.9992  0.2285 -1.0632
   12MOL   H51013732   1.922   3.192   0.488 -0.8993 -2.4037 -0.7584
   12MOL   H51113733   1.902   3.331   0.391 -0.2015 -0.1537  3.4275
   12MOL   H51213734   1.735   3.074   0.351  0.7510 -0.0592  1.0006
   12MOL   H51313735   1.691   3.214   0.440 -0.2703  0.1435 -0.6503
   12MOL   H51413736   1.737   3.210   0.144 -0.4885 -0.1340 -0.3486
   12MOL   H51513737   1.699   3.352   0.219 -0.8639  0.1271  0.9117
   12MOL   H51613738   1.482   3.241   0.286 -0.6705  1.1327 -1.2382
   12MOL   H51713739   1.526   3.102   0.194  0.4837 -0.5145  1.6415
   12MOL   H51813740   1.551   3.246   7.738  0.2231  0.7270  0.0858
   12MOL   H51913741   1.500   3.378   0.086  0.0323 -1.0697  0.8003
   12MOL   H52013742   1.272   3.253   0.121 -2.4752 -2.7190 -1.2480
   12MOL   H52113743   1.336   3.121   0.024 -1.5451  0.2625  1.3270
   12MOL   H52213744   1.327   3.408   7.662  0.5384  0.3496 -1.5228
   12MOL   H52313745   1.349   3.258   7.583  1.2948  0.0714  1.5663
   12MOL   H52413746   1.090   3.338   7.733 -1.1827  0.3145 -1.9177
   12MOL   H52513747   1.097   3.334   7.556 -1.0077  1.9276  1.3473
   12MOL   H52613748   0.895   2.931   7.563  1.1225  1.9564 -1.5042
   12MOL   H52713749   0.953   2.947   7.728 -1.9908  1.5913 -0.8876
   12MOL   H52813750   1.083   2.770   7.681  1.0448 -0.1029  0.0437
   12MOL   H52913751   1.190   2.899   7.652  0.6506  0.8263 -1.7909
   12MOL   H53013752   1.118   2.857   7.396  0.6195 -1.2450 -0.5374
   12MOL   H53113753   1.030   2.719   7.460 -0.5017  0.0695  1.7884
   12MOL   H53213754   1.278   2.658   7.557 -1.6406 -0.8468  0.3350
   12MOL   H53313755   1.334   2.772   7.454 -1.0685  0.6102 -1.4416
   12MOL   H53413756   1.179   2.525   7.362  0.6440 -0.4559 -0.9929
   12MOL   H53513757   1.233   2.661   7.257  0.2131  0.6922  0.3759
   12MOL   H53613758   1.401   2.449   7.419 -0.1918 -0.1856 -0.4489
   12MOL   H53713759   1.374   2.447   7.250  0.5114 -0.6870  0.2423
   12MOL   H53813760   1.531   2.662   7.391 -1.9478 -0.8397  1.2944
   12MOL   H53913761   1.486   2.672   7.218  0.8416  0.6676  1.0048
   12MOL   H54013762   1.622   2.437   7.358 -0.5068 -1.9745 -1.0300
   12MOL   H54113763   1.601   2.441   7.189 -2.3045  2.0536 -1.0888
   12MOL   O54213764   1.757   2.681   7.174 -0.0275  0.9269  0.3297
   12MOL   C54313765   1.873   2.726   7.109 -0.5968 -0.5062 -0.1765
   12MOL   C54413766   1.876   2.879   7.122  0.4048 -0.7505 -0.1680
   12MOL   C54513767   1.755   2.959   7.058  1.0568  0.1353  0.2241
   12MOL   C54613768   1.769   3.110   7.071  0.6738 -0.0379  0.1485
   12MOL   C54713769   1.667   3.189   6.995  0.2572  0.9615  0.2470
   12MOL   C54813770   1.692   3.343   7.010  0.0917  0.3188  0.0564
   12MOL   C54913771   1.618   3.424   6.902  0.2658 -0.0420 -0.1837
   12MOL   C55013772   1.467   3.401   6.902  0.0119 -0.3299 -0.1112
   12MOL   C55113773   1.401   3.485   7.021  0.7360  0.7565 -0.0613
   12MOL   C55213774   1.262   3.438   7.057 -0.0071 -0.2024  0.0175
   12MOL   O55313775   1.245   3.305   7.099 -0.4105  0.1083  0.2239
   12MOL   C55413776   1.209   3.270   7.230  0.4979 -0.3866 -1.2311
   12MOL   O55513777   1.194   3.339   7.335 -0.2104  0.1049  0.1841
   12MOL   C55613778   1.213   3.118   7.234  0.0133  0.6872 -0.1902
   12MOL   C55713779   1.354   3.055   7.244 -0.0712  0.6313 -0.1372
   12MOL   C55813780   1.420   3.069   7.383 -0.0172  0.1994  0.6768
   12MOL   C55913781   1.551   2.999   7.390 -0.7152 -0.5611  0.2607
   12MOL   C56013782   1.610   2.994   7.535  0.0466 -0.0999  0.8830
   12MOL   C56113783   1.761   2.978   7.549  0.5542 -0.0044 -0.5076
   12MOL   C56213784   1.815   2.999   7.689  0.8025 -0.4132  0.1276
   12MOL   C56313785   1.966   3.019   7.700 -0.3647  0.0963  0.1803
   12MOL   C56413786   2.024   3.140   7.630  0.5374  0.0854  0.3181
   12MOL   O56513787   2.116   3.134   7.547  0.0270 -0.0453 -0.4042
   12MOL   H56613788   1.961   2.704   7.170  0.2580  3.1801  0.0364
   12MOL   H56713789   1.866   2.685   7.009 -2.0845  2.1529 -1.2016
   12MOL   H56813790   1.874   2.905   7.227  2.0200  2.4599 -0.8584
   12MOL   H56913791   1.973   2.916   7.089  0.4029 -1.0622 -0.5296
   12MOL   H57013792   1.737   2.924   6.956 -0.9565  0.3750  0.4745
   12MOL   H57113793   1.658   2.924   7.094  0.2073  0.6429 -1.5084
   12MOL   H57213794   1.790   3.148   7.171 -2.9599  0.2119  0.8704
   12MOL   H57313795   1.864   3.131   7.021  1.7794 -2.0348  1.3398
   12MOL   H57413796   1.571   3.183   7.046 -0.7599  1.7025 -1.5023
   12MOL   H57513797   1.668   3.175   6.887  0.8044 -0.3425  0.4197
   12MOL   H57613798   1.799   3.362   6.997 -0.3868  1.2686 -2.6924
   12MOL   H57713799   1.680   3.375   7.114 -0.9199 -1.5020  0.5230
   12MOL   H57813800   1.653   3.388   6.805 -1.3744 -1.8492 -0.1512
   12MOL   H57913801   1.632   3.532   6.899 -0.8483  0.1300  0.4219
   12MOL   H58013802   1.446   3.295   6.919 -2.1001 -0.2990 -2.2702
   12MOL   H58113803   1.422   3.423   6.805  3.0361  0.8509 -1.3010
   12MOL   H58213804   1.460   3.495   7.112  0.0821  2.0081  0.2423
   12MOL   H58313805   1.396   3.588   6.986  2.1783  0.7602 -0.2820
   12MOL   H58413806   1.218   3.502   7.133 -0.4407 -2.0769  1.3725
   12MOL   H58513807   1.191   3.463   6.978 -1.2832  0.9275  1.4974
   12MOL   H58613808   1.158   3.086   7.145  0.7657  2.7664 -1.4442
   12MOL   H58713809   1.156   3.086   7.322  1.9872 -2.2151  0.1163
   12MOL   H58813810   1.403   3.105   7.160  0.6147 -2.2517 -1.5051
   12MOL   H58913811   1.342   2.952   7.210 -0.7051  0.8749 -0.6646
   12MOL   H59013812   1.350   3.035   7.458 -0.7727 -0.2704 -0.2301
   12MOL   H59113813   1.429   3.176   7.399 -1.3279  0.1271  1.9188
   12MOL   H59213814   1.607   3.065   7.325  0.2303 -0.1657  1.4577
   12MOL   H59313815   1.562   2.900   7.346  0.4710  0.4576 -1.8107
   12MOL   H59413816   1.583   3.089   7.581 -0.2978 -0.7068  1.9574
   12MOL   H59513817   1.543   2.934   7.598 -0.6374  0.2785  0.5272
   12MOL   H59613818   1.804   2.883   7.517 -1.2163 -0.6859 -0.8883
   12MOL   H59713819   1.810   3.047   7.480  0.6484 -1.1664 -1.6231
   12MOL   H59813820   1.780   2.911   7.743  1.3344 -1.4704 -1.2012
   12MOL   H59913821   1.760   3.069   7.751  1.6401  0.3736 -0.0026
   12MOL   H60013822   1.994   3.016   0.049 -0.1812  0.5120  0.1466
   12MOL   H60113823   2.022   2.934   7.665  0.1900  0.4891  0.1098
   12MOL   O60213824   1.958   3.259   7.673  0.3607  0.3893  0.1173
   12MOL   C60313825   1.998   3.378   7.622  0.1966 -0.4138  1.1522
   12MOL   C60413826   1.880   3.470   7.657  0.5267 -0.2490 -0.7373
   12MOL   C60513827   1.755   3.436   7.573  0.7695 -0.5726 -0.4330
   12MOL   C60613828   1.636   3.537   7.580 -0.4874 -0.3090  0.1261
   12MOL   C60713829   1.536   3.548   7.455 -0.2624  0.6743  0.8851
   12MOL   C60813830   1.440   3.669   7.468 -0.9341  0.8322 -0.0032
   12MOL   C60913831   1.352   3.680   7.338  0.4251 -0.0386 -0.5478
   12MOL   C61013832   1.257   3.804   7.351  0.0122 -0.2995 -0.7557
   12MOL   C61113833   1.161   3.829   7.227  0.2406 -0.0531 -0.0320
   12MOL   C61213834   1.238   3.887   7.110 -0.1505 -0.0339  0.0291
   12MOL   O61313835   1.312   3.994   7.159  0.0730  0.2462  0.0869
   12MOL   C61413836   1.439   3.995   7.124 -0.1084 -0.4323  0.2722
   12MOL   O61513837   1.498   3.920   7.052 -0.2940 -0.1148 -0.0498
   12MOL   C61613838   1.517   4.105   7.196  0.1206  0.0263 -0.3517
   12MOL   C61713839   1.451   4.244   7.189  0.2786  0.0232  0.3832
   12MOL   C61813840   1.446   4.306   7.049  0.3186 -0.7975  0.4119
   12MOL   C61913841   1.386   4.449   7.056 -0.1219  0.9769  0.5540
   12MOL   C62013842   1.351   4.502   6.911  0.5149 -0.4832  0.2771
   12MOL   C62113843   1.313   4.650   6.904  0.4552  0.8030  0.0757
   12MOL   C62213844   1.269   4.691   6.764 -1.0960  0.8855  0.3717
   12MOL   C62313845   1.228   4.835   6.771  0.2383 -0.6599  0.3240
   12MOL   C62413846   1.191   4.881   6.634 -0.1406  0.3285  0.0607
   12MOL   O62513847   1.276   4.880   6.541  0.1596  0.2110  0.6830
   12MOL   H62613848   2.088   3.419   7.667 -1.5643  1.7115  2.8563
   12MOL   H62713849   2.018   3.351   7.518 -1.8157 -3.2574  1.4506
   12MOL   H62813850   1.850   3.465   0.005  0.0495 -0.8686 -0.9033
   12MOL   H62913851   1.904   3.575   7.642  1.9910  0.0755  3.4497
   12MOL   H63013852   1.791   3.434   7.470 -1.4839  2.3210 -1.3454
   12MOL   H63113853   1.722   3.333   7.585  0.8807 -0.8816 -2.5776
   12MOL   H63213854   1.581   3.518   7.672  0.1927 -1.8725  0.2329
   12MOL   H63313855   1.679   3.636   7.597  1.4091 -0.5884 -2.6490
   12MOL   H63413856   1.487   3.451   7.449  3.8703 -1.3009 -3.6173
   12MOL   H63513857   1.598   3.564   7.367 -1.3207  2.8668  0.5088
   12MOL   H63613858   1.492   3.764   7.484 -0.2522  0.3397  0.8009
   12MOL   H63713859   1.390   3.647   7.562 -1.8273 -2.8510 -1.2419
   12MOL   H63813860   1.282   3.597   7.331 -0.5213  0.8051 -1.2827
   12MOL   H63913861   1.417   3.697   7.252  0.1956  2.7870 -0.2217
   12MOL   H64013862   1.323   3.888   7.375 -0.4889 -0.2884  0.6516
   12MOL   H64113863   1.195   3.792   7.440 -1.1744 -1.9461 -1.7934
   12MOL   H64213864   1.121   3.731   7.201 -0.5171  0.3534 -0.4162
   12MOL   H64313865   1.071   3.889   7.243 -1.0575 -1.7324 -0.8500
   12MOL   H64413866   1.294   3.809   7.058 -1.8926 -0.8746 -0.6354
   12MOL   H64513867   1.173   3.918   7.027 -0.4663 -1.4334 -0.2703
   12MOL   H64613868   1.620   4.107   7.162 -0.2793  1.2310 -1.5136
   12MOL   H64713869   1.529   4.078   7.301  0.6156 -0.4749 -0.5347
   12MOL   H64813870   1.506   4.306   7.260  0.0805 -0.2745  0.7979
   12MOL   H64913871   1.348   4.250   7.224  0.1927  0.3565  0.0779
   12MOL   H65013872   1.386   4.249   6.978  1.0804  0.4245 -1.2549
   12MOL   H65113873   1.545   4.309   7.003  1.4129 -2.2727  2.5841
   12MOL   H65213874   1.459   4.513   7.104 -0.3737 -0.0389  2.3170
   12MOL   H65313875   1.293   4.433   7.111 -1.6908  0.6407 -2.1024
   12MOL   H65413876   1.449   4.503   6.864 -0.1063  1.5409 -0.9965
   12MOL   H65513877   1.276   4.451   6.851  1.0271 -1.0095  0.0757
   12MOL   H65613878   1.229   4.666   6.971  0.5840  0.8755  0.2205
   12MOL   H65713879   1.399   4.708   6.940  0.8758 -1.4549  2.9099
   12MOL   H65813880   1.192   4.624   6.726 -1.8897  0.6733  2.2697
   12MOL   H65913881   1.355   4.677   6.700 -1.4228 -2.3013  0.5379
   12MOL   H66013882   1.135   4.827   6.827 -0.5320 -1.6281 -1.0649
   12MOL   H66113883   1.297   4.907   6.815  1.5780  1.1495 -4.4610
   12MOL   O66213884   1.067   4.928   6.627  0.1827  0.0471 -0.4478
   12MOL   C66313885   1.030   4.986   6.503 -0.6572  0.2681 -0.3364
   12MOL   C66413886   1.057   5.132   6.517  0.2310  0.0214 -0.2230
   12MOL   C66513887   0.978   5.214   6.403 -0.1988 -0.4334  0.0697
   12MOL   C66613888   1.039   5.341   6.348  0.0954 -0.3725  0.0116
   12MOL   C66713889   0.956   5.413   6.241 -0.2772  0.2407 -0.5166
   12MOL   C66813890   1.036   5.524   6.178  0.3882 -0.3437  0.6058
   12MOL   C66913891   0.963   5.572   6.057 -0.1495 -0.1797  0.3183
   12MOL   C67013892   1.033   5.688   5.985  0.1614 -0.1883 -0.6500
   12MOL   C67113893   0.947   5.767   5.886  0.6395 -0.7524  0.3682
   12MOL   C67213894   1.027   5.845   5.786  0.2163  0.3179  0.6056
   12MOL   O67313895   1.089   5.962   5.852  0.6515 -0.2987 -0.0674
   12MOL   C67413896   1.220   5.973   5.882  0.0096 -0.4504 -0.2627
   12MOL   O67513897   1.298   5.880   5.896 -0.2770  0.1082 -0.3310
   12MOL   C67613898   1.259   6.118   5.901 -0.0778  0.2594  0.0633
   12MOL   C67713899   1.354   6.159   5.788  0.2597 -0.3442  0.1155
   12MOL   C67813900   1.377   6.312   5.801  0.2228 -1.3399 -0.0255
   12MOL   C67913901   1.480   6.361   5.706 -0.2821  0.1298  0.7385
   12MOL   C68013902   1.498   6.519   5.709  0.4324  0.7255 -0.1001
   12MOL   C68113903   1.596   6.570   5.608  0.4724 -0.6249 -0.6762
   12MOL   C68213904   1.552   6.540   5.464  0.0412 -0.0807 -0.4359
   12MOL   C68313905   1.633   6.621   5.362 -0.7498  0.6975 -0.2632
   12MOL   C68413906   1.780   6.565   5.356  0.1877 -0.3111  0.7548
   12MOL   O68513907   1.875   6.618   5.422  0.1538  0.2050 -0.1756
   12MOL   H68613908   1.094   4.945   6.424  1.2521  2.5517 -0.0444
   12MOL   H68713909   0.926   4.962   6.483  0.1124 -1.2756 -2.6958
   12MOL   H68813910   1.018   5.154   6.617  1.0228 -1.3248  0.3881
   12MOL   H68913911   1.163   5.157   6.515 -0.4005  2.7656 -1.4131
   12MOL   H69013912   0.973   5.148   6.316 -0.6648 -0.3621  0.0414
   12MOL   H69113913   0.881   5.241   6.444  0.1859  0.2409  0.5388
   12MOL   H69213914   1.059   5.414   6.427 -1.2386  0.3212 -0.2848
   12MOL   H69313915   1.134   5.317   6.299 -0.4563  0.1664 -1.3472
   12MOL   H69413916   0.860   5.446   6.281 -0.9550 -2.1137 -0.1505
   12MOL   H69513917   0.935   5.341   6.163 -0.6319 -0.4882  0.2452
   12MOL   H69613918   1.140   5.495   6.162 -0.3711 -1.6625 -2.4333
   12MOL   H69713919   1.031   5.611   6.244  0.0368  1.7132 -2.0176
   12MOL   H69813920   0.858   5.598   6.070  0.2420  0.8960  1.4492
   12MOL   H69913921   0.957   5.485   5.992  0.3051 -1.2841  1.7183
   12MOL   H70013922   1.119   5.643   5.935 -0.1172 -1.1263 -0.3060
   12MOL   H70113923   1.079   5.762   6.050 -1.5021 -0.7385  1.2154
   12MOL   H70213924   0.864   5.718   5.836 -0.1150  1.9919 -1.2015
   12MOL   H70313925   0.891   5.836   5.949  1.5300 -0.4433  0.8368
   12MOL   H70413926   1.097   5.774   5.741 -1.0159  1.3318 -3.0933
   12MOL   H70513927   0.964   5.886   5.707  3.3950  1.9210 -1.2168
   12MOL   H70613928   1.310   6.137   5.995 -1.2599  1.9216  0.4035
   12MOL   H70713929   1.172   6.184   5.901  0.6579  1.2547  0.8637
   12MOL   H70813930   1.307   6.134   5.693  1.4786 -1.6844 -0.1662
   12MOL   H70913931   1.442   6.095   5.789  1.0870  0.7671 -0.1339
   12MOL   H71013932   1.415   6.342   5.899  0.4603 -0.3338 -0.4281
   12MOL   H71113933   1.278   6.356   5.791  0.5881 -0.3588  0.6324
   12MOL   H71213934   1.448   6.328   5.607  0.8427  0.3489  0.2981
   12MOL   H71313935   1.578   6.316   5.721  0.2037  0.8416 -0.2072
   12MOL   H71413936   1.400   6.567   5.706  0.2857  0.3999 -0.6706
   12MOL   H71513937   1.528   6.530   5.813  1.1072 -0.2085 -0.1940
   12MOL   H71613938   1.598   6.678   5.621 -1.8309 -0.7820  1.4588
   12MOL   H71713939   1.696   6.530   5.619  0.7005 -0.3561 -1.7075
   12MOL   H71813940   1.444   6.552   5.458 -0.1562 -1.0153  0.8340
   12MOL   H71913941   1.562   6.432   5.453  1.5814 -0.0665  0.5725
   12MOL   H72013942   1.579   6.614   5.267 -2.3593 -1.0227  0.7254
   12MOL   H72113943   1.636   6.723   5.399  0.0117  0.8858 -0.8136
   12MOL   O72213944   1.787   6.449   5.288  0.2202  0.9348 -0.0813
   12MOL   C72313945   1.902   6.366   5.294 -0.2384 -0.6294  0.2743
   12MOL   C72413946   1.864   6.223   5.265 -0.0116 -0.1655 -0.2795
   12MOL   C72513947   1.785   6.159   5.384 -0.0449 -0.1265  1.1900
   12MOL   C72613948   1.745   6.010   5.373 -0.0846  0.2648 -0.0034
   12MOL   C72713949   1.657   5.946   5.490  0.8831  0.4715  0.6344
   12MOL   C72813950   1.644   5.797   5.491  0.4470  0.3258  0.2591
   12MOL   C72913951   1.542   5.752   5.604 -0.0280 -0.2011  0.2763
   12MOL   C73013952   1.540   5.598   5.612  0.4533 -0.2464 -0.4342
   12MOL   C73113953   1.456   5.548   5.738 -0.0496 -0.4765 -0.2661
   12MOL   C73213954   1.459   5.396   5.754 -0.5352 -0.3366 -0.5391
   12MOL   O73313955   1.378   5.362   5.869  0.4298 -0.1678 -0.3728
   12MOL   C73413956   1.312   5.241   5.863 -0.6454  0.0793  0.6311
   12MOL   O73513957   1.332   5.157   5.778 -0.1040  0.2257  0.4639
   12MOL   C73613958   1.206   5.228   5.973 -0.6030 -0.5241 -0.0571
   12MOL   C73713959   1.245   5.115   6.069 -0.1032 -0.1432 -0.1037
   12MOL   C73813960   1.378   5.150   6.147 -0.2180  0.6250 -0.4681
   12MOL   C73913961   1.409   5.049   6.262 -0.2958  0.4410 -0.2880
   12MOL   C74013962   1.529   5.094   6.342  0.3442  0.5001 -0.2552
   12MOL   C74113963   1.512   5.223   6.421  0.2802 -0.1324 -0.0241
   12MOL   C74213964   1.635   5.250   6.515 -0.1258  0.4649  0.1823
   12MOL   C74313965   1.768   5.267   6.442 -0.0190  0.1047 -0.1577
   12MOL   C74413966   1.759   5.353   6.316 -0.3119 -0.2459 -0.1183
   12MOL   O74513967   1.754   5.474   6.332 -0.4977  0.3070 -0.3293
   12MOL   H74613968   1.979   6.420   5.240 -0.7407  0.9855  1.1357
   12MOL   H74713969   1.940   6.379   5.395 -0.2027  0.1566  0.1654
   12MOL   H74813970   1.805   6.213   5.174  0.1981  1.2721 -0.5727
   12MOL   H74913971   1.957   6.169   5.250  0.4755  1.0407 -1.6549
   12MOL   H75013972   1.834   6.177   5.480  1.5183 -1.7287  0.7200
   12MOL   H75113973   1.691   6.215   5.384 -0.7571 -1.2987  1.7698
   12MOL   H75213974   1.698   5.991   5.277 -0.6039  0.4436  0.2095
   12MOL   H75313975   1.835   5.948   5.379  1.1113  2.0047  0.3119
   12MOL   H75413976   1.559   5.991   5.501  0.1698 -0.0640 -2.9585
   12MOL   H75513977   1.714   5.979   5.577  2.0595  1.3524 -0.4536
   12MOL   H75613978   1.744   5.757   5.510  0.3636  0.1452  0.3211
   12MOL   H75713979   1.621   5.768   5.388  1.5241 -1.2333  0.4459
   12MOL   H75813980   1.443   5.786   5.573  1.2342  1.2376 -2.4068
   12MOL   H75913981   1.551   5.800   5.702 -3.1921 -0.6818  0.8508
   12MOL   H76013982   1.643   5.565   5.629  0.8636  0.5164 -1.4227
   12MOL   H76113983   1.516   5.552   5.516 -0.4411 -2.4465  0.8110
   12MOL   H76213984   1.505   5.582   5.830  0.3326 -0.8766 -0.3227
   12MOL   H76313985   1.353   5.581   5.733 -0.2587 -1.1564 -0.4465
   12MOL   H76413986   1.418   5.350   5.664  0.3062 -1.0837 -0.5518
   12MOL   H76513987   1.560   5.357   5.766 -1.4243 -1.7027  3.1867
   12MOL   H76613988   1.114   5.203   5.920  0.0063 -0.3858 -1.2211
   12MOL   H76713989   1.192   5.327   6.015 -0.7591 -0.4984 -0.1677
   12MOL   H76813990   1.253   5.020   6.016  1.6395 -0.3390  0.4620
   12MOL   H76913991   1.168   5.121   6.146  0.2667  0.7403  0.2048
   12MOL   H77013992   1.360   5.253   6.179  3.6792  0.9626  0.9030
   12MOL   H77113993   1.465   5.140   6.082  0.7125 -2.2047  1.1320
   12MOL   H77213994   1.431   4.950   6.223  1.8698  1.0941 -0.7765
   12MOL   H77313995   1.324   5.033   6.329  0.1481  2.9955  0.9559
   12MOL   H77413996   1.564   5.025   6.419  1.1015  0.6331 -0.4834
   12MOL   H77513997   1.612   5.112   6.274 -0.2236  0.7492 -0.8876
   12MOL   H77613998   1.495   5.298   6.345  1.0933 -1.2173 -1.3048
   12MOL   H77713999   1.419   5.210   6.476 -0.1890 -0.8283 -0.9766
   12MOL   H77814000   1.634   5.179   6.598 -2.1298 -1.0280 -1.0558
   12MOL   H77914001   1.610   5.344   6.564 -0.2090  1.1399 -1.1376
   12MOL   H78014002   1.846   5.303   6.509  1.5149 -1.2550 -1.1688
   12MOL   H78114003   1.812   5.168   6.433  0.0107 -0.0065  1.0498
   12MOL   O78214004   1.754   5.283   6.203 -0.0689  0.2276  0.0808
   12MOL   C78314005   1.746   5.360   6.083 -0.6522 -0.3016 -0.2800
   12MOL   C78414006   1.885   5.408   6.032 -0.0788  0.0083 -0.4433
   12MOL   C78514007   1.876   5.479   5.897  0.3700 -0.7869  0.1936
   12MOL   C78614008   2.001   5.536   5.836  0.3990  0.2179 -0.3537
   12MOL   C78714009   1.981   5.629   5.716  0.4780  0.3464 -0.4273
   12MOL   C78814010   2.103   5.646   5.623 -0.1968 -0.5056 -0.5238
   12MOL   C78914011   2.063   5.729   5.510 -0.2353 -0.1280  0.0376
   12MOL   C79014012   2.163   5.777   5.407 -0.2033 -0.1316  0.2093
   12MOL   C79114013   2.114   5.886   5.308  0.2369 -0.0620 -0.1411
   12MOL   C79214014   2.207   5.924   5.197  0.0548  0.4612 -0.0671
   12MOL   O79314015   2.137   5.999   5.103  0.1231 -0.0025 -0.5405
   12MOL   C79414016   2.190   6.049   4.997 -0.2707 -0.7252 -0.0854
   12MOL   O79514017   2.301   6.032   4.961  0.4560  0.3482 -0.6386
   12MOL   C79614018   2.085   6.129   4.911 -0.4093 -0.5997  0.0871
   12MOL   C79714019   1.997   6.030   4.833  0.2293 -0.1842 -0.0200
   12MOL   C79814020   1.892   6.105   4.762 -0.0839 -0.0646 -0.6778
   12MOL   C79914021   1.802   6.005   4.684 -0.6657 -0.3941 -0.1193
   12MOL   C80014022   1.693   6.065   4.604 -0.0471  0.6489  0.4745
   12MOL   C80114023   1.597   5.945   4.549 -0.0861  0.2686 -0.1296
   12MOL   C80214024   1.466   5.988   4.490  0.7818  0.3172  0.7213
   12MOL   C80314025   1.396   5.862   4.434  0.6837  0.3598 -0.6003
   12MOL   C80414026   1.243   5.873   4.394 -0.9523  0.2060  0.1554
   12MOL   O80514027   1.178   5.771   4.376  0.3905 -0.5032  0.2753
   12MOL   H80614028   1.714   5.282   6.015 -0.6835  1.0259 -1.8079
   12MOL   H80714029   1.668   5.436   6.088  2.0317  2.7345 -2.1044
   12MOL   H80814030   1.924   5.471   6.112 -0.1631 -1.6609  0.9587
   12MOL   H80914031   1.947   5.319   6.017  0.3365  0.3690 -0.8702
   12MOL   H81014032   1.833   5.411   5.823 -0.6703  0.9431 -0.8123
   12MOL   H81114033   1.799   5.555   5.908 -1.1147 -2.2415  0.1068
   12MOL   H81214034   2.062   5.596   5.904 -0.1363 -0.5922  0.8553
   12MOL   H81314035   2.056   5.450   5.798  1.0410  0.8645 -0.9084
   12MOL   H81414036   1.937   5.725   5.745  1.9726  1.4528 -1.7141
   12MOL   H81514037   1.897   5.582   5.664 -0.7080 -0.0802  1.8270
   12MOL   H81614038   2.133   5.549   5.584  0.3311 -0.1440 -1.0153
   12MOL   H81714039   2.188   5.696   5.669 -2.4715  2.6007  0.5018
   12MOL   H81814040   2.019   5.824   5.543  1.8680  0.4931  1.1301
   12MOL   H81914041   1.979   5.675   5.467 -1.1100  0.9264  0.3823
   12MOL   H82014042   2.198   5.697   5.341 -1.0766 -0.2884 -0.0633
   12MOL   H82114043   2.260   5.808   5.448  0.4865  0.4802 -1.8026
   12MOL   H82214044   2.026   5.861   5.248  2.2332  0.4651 -3.4203
   12MOL   H82314045   2.079   5.971   5.366 -1.3806  0.8939 -2.4242
   12MOL   H82414046   2.300   5.965   5.236  0.6256 -0.9526  0.0902
   12MOL   H82514047   2.239   5.831   5.150  1.0996  1.1002 -0.6372
   12MOL   H82614048   2.142   6.195   4.845 -1.0595  1.4505  1.5423
   12MOL   H82714049   2.025   6.191   4.978  0.6612 -0.4628  0.9219
   12MOL   H82814050   1.956   5.959   4.905 -0.7380  2.3982  2.0696
   12MOL   H82914051   2.062   5.986   4.757  3.1137  1.3702  1.4405
   12MOL   H83014052   1.928   6.185   4.697  1.6702 -0.7455 -0.5751
   12MOL   H83114053   1.832   6.162   4.833  0.3415  0.1846 -0.5110
   12MOL   H83214054   1.762   5.944   4.765  0.1988  1.1733  1.5286
   12MOL   H83314055   1.866   5.941   4.624 -1.3546 -2.0601  0.8918
   12MOL   H83414056   1.637   6.137   4.662  0.1056  0.7598  0.4860
   12MOL   H83514057   1.755   6.104   4.522 -2.2653  1.3654 -0.8928
   12MOL   H83614058   1.646   5.891   4.468 -0.5591  1.0283 -0.9172
   12MOL   H83714059   1.571   5.870   4.624  0.1395 -0.1023 -0.4166
   12MOL   H83814060   1.485   6.059   4.410  2.2695  0.6048  1.3296
   12MOL   H83914061   1.401   6.030   4.567 -0.1000 -0.6131  0.5048
   12MOL   H84014062   1.462   5.824   4.356  1.0894 -1.3152  0.5382
   12MOL   H84114063   1.395   5.789   4.514 -1.6786 -0.7894 -1.6364
   12MOL   O84214064   1.208   5.996   4.363 -0.6273 -0.3248  0.2280
   12MOL   C84314065   1.080   6.024   4.307  0.4129  0.4059  0.0821
   12MOL   C84414066   1.088   6.126   4.197 -0.3041  0.4723 -0.3336
   12MOL   C84514067   1.123   6.270   4.238 -0.4826  0.4550  0.0383
   12MOL   C84614068   1.136   6.376   4.127  0.0440  0.8431  0.3104
   12MOL   C84714069   1.005   6.391   4.037 -0.4137 -0.3857  0.2982
   12MOL   C84814070   1.004   6.522   3.969  0.0904  0.3314  0.0795
   12MOL   C84914071   0.891   6.547   3.871 -0.0113  0.6456 -0.4591
   12MOL   C85014072   0.892   6.697   3.819  0.2189  0.4076 -0.2980
   12MOL   C85114073   0.764   6.726   3.744 -0.0083  0.4565  0.6993
   12MOL   C85214074   0.762   6.858   3.661  0.0012 -0.0789 -0.2360
   12MOL   O85314075   0.763   6.974   3.743 -0.7286  0.0463  0.6509
   12MOL   C85414076   0.709   7.078   3.694  0.2136 -0.1213 -0.3493
   12MOL   O85514077   0.669   7.096   3.582  0.0180  0.2023  0.3177
   12MOL   C85614078   0.718   7.192   3.791 -0.8125  0.6349 -0.1621
   12MOL   C85714079   0.818   7.194   3.909  0.0391  0.3413 -0.0166
   12MOL   C85814080   0.964   7.177   3.861  0.0564 -0.1931 -0.3900
   12MOL   C85914081   1.056   7.181   3.984  0.3149  0.9121 -0.2683
   12MOL   C86014082   1.200   7.129   3.966 -0.3244  0.6780  0.6408
   12MOL   C86114083   1.216   6.981   3.986 -0.8009  0.5259 -0.2554
   12MOL   C86214084   1.359   6.931   3.965 -0.1578 -0.1472 -0.6915
   12MOL   C86314085   1.358   6.788   4.027 -0.7580  0.4529 -1.1398
   12MOL   C86414086   1.500   6.722   4.012  0.0823  0.0806 -0.4924
   12MOL   O86514087   1.599   6.792   4.002 -0.5668 -0.1179  0.3696
   12MOL   H86614088   1.022   5.937   4.276 -0.4305  1.1577 -0.4558
   12MOL   H86714089   1.031   6.067   4.395  0.9986  1.6672 -0.2048
   12MOL   H86814090   1.158   6.104   4.117  0.6136  1.4818  0.1822
   12MOL   H86914091   0.991   6.136   4.148 -0.2781  3.6103  0.1564
   12MOL   H87014092   1.044   6.306   4.304  0.8166 -0.9652  2.4131
   12MOL   H87114093   1.211   6.264   4.301 -0.0294  1.8673 -0.4591
   12MOL   H87214094   1.159   6.469   4.180  0.6891  0.2997  0.9909
   12MOL   H87314095   1.228   6.362   4.071 -0.9330 -0.7749 -0.9328
   12MOL   H87414096   0.916   6.388   4.100 -0.6931 -0.0644 -0.0789
   12MOL   H87514097   1.002   6.300   3.977 -0.9639 -1.5833  2.0735
   12MOL   H87614098   1.097   6.524   3.913 -0.1442  2.1835 -0.2569
   12MOL   H87714099   1.002   6.604   4.041 -2.0316  0.2607  0.1486
   12MOL   H87814100   0.794   6.535   3.919 -0.4809 -0.1720 -1.5962
   12MOL   H87914101   0.894   6.479   3.786  0.7717  1.1793 -0.8626
   12MOL   H88014102   0.990   6.699   3.772 -0.5677  2.3610 -1.8970
   12MOL   H88114103   0.893   6.769   3.901 -0.3801 -1.4412  1.3640
   12MOL   H88214104   0.738   6.646   3.675 -0.5166  2.5971 -1.6639
   12MOL   H88314105   0.679   6.712   3.811  0.1718 -0.4326  0.7408
   12MOL   H88414106   0.852   6.851   3.599 -0.1502 -2.0450 -0.2601
   12MOL   H88514107   0.675   6.858   3.596  1.3035  1.3177 -2.0519
   12MOL   H88614108   0.618   7.204   3.832 -0.1877  0.3964  1.4877
   12MOL   H88714109   0.730   7.283   3.732  2.4081  0.1281 -0.3861
   12MOL   H88814110   0.790   7.115   3.979 -1.7414 -0.5681 -1.7225
   12MOL   H88914111   0.811   7.290   3.960 -1.7593  0.1443  0.1679
   12MOL   H89014112   1.005   7.252   3.793  3.0678 -1.0950  0.3361
   12MOL   H89114113   0.991   7.082   3.816  1.2123 -1.5041  2.9066
   12MOL   H89214114   1.004   7.139   4.070  2.3455 -1.2433 -0.0361
   12MOL   H89314115   1.049   7.288   3.999 -1.2245  0.4410  2.5443
   12MOL   H89414116   1.243   7.163   3.871  0.8800 -0.7461  0.6615
   12MOL   H89514117   1.268   7.178   4.036  0.7033  1.4563 -0.8490
   12MOL   H89614118   1.188   6.952   4.088 -1.7161  0.4743 -0.5161
   12MOL   H89714119   1.149   6.936   3.913 -0.9106 -1.5493  1.0760
   12MOL   H89814120   1.426   6.991   4.025  1.0882 -1.4577 -0.7538
   12MOL   H89914121   1.382   6.943   3.859 -2.3446  3.5042 -0.8529
   12MOL   H90014122   1.327   6.785   4.131 -0.0179 -3.0643 -0.9519
   12MOL   H90114123   1.287   6.719   3.982 -1.0481 -2.0282  2.8481
   12MOL   O90214124   1.496   6.592   4.016 -0.2539 -0.3612 -0.1575
   12MOL   C90314125   1.603   6.504   4.009  0.2767 -0.7734 -0.8159
   12MOL   C90414126   1.618   6.431   4.144  0.0020 -0.1228 -0.2916
   12MOL   C90514127   1.663   6.286   4.127 -0.1256  0.2787 -0.5961
   12MOL   C90614128   1.551   6.189   4.115 -0.4531 -0.1385 -0.8383
   12MOL   C90714129   1.604   6.046   4.049  0.2615 -0.4431  0.9208
   12MOL   C90814130   1.480   5.960   4.054  0.1994 -0.4502 -0.2328
   12MOL   C90914131   1.506   5.831   3.978  0.2865 -0.4505  0.1512
   12MOL   C91014132   1.407   5.717   4.011 -0.5080 -0.2892 -0.2342
   12MOL   C91114133   1.431   5.593   3.921 -0.1135 -0.3135 -0.6440
   12MOL   C91214134   1.311   5.495   3.926 -0.1079  0.6699 -0.0005
   12MOL   O91314135   1.332   5.372   3.863  0.1428 -0.3900 -0.1531
   12MOL   C91414136   1.310   5.357   3.731 -0.2851  0.4949  0.6436
   12MOL   O91514137   1.292   5.459   3.659  0.1773 -0.2084  0.6402
   12MOL   C91614138   1.304   5.216   3.677 -0.2708 -0.5239 -1.1297
   12MOL   C91714139   1.301   5.200   3.528 -0.1947 -0.4536  0.0701
   12MOL   C91814140   1.431   5.242   3.454  0.6926 -0.2844  0.4227
   12MOL   C91914141   1.427   5.226   3.301  0.0083  0.0145  0.9204
   12MOL   C92014142   1.570   5.231   3.241  0.7679 -0.3216 -0.2370
   12MOL   C92114143   1.628   5.088   3.213  0.6074  0.3239  0.5685
   12MOL   C92214144   1.763   5.108   3.158 -0.7524 -0.8700  0.6392
   12MOL   C92314145   1.852   4.986   3.144  0.1817  0.0255 -0.0369
   12MOL   C92414146   1.908   4.936   3.282 -0.2279  0.3996 -0.6240
   12MOL   O92514147   2.027   4.924   3.297 -0.4109 -0.4590  0.4836
   12MOL   H92614148   1.568   6.440   3.927 -0.4420 -0.2208 -0.9396
   12MOL   H92714149   1.685   6.561   3.967  0.0516 -0.5713 -0.9821
   12MOL   H92814150   1.689   6.492   4.199  3.1437 -1.4609 -2.6948
   12MOL   H92914151   1.521   6.441   4.193 -1.0756  0.2469 -2.4295
   12MOL   H93014152   1.731   6.273   4.043  1.3467  1.1316  0.4417
   12MOL   H93114153   1.733   6.259   4.206  0.0301  1.3486 -0.3512
   12MOL   H93214154   1.509   6.171   4.214 -1.4648 -0.9171 -1.3981
   12MOL   H93314155   1.464   6.230   4.064  1.3731  1.5101 -2.7460
   12MOL   H93414156   1.682   5.990   4.102  0.6405 -2.3643 -1.5916
   12MOL   H93514157   1.633   6.057   3.945 -0.3162  1.7597  0.9728
   12MOL   H93614158   1.387   6.007   4.023 -0.2637 -0.9405  0.4273
   12MOL   H93714159   1.467   5.945   4.161  0.8484  0.1278 -0.0656
   12MOL   H93814160   1.613   5.810   3.988  0.4879  0.2124 -0.5532
   12MOL   H93914161   1.495   5.846   3.871 -0.5931  0.8292  0.4192
   12MOL   H94014162   1.316   5.771   3.987  0.4723  1.7783  0.5414
   12MOL   H94114163   1.401   5.688   4.116  0.9004  2.1955  0.5809
   12MOL   H94214164   1.451   5.624   3.819 -0.8440  1.0478 -0.3792
   12MOL   H94314165   1.513   5.531   3.958  1.9215  0.8664 -3.0102
   12MOL   H94414166   1.322   5.469   4.031  3.0340 -0.3929 -0.5304
   12MOL   H94514167   1.215   5.542   3.908 -0.2294  0.8516  1.0830
   12MOL   H94614168   1.215   5.165   3.713 -0.1970 -0.5361 -0.9655
   12MOL   H94714169   1.394   5.170   3.717 -1.7415 -2.6281 -0.1605
   12MOL   H94814170   1.215   5.254   3.488  0.8357  0.0278 -1.5546
   12MOL   H94914171   1.284   5.096   3.503  0.2295 -0.3960 -0.4695
   12MOL   H95014172   1.504   5.179   3.504 -0.7555 -0.2925  2.5893
   12MOL   H95114173   1.468   5.343   3.473 -0.0999  0.8441 -3.5743
   12MOL   H95214174   1.374   5.310   3.255 -2.1296 -1.2900  0.9386
   12MOL   H95314175   1.390   5.128   3.271  1.4495 -0.6169  1.1454
   12MOL   H95414176   1.583   5.291   3.151  1.4820  1.0421  0.7622
   12MOL   H95514177   1.632   5.289   3.310  0.1229 -2.8971  2.5778
   12MOL   H95614178   1.615   5.032   3.306  0.9712  0.3453  0.6303
   12MOL   H95714179   1.575   5.028   3.139  2.1346 -0.3636  0.0109
   12MOL   H95814180   1.828   5.177   3.211  0.1840 -0.5688 -0.8635
   12MOL   H95914181   1.760   5.159   3.062 -1.7848 -0.6607  0.7765
   12MOL   H96014182   1.810   4.905   3.084  1.5051 -1.3901  0.9061
   12MOL   H96114183   1.938   4.996   3.078  0.4100 -0.7816  0.1344
   12MOL   O96214184   1.820   4.904   3.376 -0.8011  0.4091  0.6465
   12MOL   C96314185   1.850   4.842   3.503  0.0166  0.1067  1.1198
   12MOL   C96414186   1.781   4.713   3.513  0.0176  0.5441  0.2929
   12MOL   C96514187   1.781   4.647   3.649  0.1821 -0.1040  0.2343
   12MOL   C96614188   1.698   4.525   3.664  0.4552  0.1262 -0.1436
   12MOL   C96714189   1.632   4.487   3.794 -0.1042 -0.2697 -0.1255
   12MOL   C96814190   1.744   4.430   3.885  0.0929 -0.3838 -0.5317
   12MOL   C96914191   1.698   4.381   4.026  0.1661  0.0248  0.4945
   12MOL   C97014192   1.627   4.243   4.019  0.4367  0.4920 -0.1609
   12MOL   C97114193   1.472   4.256   4.040 -0.1482 -0.3392 -0.7958
   12MOL   C97214194   1.408   4.117   4.036  0.3634  0.6992  1.0792
   12MOL   O97314195   1.266   4.132   4.015 -0.7160 -0.3529  0.5944
   12MOL   C97414196   1.178   4.117   4.113  0.1718 -0.0761 -1.0188
   12MOL   O97514197   1.205   4.087   4.229  0.9295  0.5457  0.4883
   12MOL   C97614198   1.033   4.138   4.069 -0.3532 -0.6206 -0.5209
   12MOL   C97714199   0.978   4.015   3.999 -0.2674  0.1642 -0.1144
   12MOL   C97814200   0.830   4.047   3.963  0.1877 -0.2881 -0.5392
   12MOL   C97914201   0.752   3.928   3.893 -0.1160 -1.1195 -0.6857
   12MOL   C98014202   0.612   3.974   3.855  0.8715 -0.2812 -0.4951
   12MOL   C98114203   0.552   3.883   3.752  0.3351  0.1308  0.2767
   12MOL   C98214204   0.404   3.919   3.719  0.0498  0.2202 -0.7322
   12MOL   C98314205   0.319   3.813   3.642 -0.1030 -0.2855  0.5688
   12MOL   C98414206   0.248   3.710   3.722 -0.1982  0.5686 -0.0731
   12MOL   O98514207   0.130   3.720   3.759 -0.1276 -0.6500 -0.0598
   12MOL   H98614208   1.957   4.820   3.509 -0.0686 -0.1501  1.8094
   12MOL   H98714209   1.822   4.917   3.577 -1.3004  0.5193  0.2309
   12MOL   H98814210   1.681   4.722   3.472  0.5321 -3.5581 -2.1832
   12MOL   H98914211   1.825   4.648   3.437 -2.4593 -0.6133 -0.2028
   12MOL   H99014212   1.884   4.624   3.676  1.1852  2.8796 -0.8063
   12MOL   H99114213   1.746   4.716   3.726  2.1189  1.3619 -0.1509
   12MOL   H99214214   1.611   4.536   3.599  0.0407 -2.5418 -0.0856
   12MOL   H99314215   1.746   4.435   3.625  0.6259 -0.2344  0.8847
   12MOL   H99414216   1.554   4.413   3.782  0.5612 -1.3344  1.8248
   12MOL   H99514217   1.580   4.574   3.834  0.7565 -0.3201  1.1458
   12MOL   H99614218   1.825   4.499   3.907 -0.8970  0.5048  0.4084
   12MOL   H99714219   1.790   4.341   3.841  0.5343  0.2083 -1.2804
   12MOL   H99814220   1.651   4.462   4.081 -0.9560 -0.2970  0.0121
   12MOL   H99914221   1.789   4.376   4.086 -0.2316 -1.4367  1.0059
   12MOL     H114222   1.664   4.183   4.102 -2.9698 -3.5384 -1.3906
   12MOL     H214223   1.658   4.185   3.932  1.7622 -0.9220  1.2199
   12MOL     H314224   1.449   4.290   4.141  1.1801 -1.3565 -0.1276
   12MOL     H414225   1.428   4.318   3.963  1.7443  0.9590 -0.8721
   12MOL     H514226   1.443   4.077   3.941  2.4407  3.4724  0.5968
   12MOL     H614227   1.421   4.041   4.114 -0.3351  1.0322  1.5186
   12MOL     H714228   1.031   4.234   4.017  2.0168  0.5613  1.4604
   12MOL     H814229   0.967   4.152   4.155  2.5062  0.0816  1.6232
   12MOL     H914230   0.992   3.925   4.060 -0.9783  1.4545  2.0200
   12MOL    H1014231   1.026   3.994   3.904 -2.5169 -0.9732 -1.0361
   12MOL    H1114232   0.826   4.123   3.885 -3.5040 -0.3785 -0.5164
   12MOL    H1214233   0.773   4.085   4.047 -0.9679 -0.1782 -1.3601
   12MOL    H1314234   0.748   3.843   3.961  0.6129  0.0596  0.8781
   12MOL    H1414235   0.804   3.906   3.800 -0.1415 -1.5447 -0.5990
   12MOL    H1514236   0.546   3.971   3.941  0.3381  0.6694 -0.8584
   12MOL    H1614237   0.618   4.078   3.822  1.0381 -0.2156 -0.2637
   12MOL    H1714238   0.605   3.869   3.657 -0.9301  1.4487 -0.6418
   12MOL    H1814239   0.551   3.783   3.795  2.5398  0.2152  0.5818
   12MOL    H1914240   0.410   4.005   3.653 -1.8446  0.4793 -0.5776
   12MOL    H2014241   0.348   3.955   3.806  0.7254 -0.5793  0.0447
   12MOL    H2114242   0.236   3.860   3.589 -0.9219 -0.7289  1.4586
   12MOL    H2214243   0.378   3.769   3.561 -0.2331 -1.4498  1.0993
   12MOL    O2314244   0.318   3.595   3.733  0.2100  0.2488  0.3127
   12MOL    C2414245   0.257   3.486   3.790  0.4179  0.2127 -0.2924
   12MOL    C2514246   0.357   3.368   3.807  0.3005  0.6678 -0.4608
   12MOL    C2614247   0.405   3.297   3.678  0.1788  0.1361 -0.0718
   12MOL    C2714248   0.532   3.204   3.700  0.0923 -0.0730 -0.0337
   12MOL    C2814249   0.606   3.165   3.573  0.0067  0.3200 -0.0016
   12MOL    C2914250   0.732   3.076   3.615  0.0550 -0.3648 -0.0370
   12MOL    C3014251   0.803   3.032   3.484 -0.3915  0.6586 -0.1294
   12MOL    C3114252   0.884   3.135   3.406  0.5878  0.1592 -0.2632
   12MOL    C3214253   1.006   3.199   3.478  0.2215  0.5889 -0.2004
   12MOL    C3314254   1.074   3.310   3.401 -0.0093  0.4102  0.0695
   12MOL    O3414255   1.177   3.386   3.468 -0.2642  0.7056 -0.2555
   12MOL    C3514256   1.218   3.500   3.409  0.1013 -0.0496  0.1549
   12MOL    O3614257   1.150   3.555   3.319 -0.0292 -0.1023  0.1948
   12MOL    C3714258   1.341   3.570   3.477  0.7110 -0.2235 -0.4051
   12MOL    C3814259   1.477   3.514   3.431 -0.2186 -0.4741  0.4411
   12MOL    C3914260   1.568   3.619   3.364  0.1922 -0.1904 -0.0770
   12MOL    C4014261   1.518   3.640   3.220 -0.1240 -0.3407  1.0769
   12MOL    C4114262   1.606   3.744   3.143  0.4203  0.4510  0.1681
   12MOL    C4214263   1.546   3.777   3.000 -0.3548  0.2998 -0.0601
   12MOL    C4314264   1.645   3.844   2.909  0.0301  0.0558  0.2223
   12MOL    C4414265   1.753   3.754   2.863  0.2899  0.1947 -0.0585
   12MOL    C4514266   1.840   3.826   2.761 -0.2146 -0.2744 -0.5011
   12MOL    O4614267   1.808   3.922   2.696 -0.1011 -0.6548 -0.0705
   12MOL    H4714268   0.219   3.514   3.888  1.7849 -0.7985  0.5453
   12MOL    H4814269   0.161   3.468   3.741 -0.1900  1.5172  0.3633
   12MOL    H4914270   0.438   3.400   3.873  0.6618 -0.7458 -0.1903
   12MOL    H5014271   0.305   3.293   3.867  2.4271 -0.9868 -0.5801
   12MOL    H5114272   0.323   3.249   3.625  0.1265 -0.9259  0.9552
   12MOL    H5214273   0.434   3.376   3.608 -0.4249 -0.1875 -0.6869
   12MOL    H5314274   0.599   3.262   3.764 -0.4934 -0.0552  0.5678
   12MOL    H5414275   0.498   3.127   3.770 -0.0329  0.7198  0.7959
   12MOL    H5514276   0.629   3.260   3.524  1.2754  1.3204  2.4507
   12MOL    H5614277   0.545   3.097   3.514  0.4907  0.1650 -0.3286
   12MOL    H5714278   0.699   2.992   3.676 -1.6406 -0.4760 -1.0695
   12MOL    H5814279   0.798   3.137   3.677  1.0774 -2.6145  1.1457
   12MOL    H5914280   0.730   2.987   3.416 -1.0575  2.0379 -0.3405
   12MOL    H6014281   0.866   2.949   3.516  0.6229  1.6101  0.3266
   12MOL    H6114282   0.813   3.215   3.384 -1.2451 -1.5709 -0.7874
   12MOL    H6214283   0.906   3.102   3.305  0.4371  0.4887 -0.4056
   12MOL    H6314284   0.986   3.228   3.581 -3.0319 -1.1747 -0.2665
   12MOL    H6414285   1.079   3.118   3.481 -1.6654 -1.2156 -1.3382
   12MOL    H6514286   1.120   3.279   3.307 -2.5289 -0.1271 -1.0227
   12MOL    H6614287   0.990   3.369   3.367 -1.7519 -1.0667  1.7203
   12MOL    H6714288   1.318   3.569   3.584  0.0480 -1.4560 -0.5510
   12MOL    H6814289   1.349   3.677   3.458 -1.0506 -0.2186 -1.3034
   12MOL    H6914290   1.467   3.436   3.356 -0.4456 -0.7701  0.7752
   12MOL    H7014291   1.526   3.470   3.518  0.1977  0.3757  0.6414
   12MOL    H7114292   1.673   3.589   3.355  0.4805  1.1599 -1.3203
   12MOL    H7214293   1.563   3.706   3.429  0.0760  0.8293 -1.4367
   12MOL    H7314294   1.415   3.677   3.217 -1.2207 -3.3090  0.1269
   12MOL    H7414295   1.509   3.558   3.149  0.0376  0.7037 -0.1509
   12MOL    H7514296   1.626   3.838   3.195 -2.2591  1.6811 -0.9908
   12MOL    H7614297   1.701   3.696   3.118  0.7309  1.0896  0.1210
   12MOL    H7714298   1.517   3.685   2.949  1.4052 -0.5628  0.4420
   12MOL    H7814299   1.451   3.830   3.002  0.3509  1.5717  0.1035
   12MOL    H7914300   1.684   3.939   2.946 -1.3461  0.4318  0.7308
   12MOL    H8014301   1.581   3.880   2.828 -0.8521  0.6338  1.1652
   12MOL    H8114302   1.812   3.735   2.952 -0.8552 -0.5892  0.5529
   12MOL    H8214303   1.714   3.661   2.824 -2.7985  1.2940  0.2405
   12MOL    O8314304   1.955   3.760   2.747 -0.0710  0.0020 -0.2826
   12MOL    C8414305   2.060   3.819   2.661 -0.8682  0.2335  0.3248
   12MOL    C8514306   2.198   3.823   2.726 -0.1353  0.2052 -0.0433
   12MOL    C8614307   2.305   3.864   2.622 -0.2033 -0.1284 -0.2415
   12MOL    C8714308   2.441   3.797   2.647  0.2972  0.5559  0.6598
   12MOL    C8814309   2.546   3.835   2.542 -0.3214  0.2822 -0.0682
   12MOL    C8914310   2.670   3.744   2.557  0.3906  0.8912  0.3134
   12MOL    C9014311   2.781   3.776   2.451  0.0600 -0.0427  0.2883
   12MOL    C9114312   2.767   3.684   2.331 -0.0408 -0.1965 -0.8612
   12MOL    C9214313   2.842   3.721   2.206 -0.2839  0.0784  0.7499
   12MOL    C9314314   2.764   3.700   2.072 -0.3884  0.1014  0.1338
   12MOL    O9414315   2.734   3.570   2.052  0.3591 -0.0926  0.4118
   12MOL    C9514316   2.623   3.534   1.972 -0.3326  0.1079 -0.4706
   12MOL    O9614317   2.549   3.609   1.902  0.4588 -0.0126  0.7062
   12MOL    C9714318   2.591   3.384   1.985 -0.3928 -0.5102 -0.8826
   12MOL    C9814319   2.667   3.300   1.881 -0.0984  0.1573  0.1172
   12MOL    C9914320   2.819   3.307   1.887  0.3542 -0.1620 -0.7532
   12MOL   C10014321   2.904   3.405   1.806  0.5222 -0.2503  0.2811
   12MOL   C10114322   3.059   3.398   1.822 -0.5862  0.1630  0.5191
   12MOL   C10214323   3.160   3.457   1.721 -0.1758 -0.4291  0.1824
   12MOL   C10314324   3.301   3.481   1.785  0.4726  0.3720 -0.0653
   12MOL   C10414325   3.412   3.527   1.680  0.0213  0.2642 -0.0596
   12MOL   C10514326   3.452   3.412   1.583 -0.0056  0.5190 -0.4838
   12MOL   O10614327   3.449   3.295   1.621  0.0788  0.1204  0.8407
   12MOL   H10714328   2.078   3.754   2.575 -0.9257 -1.2599  1.4271
   12MOL   H10814329   2.043   3.921   2.628  1.7656  0.6704  0.2243
   12MOL   H10914330   2.191   3.881   2.818 -0.8976 -1.2367  0.8295
   12MOL   H11014331   2.226   3.725   2.764 -0.2700  0.4722  0.7419
   12MOL   H11114332   2.269   3.833   2.524  0.2934 -0.0275 -0.4601
   12MOL   H11214333   2.310   3.973   2.625  2.4362 -0.2215  0.1199
   12MOL   H11314334   2.483   3.820   2.745  0.2454  1.5210  0.4636
   12MOL   H11414335   2.426   3.689   2.640 -1.8862  0.8611  0.3816
   12MOL   H11514336   2.581   3.936   2.564  0.4218  0.0530 -0.1927
   12MOL   H11614337   2.499   3.830   2.444 -0.7325  1.2192  0.0721
   12MOL   H11714338   2.628   3.646   2.533 -1.7628  2.0765 -0.9889
   12MOL   H11814339   2.699   3.742   2.661  1.1060 -0.1232  0.0982
   12MOL   H11914340   2.883   3.770   2.490 -0.2645  2.1381  1.5903
   12MOL   H12014341   2.772   3.876   2.408 -3.1460 -0.0512  0.8407
   12MOL   H12114342   2.662   3.676   2.301 -0.0416 -0.9243 -0.6758
   12MOL   H12214343   2.782   3.580   2.361  0.1812 -0.3281 -1.4262
   12MOL   H12314344   2.870   3.827   2.204  1.9531 -0.4970 -1.4739
   12MOL   H12414345   2.933   3.662   2.205 -0.7520 -0.6610  1.2031
   12MOL   H12514346   2.666   3.748   2.066 -0.1930  0.3999 -0.6842
   12MOL   H12614347   2.824   3.744   1.993  0.5131 -1.4612 -0.0750
   12MOL   H12714348   2.487   3.366   1.961 -0.9708  0.7785  0.5604
   12MOL   H12814349   2.605   3.358   2.090 -2.4048 -0.3464 -0.5626
   12MOL   H12914350   2.625   3.312   1.781 -1.4063 -1.0611  0.5051
   12MOL   H13014351   2.638   3.199   1.908 -0.0688 -0.4728 -2.0817
   12MOL   H13114352   2.854   3.210   1.852 -2.9183 -1.9413  0.7289
   12MOL   H13214353   2.847   3.312   1.992 -0.2214  0.8754 -0.6474
   12MOL   H13314354   2.867   3.506   1.821 -0.9191 -0.5245 -1.3710
   12MOL   H13414355   2.864   3.396   1.705  0.8181  1.6067 -0.0073
   12MOL   H13514356   3.084   3.439   1.920 -0.6110  1.1816  0.1049
   12MOL   H13614357   3.087   3.294   1.840  1.4700  0.7874  1.0777
   12MOL   H13714358   3.174   3.391   1.635 -2.3758 -0.0092 -0.5155
   12MOL   H13814359   3.138   3.556   1.682  2.1418 -0.3938 -1.1050
   12MOL   H13914360   3.334   3.390   1.834  1.3181  0.9132  0.3685
   12MOL   H14014361   3.302   3.559   1.860 -0.9237  1.2154 -0.9099
   12MOL   H14114362   3.373   3.609   1.619  0.6852  1.7462  1.4618
   12MOL   H14214363   3.503   3.565   1.727  0.5561  0.0784 -0.9416
   12MOL   O14314364   3.500   3.451   1.459 -0.2039 -0.3807 -0.2016
   12MOL   C14414365   3.551   3.363   1.367  0.0838 -0.3626  0.4141
   12MOL   C14514366   3.698   3.333   1.390  0.2544  0.1290  0.2951
   12MOL   C14614367   3.782   3.451   1.340  0.1207 -0.3574 -0.1063
   12MOL   C14714368   3.924   3.444   1.392 -0.7648  0.5591 -0.1754
   12MOL   C14814369   4.016   3.554   1.338 -0.5553 -0.3075  0.7964
   12MOL   C14914370   4.149   3.541   1.407 -0.0742 -0.0593  0.0627
   12MOL   C15014371   4.265   3.623   1.349  0.4494  0.1269  0.1545
   12MOL   C15114372   4.391   3.623   1.435  0.6063 -0.1461 -0.1660
   12MOL   C15214373   4.493   3.726   1.381 -0.1071  0.3929  0.8375
   12MOL   C15314374   4.635   3.707   1.439  0.4898 -0.2677 -0.1477
   12MOL   O15414375   4.629   3.737   1.581 -0.1227 -0.4867  0.1785
   12MOL   C15514376   4.616   3.862   1.625  0.2015 -0.1425  0.5359
   12MOL   O15614377   4.615   3.973   1.563  0.1958  0.0919  0.4543
   12MOL   C15714378   4.601   3.862   1.781  0.4663 -0.3927  0.3643
   12MOL   C15814379   4.462   3.830   1.850 -0.1048  0.4035  0.4732
   12MOL   C15914380   4.434   3.677   1.848 -0.3524  0.2553 -0.9722
   12MOL   C16014381   4.303   3.631   1.923 -0.4360 -0.0163 -0.0245
   12MOL   C16114382   4.174   3.683   1.853 -0.4956  0.1250 -0.3903
   12MOL   C16214383   4.042   3.613   1.898 -0.9228  0.0107 -0.2954
   12MOL   C16314384   3.937   3.604   1.787 -0.4565 -0.1513  0.1320
   12MOL   C16414385   3.797   3.540   1.811  0.1019 -0.4382 -0.4068
   12MOL   C16514386   3.800   3.390   1.797 -0.4184 -0.1476 -0.4184
   12MOL   O16614387   3.880   3.331   1.725  0.3823  0.0470  0.0851
   12MOL   H16714388   3.496   3.269   1.374  0.1240 -0.3412  1.0591
   12MOL   H16814389   3.529   3.415   1.274  0.7631 -0.8067  0.0006
   12MOL   H16914390   3.721   3.299   1.491  0.1207  0.5965  0.4828
   12MOL   H17014391   3.714   3.243   1.330  1.1184  0.6013 -0.2001
   12MOL   H17114392   3.785   3.447   1.232 -1.8065  1.2749 -0.2548
   12MOL   H17214393   3.742   3.549   1.367 -0.1389 -0.3500 -0.5172
   12MOL   H17314394   3.925   3.433   1.500  0.8263 -0.7871 -0.3010
   12MOL   H17414395   3.966   3.349   1.359 -0.3186 -0.0103  1.9783
   12MOL   H17514396   3.987   3.654   1.369 -0.4250  0.1135 -0.4307
   12MOL   H17614397   4.038   3.560   1.232  0.0522 -2.7938  0.7529
   12MOL   H17714398   4.179   3.436   1.402  1.1084  0.1990  1.3637
   12MOL   H17814399   4.139   3.575   1.511  4.4849 -0.7777  0.8323
   12MOL   H17914400   4.231   3.726   1.343  2.6209  0.8905  0.4872
   12MOL   H18014401   4.280   3.593   1.245 -1.2008 -1.4258  0.3467
   12MOL   H18114402   4.428   3.521   1.442  0.3116 -0.4565 -2.7274
   12MOL   H18214403   4.362   3.628   1.540  0.4463 -0.7746 -0.1753
   12MOL   H18314404   4.500   3.724   1.272  0.6782  0.4188  0.8875
   12MOL   H18414405   4.463   3.829   1.396  0.3390  0.5108  0.9256
   12MOL   H18514406   4.666   3.603   1.427  0.5435 -0.3502  0.6594
   12MOL   H18614407   4.696   3.780   1.386  2.5620 -1.0151  1.1599
   12MOL   H18714408   4.602   3.969   1.801 -3.9331  0.5980 -3.6318
   12MOL   H18814409   4.680   3.804   1.827  1.2595 -1.3523 -2.1925
   12MOL   H18914410   4.388   3.886   1.794  0.7030  0.4680 -0.5491
   12MOL   H19014411   4.464   3.866   1.953 -0.7472  0.3687  0.5006
   12MOL   H19114412   4.526   3.628   1.881  0.0437  2.9039  2.1761
   12MOL   H19214413   4.433   3.647   1.744  1.5071  0.5331 -1.0995
   12MOL   H19314414   4.301   3.673   2.024  1.6337  2.3484 -0.9019
   12MOL   H19414415   4.299   3.522   1.932 -1.8688 -0.0084 -0.4450
   12MOL   H19514416   4.173   3.791   1.865  0.9787  0.1543 -0.4743
   12MOL   H19614417   4.184   3.676   1.744  1.3520  0.6289 -0.2757
   12MOL   H19714418   4.071   3.511   1.925  0.9125  1.6553  4.4452
   12MOL   H19814419   4.015   3.661   1.992  1.7886 -3.4866  2.4053
   12MOL   H19914420   3.987   3.551   1.705 -0.1652 -0.9728  0.8297
   12MOL   H20014421   3.929   3.710   1.763  1.1658 -0.0006  0.2011
   12MOL   H20114422   3.764   3.576   1.909 -0.4888 -0.9809 -0.4086
   12MOL   H20214423   3.719   3.576   1.744 -1.7288 -1.5756  1.0731
   12MOL   H20314424   3.733   3.338   1.866 -1.3476  0.9142 -0.5058
   13MOL     O114425   4.375   6.587   5.030  0.4856 -0.4148 -0.0119
   13MOL     C214426   4.495   6.561   5.097  0.6688 -0.0105  0.0535
   13MOL     C314427   4.587   6.478   5.000 -0.5346 -0.2970 -0.3607
   13MOL     C414428   4.729   6.459   5.050  0.5261 -0.0671  0.1299
   13MOL     C514429   4.835   6.421   4.949 -0.3101  0.2564 -0.6085
   13MOL     C614430   4.966   6.375   5.022  0.0037 -0.2670  0.1785
   13MOL     C714431   5.090   6.352   4.922 -0.0144 -0.1057  1.0941
   13MOL     C814432   5.219   6.295   4.980  0.4399  0.6411  0.6316
   13MOL     C914433   5.331   6.293   4.882  0.4363  0.6168 -0.0778
   13MOL    C1014434   5.464   6.219   4.927  0.4973 -0.0405 -0.6453
   13MOL    C1114435   5.546   6.279   5.038 -0.0262  0.3938 -0.0093
   13MOL    O1214436   5.646   6.186   5.081 -0.2913 -0.3782 -0.6107
   13MOL    C1314437   5.772   6.191   5.024 -0.1133 -0.7137  0.1311
   13MOL    O1414438   5.805   6.261   4.931  0.3102 -0.4356 -0.1694
   13MOL    C1514439   5.867   6.089   5.086  0.1447  0.1234 -0.8829
   13MOL    C1614440   5.833   5.939   5.070  0.2276  0.2744 -0.5078
   13MOL    C1714441   5.837   5.884   4.928 -0.4477  0.0714 -0.9910
   13MOL    C1814442   5.847   5.727   4.926  0.1746  0.0735 -0.3266
   13MOL    C1914443   5.901   5.668   4.790 -0.0759  0.4703 -0.3033
   13MOL    C2014444   5.800   5.676   4.676  0.7572 -0.0173  0.1558
   13MOL    C2114445   5.707   5.549   4.666  0.2168 -0.1086 -0.4705
   13MOL    C2214446   5.675   5.509   4.522  0.0413 -0.8510 -0.2297
   13MOL    C2314447   5.620   5.370   4.502 -0.0802 -0.5039  1.1916
   13MOL    O2414448   5.656   5.302   4.407  0.0447  0.1676  0.2055
   13MOL    H2514449   4.546   6.656   5.107  0.1470  0.3119 -0.3307
   13MOL    H2614450   4.474   6.506   5.189  0.7510 -0.8970 -0.4473
   13MOL    H2714451   4.532   6.384   4.992 -1.1595  0.1577 -1.4949
   13MOL    H2814452   4.587   6.525   4.902  0.6319  0.1601 -0.1549
   13MOL    H2914453   4.762   6.552   5.095  2.6268 -0.3163 -0.8819
   13MOL    H3014454   4.722   6.387   5.131  0.5970 -0.1812  0.0345
   13MOL    H3114455   4.804   6.339   4.884  0.6726 -0.1809 -0.5370
   13MOL    H3214456   4.852   6.503   4.879 -1.9273  0.4924 -0.7465
   13MOL    H3314457   4.941   6.286   5.078  0.3142 -2.2488 -2.6987
   13MOL    H3414458   5.001   6.451   5.091  2.7907  1.0986 -2.5977
   13MOL    H3514459   5.129   6.444   4.877 -0.0691 -0.9620 -0.7442
   13MOL    H3614460   5.054   6.284   4.845  1.7643  0.9658 -0.7315
   13MOL    H3714461   5.195   6.196   5.018  1.3207  0.9665  2.0440
   13MOL    H3814462   5.245   6.361   5.062 -1.4040  1.0604  0.9048
   13MOL    H3914463   5.355   6.397   4.859 -3.3731  1.2608 -1.3903
   13MOL    H4014464   5.297   6.237   4.795 -0.8620  1.1875  0.0534
   13MOL    H4114465   5.429   6.120   4.956 -1.9856  0.8669 -0.3617
   13MOL    H4214466   5.531   6.210   4.841  2.0611 -2.9986  0.8389
   13MOL    H4314467   5.587   6.376   5.013  1.1852 -0.2581 -0.5976
   13MOL    H4414468   5.479   6.298   5.122  0.0617  1.5123 -0.1848
   13MOL    H4514469   5.862   6.130   5.187  0.8406  0.3883 -0.9513
   13MOL    H4614470   5.969   6.106   5.053  0.6210 -0.3896  0.2950
   13MOL    H4714471   5.730   5.923   5.101  0.2078  1.9125  0.3303
   13MOL    H4814472   5.897   5.885   5.140  0.5652  1.3134  0.0035
   13MOL    H4914473   5.929   5.929   4.891 -1.0419  0.8093 -1.5902
   13MOL    H5014474   5.753   5.905   4.862 -1.7533 -1.3556  0.1620
   13MOL    H5114475   5.753   5.689   4.965  0.1812 -1.7047 -2.0073
   13MOL    H5214476   5.926   5.720   5.001 -1.3085 -1.0857  1.1506
   13MOL    H5314477   5.997   5.716   4.774  1.0585 -1.1277  1.4257
   13MOL    H5414478   5.926   5.562   4.798  1.3380  0.4654 -4.0877
   13MOL    H5514479   5.729   5.757   4.693 -0.1668 -1.0099  1.0713
   13MOL    H5614480   5.850   5.687   4.580 -0.1851  1.7503 -0.1474
   13MOL    H5714481   5.614   5.571   4.718  0.5952  0.6344 -0.1052
   13MOL    H5814482   5.747   5.461   4.716  1.4450  1.6223  1.6606
   13MOL    H5914483   5.612   5.580   4.468  0.1185  0.2550  1.1050
   13MOL    H6014484   5.772   5.495   4.476  0.9517  2.6242  0.5380
   13MOL    H6114485   4.386   6.654   4.963  0.5693  0.8663  1.2490
   13MOL    O6214486   5.540   5.333   4.599  0.2984 -0.7055 -0.4037
   13MOL    C6314487   5.495   5.197   4.607  0.4358  0.0705 -0.6165
   13MOL    C6414488   5.491   5.145   4.754 -0.4562  0.0534 -0.0984
   13MOL    C6514489   5.397   5.225   4.844 -0.2702  0.3000 -1.0832
   13MOL    C6614490   5.345   5.155   4.972  0.0660  0.8935  0.0645
   13MOL    C6714491   5.283   5.012   4.957  0.2141  0.6918  0.7467
   13MOL    C6814492   5.247   4.942   5.091  0.5473  0.1437  0.2903
   13MOL    C6914493   5.153   4.825   5.055 -0.7552  0.0593  0.1737
   13MOL    C7014494   5.226   4.692   5.019 -0.5365 -0.6240  0.8771
   13MOL    C7114495   5.279   4.616   5.152 -0.4767 -0.4822  0.2858
   13MOL    C7214496   5.255   4.466   5.140 -0.4848 -0.3522 -0.2341
   13MOL    O7314497   5.339   4.405   5.041  0.0107 -0.3871  0.0418
   13MOL    C7414498   5.437   4.328   5.078  0.1018  0.3810 -0.9662
   13MOL    O7514499   5.456   4.279   5.194  0.0943  0.3120 -0.2506
   13MOL    C7614500   5.529   4.290   4.964  0.6625 -0.0213 -0.0590
   13MOL    C7714501   5.443   4.237   4.839 -0.1402  0.3798  0.3035
   13MOL    C7814502   5.357   4.118   4.875 -0.2469 -0.3814  0.5777
   13MOL    C7914503   5.277   4.061   4.754  0.0656  0.1367  0.4434
   13MOL    C8014504   5.360   3.993   4.643  0.2750 -0.4534  0.1016
   13MOL    C8114505   5.260   3.970   4.520 -0.2094 -0.1046 -0.1585
   13MOL    C8214506   5.283   3.850   4.429  0.8985 -0.0640  0.0803
   13MOL    C8314507   5.423   3.837   4.376 -0.7563  0.3784 -0.1557
   13MOL    C8414508   5.484   3.955   4.294 -0.3044  0.0893  0.3181
   13MOL    O8514509   5.511   3.936   4.176 -0.1272 -0.2984  0.1412
   13MOL    H8614510   5.399   5.220   4.562  0.4194  0.4544 -0.3866
   13MOL    H8714511   5.545   5.123   4.544 -0.7251 -1.4070  0.1382
   13MOL    H8814512   5.464   5.040   4.743  1.6594 -0.6596  1.1535
   13MOL    H8914513   5.591   5.145   4.799  0.4301  2.5222 -1.9273
   13MOL    H9014514   5.456   5.315   4.865  0.6153 -0.6762  0.6720
   13MOL    H9114515   5.310   5.249   4.782 -1.0802 -0.3561 -0.2130
   13MOL    H9214516   5.419   5.147   5.052  1.2824 -0.4656 -1.1660
   13MOL    H9314517   5.262   5.219   5.002 -0.3784  1.3281 -1.9969
   13MOL    H9414518   5.340   4.944   4.894 -0.1817 -0.4965  1.6523
   13MOL    H9514519   5.197   5.034   4.894  1.0287  0.1709 -0.5778
   13MOL    H9614520   5.193   5.008   5.158  1.1976  0.1592  0.8071
   13MOL    H9714521   5.340   4.912   5.141  1.3026  3.4921  1.0185
   13MOL    H9814522   5.076   4.859   4.986  0.1313  1.5712 -0.0883
   13MOL    H9914523   5.092   4.812   5.145 -1.3937 -1.3428 -0.4540
   13MOL   H10014524   5.310   4.704   4.950  0.2010 -2.0310  1.4995
   13MOL   H10114525   5.154   4.632   4.964 -0.6674 -1.4689  1.9443
   13MOL   H10214526   5.386   4.627   5.173 -1.0125 -0.1051  2.9592
   13MOL   H10314527   5.232   4.667   5.235  1.0770  1.1232  0.2171
   13MOL   H10414528   5.255   4.413   5.235 -0.1343  0.9767  0.5280
   13MOL   H10514529   5.157   4.439   5.102 -0.4634  2.0095 -2.0483
   13MOL   H10614530   5.581   4.203   5.003  1.8735  1.5267  1.8432
   13MOL   H10714531   5.608   4.365   4.959  0.1945  0.5156  0.3538
   13MOL   H10814532   5.513   4.215   4.758 -0.4113 -2.5121  0.7768
   13MOL   H10914533   5.386   4.320   4.797 -0.3142 -0.5165 -1.2774
   13MOL   H11014534   5.278   4.146   4.944 -0.2535  3.3692 -0.8700
   13MOL   H11114535   5.424   4.040   4.911 -0.3600 -0.3664  0.8191
   13MOL   H11214536   5.227   4.149   4.713  1.6794  0.5508 -0.6821
   13MOL   H11314537   5.199   3.992   4.786  1.9166 -2.8866 -1.3513
   13MOL   H11414538   5.435   4.063   4.606  1.6688 -2.0751 -0.2247
   13MOL   H11514539   5.410   3.903   4.676 -2.3448 -1.4531  1.4704
   13MOL   H11614540   5.160   3.970   4.564  0.6544 -1.5346  1.8635
   13MOL   H11714541   5.263   4.059   4.458 -0.7322  0.9403  1.2824
   13MOL   H11814542   5.225   3.855   4.337 -2.4537 -1.3334  2.0378
   13MOL   H11914543   5.240   3.759   4.472 -0.4357 -0.0339 -1.1443
   13MOL   H12014544   5.501   3.815   4.449  0.7064  0.0032 -1.7912
   13MOL   H12114545   5.435   3.757   4.304  0.2231  1.1272 -0.8345
   13MOL   O12214546   5.505   4.073   4.351 -0.3642  0.0342  0.3638
   13MOL   C12314547   5.588   4.166   4.273  0.3041 -0.3429  0.5174
   13MOL   C12414548   5.624   4.285   4.368 -0.2932 -0.4333 -0.7558
   13MOL   C12514549   5.513   4.377   4.410  1.2396  0.6142  0.2207
   13MOL   C12614550   5.559   4.487   4.509  0.2933  0.8197 -0.1722
   13MOL   C12714551   5.446   4.550   4.600 -0.5403  0.3155 -0.1678
   13MOL   C12814552   5.342   4.631   4.529 -0.9047 -0.8708 -0.3427
   13MOL   C12914553   5.248   4.693   4.625  0.3969 -0.1080 -0.0327
   13MOL   C13014554   5.155   4.798   4.554 -0.4768 -0.4060 -0.3642
   13MOL   C13114555   5.053   4.840   4.661 -0.0654 -0.4128  1.1352
   13MOL   C13214556   4.959   4.951   4.622  0.3680 -0.3172  0.4569
   13MOL   O13314557   4.901   4.919   4.495 -0.1651  0.3021  0.2310
   13MOL   C13414558   4.848   5.013   4.422  0.6553  0.5055 -0.0436
   13MOL   O13514559   4.871   5.134   4.433 -0.3261  0.7116 -0.1641
   13MOL   C13614560   4.780   4.964   4.299  0.2652  0.0940 -0.4019
   13MOL   C13714561   4.662   4.868   4.332  0.1985  0.6434  0.0018
   13MOL   C13814562   4.526   4.941   4.358 -0.5014  0.6439 -0.7788
   13MOL   C13914563   4.526   5.034   4.490 -0.0467 -0.0002  0.6981
   13MOL   C14014564   4.389   5.057   4.563  0.4428  0.0617  0.7086
   13MOL   C14114565   4.338   4.940   4.633 -0.8563  0.6766 -0.3825
   13MOL   C14214566   4.254   4.967   4.756 -0.0406  0.4544  0.6431
   13MOL   C14314567   4.299   5.057   4.871  0.0875 -0.0852  0.8510
   13MOL   C14414568   4.433   5.022   4.936 -0.4944  0.4630  0.5812
   13MOL   O14514569   4.440   4.971   5.045 -0.0913 -0.0593 -0.0125
   13MOL   H14614570   5.677   4.114   4.238  0.2893  0.9233 -1.4465
   13MOL   H14714571   5.531   4.195   4.185 -1.3325 -0.5300  1.4835
   13MOL   H14814572   5.674   4.252   4.459  0.5964 -0.0666 -1.1110
   13MOL   H14914573   5.699   4.342   4.313 -0.3481 -1.4240 -1.8898
   13MOL   H15014574   5.464   4.411   4.318 -1.8704 -2.9301  0.4557
   13MOL   H15114575   5.435   4.317   4.457  0.1890  0.9076 -1.1277
   13MOL   H15214576   5.612   4.440   4.592 -0.7451 -0.1840 -0.0716
   13MOL   H15314577   5.631   4.549   4.456  3.2510 -1.6943  0.7526
   13MOL   H15414578   5.504   4.618   4.662 -0.9562 -0.3678  0.9707
   13MOL   H15514579   5.391   4.478   4.661 -1.2967  0.1521 -1.0245
   13MOL   H15614580   5.279   4.571   4.463 -2.4500 -2.7332  2.7588
   13MOL   H15714581   5.386   4.715   4.474  0.1098 -0.6614  0.7598
   13MOL   H15814582   5.314   4.750   4.691  0.3457 -0.5783  0.4263
   13MOL   H15914583   5.195   4.608   4.669  0.5744 -0.4298 -0.4287
   13MOL   H16014584   5.107   4.752   4.468  3.6997 -0.8344 -2.6175
   13MOL   H16114585   5.214   4.882   4.518  0.3302 -1.8728 -2.5679
   13MOL   H16214586   4.997   4.755   4.700  1.3375 -1.9875 -0.2166
   13MOL   H16314587   5.104   4.887   4.746  0.6707 -0.8164  0.9174
   13MOL   H16414588   4.886   4.969   4.700  0.0851  1.0645 -0.1116
   13MOL   H16514589   5.008   5.049   4.618 -0.0325 -0.1531 -0.4782
   13MOL   H16614590   4.846   4.899   4.242  0.6322  1.5236 -1.6482
   13MOL   H16714591   4.751   5.043   4.229  1.6369 -0.8627 -2.1023
   13MOL   H16814592   4.688   4.797   4.410  2.2991  1.4475  0.0794
   13MOL   H16914593   4.648   4.807   4.243 -1.6113 -0.9956  1.3784
   13MOL   H17014594   4.446   4.867   4.363 -1.4926  1.7541  0.1277
   13MOL   H17114595   4.503   5.005   4.273 -2.0381  0.1866 -0.7272
   13MOL   H17214596   4.569   5.130   4.463  1.5827 -1.4151 -1.9061
   13MOL   H17314597   4.599   5.002   4.564 -0.9273 -1.2907  1.0342
   13MOL   H17414598   4.394   5.143   4.628 -0.4998  1.8587 -1.5305
   13MOL   H17514599   4.312   5.079   4.489  1.2123  1.9547  0.4416
   13MOL   H17614600   4.279   4.875   4.568  0.4081 -1.6102  0.6706
   13MOL   H17714601   4.425   4.884   4.667 -1.2214  1.5253  2.0769
   13MOL   H17814602   4.234   4.868   4.795  1.0571 -0.4663 -1.0599
   13MOL   H17914603   4.165   5.012   4.712  0.3120  1.9458  1.4013
   13MOL   H18014604   4.300   5.162   4.845 -0.5709  0.2583  2.1722
   13MOL   H18114605   4.213   5.038   4.937  0.5365 -1.6868  1.0144
   13MOL   O18214606   4.528   5.026   4.840 -0.2198 -0.0368  1.1430
   13MOL   C18314607   4.662   4.996   4.881 -0.2124 -0.3150 -0.4544
   13MOL   C18414608   4.721   5.081   4.993  0.4402  0.6826 -0.1683
   13MOL   C18514609   4.866   5.053   5.027  0.5656 -0.2255 -1.0394
   13MOL   C18614610   4.910   5.141   5.141 -0.0581  0.4796 -0.6429
   13MOL   C18714611   4.937   5.285   5.106 -0.0241 -0.3576 -0.3158
   13MOL   C18814612   4.971   5.378   5.225 -0.0308  0.0851 -0.7785
   13MOL   C18914613   5.026   5.513   5.179 -0.4756 -0.4390 -0.1720
   13MOL   C19014614   5.174   5.502   5.144 -0.0667  0.1826 -0.1416
   13MOL   C19114615   5.262   5.547   5.263 -0.2654  0.3993  0.6168
   13MOL   C19214616   5.422   5.546   5.240 -0.1770 -0.0175  0.0282
   13MOL   O19314617   5.465   5.661   5.179 -0.3455 -0.2584 -0.1704
   13MOL   C19414618   5.477   5.658   5.049 -0.9238 -0.5073  0.1782
   13MOL   O19514619   5.450   5.556   4.984  0.3886  0.3443 -0.3322
   13MOL   C19614620   5.506   5.792   4.990  0.9885  0.0335  0.0853
   13MOL   C19714621   5.380   5.830   4.905  0.0526  0.3634 -0.0806
   13MOL   C19814622   5.259   5.874   4.980 -0.3136  0.1801 -0.4211
   13MOL   C19914623   5.130   5.911   4.904  0.3722 -0.9422  1.1736
   13MOL   C20014624   5.008   5.929   4.990  0.0388 -0.3623 -0.3828
   13MOL   C20114625   4.897   6.018   4.923  0.3652  0.3476  0.0885
   13MOL   C20214626   4.763   6.010   5.000  0.2313  0.4073 -0.4188
   13MOL   C20314627   4.640   6.065   4.924 -0.3805  0.2215  0.1048
   13MOL   C20414628   4.501   6.032   4.981  0.0938 -0.5197  0.7456
   13MOL   O20514629   4.491   5.951   5.070 -0.2072  0.0535  0.0833
   13MOL   H20614630   4.647   4.900   4.930 -2.5220 -0.1786 -0.8040
   13MOL   H20714631   4.710   4.995   4.783 -1.4482 -0.0513 -1.0792
   13MOL   H20814632   4.710   5.187   4.971  1.4503  0.8186 -0.0716
   13MOL   H20914633   4.662   5.042   5.076 -1.3557 -2.3308 -2.7404
   13MOL   H21014634   4.881   4.950   5.061  1.8126  0.8082  1.7407
   13MOL   H21114635   4.928   5.073   4.939  0.6544  0.7078 -0.7692
   13MOL   H21214636   4.838   5.129   5.223  0.4576 -1.5511 -0.4691
   13MOL   H21314637   5.002   5.099   5.180 -1.4705 -3.5595 -1.4404
   13MOL   H21414638   4.854   5.337   5.059 -0.5841 -1.3606 -0.4254
   13MOL   H21514639   5.022   5.280   5.038  0.5285 -2.4316  0.5113
   13MOL   H21614640   5.035   5.333   5.301 -1.0086  1.8621  1.1524
   13MOL   H21714641   4.877   5.388   5.280  1.7612  0.2537  2.3559
   13MOL   H21814642   4.990   5.587   5.251  0.6121  0.2451 -0.3190
   13MOL   H21914643   4.966   5.522   5.089 -0.4048 -1.5523 -0.3426
   13MOL   H22014644   5.196   5.564   5.057  0.4738  0.0175 -0.1271
   13MOL   H22114645   5.201   5.401   5.115 -2.3967 -0.6390  0.4855
   13MOL   H22214646   5.230   5.647   5.295 -0.1177  1.1625 -1.5369
   13MOL   H22314647   5.235   5.478   5.343 -1.2340  1.0563  0.8658
   13MOL   H22414648   5.473   5.555   5.336 -2.2933 -2.7530  1.4859
   13MOL   H22514649   5.448   5.450   5.195  0.2030  0.1207 -0.0497
   13MOL   H22614650   5.587   5.783   4.919  2.2521 -0.8189  1.6078
   13MOL   H22714651   5.521   5.870   5.065 -0.2163 -0.4017  0.8080
   13MOL   H22814652   5.353   5.755   4.830 -0.4863  2.1129 -1.6919
   13MOL   H22914653   5.409   5.914   4.841  0.5458 -1.5157 -2.3808
   13MOL   H23014654   5.297   5.951   5.046  1.7185  0.2151 -1.5635
   13MOL   H23114655   5.228   5.800   5.054  0.3474 -0.3050 -0.6137
   13MOL   H23214656   5.106   5.826   4.841 -0.7946 -0.0500  0.3955
   13MOL   H23314657   5.149   5.995   4.837  3.8125 -1.3756  1.5028
   13MOL   H23414658   4.967   5.831   5.016 -2.2836  0.7999  0.5605
   13MOL   H23514659   5.036   5.961   5.091 -0.0401  0.0869 -0.4983
   13MOL   H23614660   4.919   6.124   4.922 -1.0891  0.6684 -1.0007
   13MOL   H23714661   4.882   5.990   4.818 -2.7801  2.3528 -0.0725
   13MOL   H23814662   4.776   6.053   5.100 -1.2382 -0.1583  0.0329
   13MOL   H23914663   4.757   5.902   5.015  1.2793  0.6394  1.8726
   13MOL   H24014664   4.660   6.172   4.935 -2.3961  0.8558 -2.0272
   13MOL   H24114665   4.649   6.036   4.819 -1.5844 -2.1727  0.6302
   13MOL   O24214666   4.394   6.086   4.923  0.0657 -0.8231  0.3086
   13MOL   C24314667   4.271   6.045   4.978  1.1044 -0.0408  0.1601
   13MOL   C24414668   4.151   6.131   4.938  0.1691  0.6524 -0.3138
   13MOL   C24514669   4.153   6.269   5.003  0.2766  0.7097 -0.1744
   13MOL   C24614670   4.093   6.283   5.147 -0.2393 -0.3500 -0.8483
   13MOL   C24714671   4.112   6.426   5.203  0.2373 -0.2074  0.2602
   13MOL   C24814672   4.034   6.442   5.337  0.2731 -0.1831 -0.2689
   13MOL   C24914673   4.032   6.589   5.385 -0.2104  0.2681 -0.0354
   13MOL   C25014674   3.971   6.600   5.526 -0.0578  0.5089  0.3722
   13MOL   C25114675   3.948   6.747   5.559  0.5941 -0.4885  0.3473
   13MOL   C25214676   3.880   6.761   5.702 -0.1650 -0.5924 -0.0266
   13MOL   O25314677   3.764   6.685   5.726 -0.0691  0.0820 -0.2645
   13MOL   C25414678   3.653   6.723   5.677 -0.2572 -0.4959 -0.1966
   13MOL   O25514679   3.632   6.824   5.624  0.0753 -0.4783  0.0063
   13MOL   C25614680   3.544   6.615   5.679  0.6389 -0.1523 -0.4316
   13MOL   C25714681   3.461   6.608   5.804 -0.3328 -0.0867 -0.2311
   13MOL   C25814682   3.532   6.513   5.909 -0.3337 -0.7317 -0.1498
   13MOL   C25914683   3.461   6.500   6.045 -0.7880  0.3060 -0.0150
   13MOL   C26014684   3.425   6.351   6.091 -0.4511 -0.7458  0.1616
   13MOL   C26114685   3.338   6.350   6.221  0.2406 -0.6190  0.5678
   13MOL   C26214686   3.327   6.201   6.277 -0.4013 -0.4229  0.7394
   13MOL   C26314687   3.221   6.184   6.390  1.0325 -0.1894  0.9387
   13MOL   C26414688   3.077   6.193   6.331  0.3625  0.7809  0.2154
   13MOL   O26514689   3.027   6.100   6.260  0.0611 -0.1874  0.1415
   13MOL   H26614690   4.245   5.946   4.941 -2.4144  1.2784 -1.1425
   13MOL   H26714691   4.265   6.056   5.086 -1.6345  0.4251 -0.0182
   13MOL   H26814692   4.149   6.142   4.829 -0.9727  1.3942 -0.2354
   13MOL   H26914693   4.056   6.083   4.961  1.1606 -1.9136 -1.3166
   13MOL   H27014694   4.254   6.307   4.992  1.4484 -2.5732 -1.2907
   13MOL   H27114695   4.092   6.341   4.949  0.2553  0.8908  0.0932
   13MOL   H27214696   3.985   6.278   5.139 -0.3928  1.3427 -0.1743
   13MOL   H27314697   4.129   6.208   5.218 -1.1268 -0.2191 -0.2587
   13MOL   H27414698   4.060   6.493   5.134 -1.5307 -1.2179  0.5977
   13MOL   H27514699   4.216   6.458   5.211  0.7115 -1.9465  1.1842
   13MOL   H27614700   4.077   6.383   5.418 -0.8657  0.5965  0.9077
   13MOL   H27714701   3.933   6.404   5.323  0.4146 -0.7909  0.3077
   13MOL   H27814702   3.992   6.662   5.315 -1.8764  0.7079  1.3227
   13MOL   H27914703   4.138   6.606   5.399 -0.2862  1.1576 -0.5364
   13MOL   H28014704   4.035   6.533   5.585  0.5654  0.5334 -0.2614
   13MOL   H28114705   3.879   6.543   5.537 -0.6746  1.0407 -1.9824
   13MOL   H28214706   4.040   6.805   5.555  0.3741 -0.2416 -1.6239
   13MOL   H28314707   3.879   6.787   5.485  0.4682  0.5763  1.0224
   13MOL   H28414708   3.955   6.725   5.773  0.6120 -0.0554 -0.5670
   13MOL   H28514709   3.857   6.867   5.714 -0.1794 -0.1936 -3.1364
   13MOL   H28614710   3.592   6.517   5.673 -0.3186 -0.6219 -0.5114
   13MOL   H28714711   3.475   6.638   5.598 -0.6563 -2.0823  0.0822
   13MOL   H28814712   3.365   6.560   5.787 -0.3784  0.5352 -1.9017
   13MOL   H28914713   3.437   6.708   5.839  2.6857  0.9651 -0.9665
   13MOL   H29014714   3.628   6.563   5.923 -1.0119  1.2599 -2.1910
   13MOL   H29114715   3.541   6.420   5.853  1.4933 -0.6512  0.0110
   13MOL   H29214716   3.361   6.543   6.040 -1.8391 -1.9623  0.6052
   13MOL   H29314717   3.508   6.554   6.127  0.6091  1.5888 -1.6138
   13MOL   H29414718   3.363   6.316   6.008 -0.5308  0.4477 -0.2935
   13MOL   H29514719   3.511   6.287   6.105  0.2977 -0.2471 -1.9737
   13MOL   H29614720   3.394   6.404   6.297  0.6526  0.3397 -0.4091
   13MOL   H29714721   3.242   6.400   6.209  0.4444 -0.4853 -0.5935
   13MOL   H29814722   3.427   6.168   6.306 -0.5224  1.8167  3.8839
   13MOL   H29914723   3.298   6.137   6.193  1.6223  1.6132 -1.5854
   13MOL   H30014724   3.222   6.083   6.429  0.9403 -1.0998 -1.3344
   13MOL   H30114725   3.227   6.253   6.474  1.8802  0.2822  0.5043
   13MOL   O30214726   3.024   6.304   6.360  0.1898  0.2519  0.0160
   13MOL   C30314727   2.890   6.331   6.332  0.1011  0.2266 -0.4808
   13MOL   C30414728   2.866   6.475   6.379 -0.1319  0.3698  0.1735
   13MOL   C30514729   2.947   6.584   6.303  0.2995  0.5335  0.4723
   13MOL   C30614730   2.934   6.733   6.352  0.4286  0.0484  0.5198
   13MOL   C30714731   3.007   6.826   6.259 -0.5196  0.1099 -0.0367
   13MOL   C30814732   2.991   6.973   6.304 -0.1096 -0.3362  0.9472
   13MOL   C30914733   3.050   7.080   6.211  0.1243 -0.3842 -0.1018
   13MOL   C31014734   2.978   7.219   6.200  0.4885  0.0373  0.2424
   13MOL   C31114735   2.973   7.290   6.330 -0.5427  0.1137  0.3159
   13MOL   C31214736   2.912   7.430   6.309  0.7480 -0.2778  0.5419
   13MOL   O31314737   2.774   7.418   6.268  0.7447  0.3387 -0.2951
   13MOL   C31414738   2.672   7.463   6.341  0.6073  0.3762  0.0766
   13MOL   O31514739   2.664   7.493   6.460  0.3863 -0.2396 -0.0754
   13MOL   C31614740   2.536   7.474   6.263 -0.2745 -0.1706 -0.2001
   13MOL   C31714741   2.541   7.600   6.172 -0.8350  0.9165  0.1579
   13MOL   C31814742   2.414   7.615   6.084  0.0778  0.2193  0.2257
   13MOL   C31914743   2.402   7.724   5.976 -0.3734  0.2722 -0.2245
   13MOL   C32014744   2.396   0.104   6.042  0.3810 -0.7764  0.1076
   13MOL   C32114745   2.388   0.214   5.941 -0.3707  0.1699  0.0430
   13MOL   C32214746   2.418   0.352   6.000  0.3501 -0.7929  0.4245
   13MOL   C32314747   2.434   0.457   5.889  0.2119  0.3642  0.4101
   13MOL   C32414748   2.453   0.604   5.952 -0.0909  1.3173 -0.3800
   13MOL   O32514749   2.558   0.670   5.945 -0.6165  0.5264 -0.2009
   13MOL   H32614750   2.868   6.322   6.226 -0.9703  0.9797 -0.3321
   13MOL   H32714751   2.819   6.264   6.382  0.1128 -0.5426 -1.4745
   13MOL   H32814752   2.759   6.497   6.376  0.4587  3.3900 -0.7531
   13MOL   H32914753   2.901   6.480   6.482  1.0260  1.2421 -0.2527
   13MOL   H33014754   3.048   6.544   6.294 -0.7798 -2.0622 -0.3857
   13MOL   H33114755   2.901   6.580   6.204  2.1026  2.8622 -0.5124
   13MOL   H33214756   2.829   6.764   6.344  0.5700  0.0350 -1.6137
   13MOL   H33314757   2.973   6.745   6.453  0.5118 -0.2928  0.5274
   13MOL   H33414758   2.963   6.807   6.161 -1.8535  1.6317  0.2580
   13MOL   H33514759   3.108   6.784   6.255 -1.0300 -1.0816 -0.9953
   13MOL   H33614760   3.031   6.970   6.405  2.1545 -0.5568  0.0797
   13MOL   H33714761   2.886   7.000   6.318  0.3640  1.2617  1.5094
   13MOL   H33814762   3.055   7.043   6.109  2.3982  0.0791 -0.1726
   13MOL   H33914763   3.150   7.104   6.247  1.2846 -1.9367 -2.1482
   13MOL   H34014764   2.882   7.196   6.153  1.3788 -2.3059 -0.5036
   13MOL   H34114765   3.031   7.289   6.136 -0.2126  1.7294  1.4636
   13MOL   H34214766   2.923   7.226   6.403  0.5377 -0.6244  0.4164
   13MOL   H34314767   3.078   7.305   6.355 -0.7113 -0.5236  1.4409
   13MOL   H34414768   2.926   7.477   6.406  0.0134  1.4520 -0.1729
   13MOL   H34514769   2.948   7.494   6.229  0.6262  0.3013  0.9489
   13MOL   H34614770   2.448   7.481   6.327 -0.9834 -1.9019 -0.9439
   13MOL   H34714771   2.517   7.393   6.192  1.2836 -0.5488 -0.1966
   13MOL   H34814772   2.624   7.579   6.104 -0.4309 -1.3460  1.2977
   13MOL   H34914773   2.562   7.693   6.224 -1.0036  0.9029  0.2492
   13MOL   H35014774   2.332   7.628   6.155 -0.5528  0.8192 -0.6036
   13MOL   H35114775   2.391   7.520   6.037  1.6291 -0.1242  0.1271
   13MOL   H35214776   2.311   7.694   5.924  2.2203  0.3055 -5.0177
   13MOL   H35314777   2.492   7.722   5.915  0.9683  1.1272  1.6887
   13MOL   H35414778   2.309   0.116   6.106 -0.5485  0.2583 -1.3264
   13MOL   H35514779   2.475   0.123   6.114 -0.6622  1.4022  0.7171
   13MOL   H35614780   2.466   0.191   5.869  2.4803  3.0196  2.0766
   13MOL   H35714781   2.291   0.219   5.892  0.1598  1.4893 -0.8896
   13MOL   H35814782   2.509   0.343   6.060 -0.7419  2.9927  2.8107
   13MOL   H35914783   2.341   0.388   6.068 -0.8517 -1.1743 -0.7061
   13MOL   H36014784   2.528   0.436   5.839 -1.2933 -0.1563 -2.2658
   13MOL   H36114785   2.350   0.458   5.820  0.6825  2.3563 -0.1487
   13MOL   O36214786   2.352   0.638   6.028  0.4465 -0.0877 -0.0596
   13MOL   C36314787   2.340   0.758   6.096 -0.5584 -0.0204 -0.2169
   13MOL   C36414788   2.410   0.761   6.239  0.5813  0.1205  0.0463
   13MOL   C36514789   2.557   0.718   6.246 -1.0828  0.0906  0.0871
   13MOL   C36614790   2.613   0.706   6.389 -0.0665  0.3874  0.0159
   13MOL   C36714791   2.741   0.621   6.402  0.8148 -0.1365  0.5104
   13MOL   C36814792   2.788   0.621   6.545 -0.3487 -0.0772 -0.3166
   13MOL   C36914793   2.920   0.550   6.571 -0.2019 -0.2709  0.5098
   13MOL   C37014794   2.927   0.510   6.723  0.1635  0.1786  0.4183
   13MOL   C37114795   2.841   0.383   6.744  0.2089  0.0049 -0.0085
   13MOL   C37214796   2.826   0.330   6.887 -0.2661  0.0954  0.3894
   13MOL   O37314797   2.738   0.224   6.892  0.3812  0.5023  0.1076
   13MOL   C37414798   2.719   0.150   7.008 -0.0150  0.4632 -0.3190
   13MOL   O37514799   2.753   0.181   7.121  0.0472 -0.8146 -0.5940
   13MOL   C37614800   2.669   0.010   6.972 -0.3914 -0.4500 -0.0722
   13MOL   C37714801   2.755   7.661   7.045 -0.1433 -0.0371 -0.5816
   13MOL   C37814802   2.688   7.523   7.039  0.4459 -0.3988 -1.1708
   13MOL   C37914803   2.685   7.454   6.902  0.1979 -0.1063 -0.0542
   13MOL   C38014804   2.779   7.334   6.896 -0.1027  0.1794  0.6079
   13MOL   C38114805   2.922   7.376   6.854 -0.2317  0.0690 -0.2841
   13MOL   C38214806   2.939   7.403   6.706  0.4410 -0.1195 -0.9123
   13MOL   C38314807   3.070   7.473   6.664  0.6677 -0.1005 -0.1943
   13MOL   C38414808   3.192   7.391   6.687  0.0824 -0.3835  1.2916
   13MOL   O38514809   3.275   7.419   6.770 -0.6257 -0.4300  0.2715
   13MOL   H38614810   2.374   0.842   6.036  0.5023 -0.5794 -0.4081
   13MOL   H38714811   2.235   0.774   6.121 -0.2390  1.1752  0.3656
   13MOL   H38814812   2.402   0.863   6.276  0.1443 -0.3209  1.1698
   13MOL   H38914813   2.349   0.696   6.302  0.0155 -1.5222 -2.1096
   13MOL   H39014814   2.575   0.616   6.211  0.1915  0.3206  0.0495
   13MOL   H39114815   2.608   0.774   6.167 -1.1046 -0.5934 -0.4213
   13MOL   H39214816   2.623   0.806   6.431 -0.0002  0.2979  0.2146
   13MOL   H39314817   2.541   0.656   6.454  0.5408 -0.3395  0.1398
   13MOL   H39414818   2.817   0.661   6.335  0.9267 -0.3961  0.4831
   13MOL   H39514819   2.730   0.519   6.365  1.0334  0.5201 -1.4234
   13MOL   H39614820   2.706   0.594   6.612 -0.2097  1.2058  0.3940
   13MOL   H39714821   2.805   0.722   6.582  0.9918 -0.8958  1.3661
   13MOL   H39814822   2.995   0.625   6.544 -1.1125  0.1531 -0.9215
   13MOL   H39914823   2.938   0.467   6.503  0.5463 -0.8241  1.3738
   13MOL   H40014824   2.893   0.603   6.769  0.7261 -0.1244  1.4656
   13MOL   H40114825   3.027   0.494   6.763  0.9327  3.2135 -0.1779
   13MOL   H40214826   2.740   0.406   6.708 -0.3888  0.9176  2.1699
   13MOL   H40314827   2.890   0.306   6.685  2.1048  1.2707 -0.1224
   13MOL   H40414828   2.925   0.313   6.929  1.1352  0.6977 -2.4706
   13MOL   H40514829   2.782   0.412   6.944  1.0311  1.7232 -0.8628
   13MOL   H40614830   2.665   7.742   6.866  1.5049  0.4866 -0.3890
   13MOL   H40714831   2.564   0.007   7.001  0.1528 -0.4938  2.0239
   13MOL   H40814832   2.776   7.692   7.148 -1.4770 -2.8115  0.5765
   13MOL   H40914833   2.850   7.659   6.992  0.6892  2.0984  0.7060
   13MOL   H41014834   2.585   7.541   7.070  2.1324  3.5941  2.4384
   13MOL   H41114835   2.727   7.458   7.118  0.2681  1.4191  0.4419
   13MOL   H41214836   2.729   7.522   6.829  2.6608 -1.2109  0.3532
   13MOL   H41314837   2.585   7.430   6.866  0.1149 -3.1493  2.0254
   13MOL   H41414838   2.786   7.284   6.992 -1.0075 -1.6827 -0.2783
   13MOL   H41514839   2.748   7.262   6.821 -0.5305 -0.2120  1.1587
   13MOL   H41614840   2.954   7.452   6.925 -1.2600  0.9412 -0.7259
   13MOL   H41714841   2.976   7.286   6.884 -1.8552  0.0856  2.9770
   13MOL   H41814842   2.863   7.480   6.691 -0.0362 -0.6356 -1.1580
   13MOL   H41914843   2.921   7.322   6.635  1.6750  0.3948 -1.8399
   13MOL   H42014844   3.064   7.496   6.558 -1.3636 -1.2183 -0.3466
   13MOL   H42114845   3.073   7.567   6.720 -1.1930  1.5818 -2.8079
   13MOL   O42214846   3.201   7.280   6.611  0.4006  0.1119 -0.0839
   13MOL   C42314847   3.311   7.195   6.612  0.0330  0.8907 -0.1450
   13MOL   C42414848   3.436   7.245   6.546  0.8055  0.1733  0.0041
   13MOL   C42514849   3.556   7.151   6.572 -0.0973 -0.4866 -0.2486
   13MOL   C42614850   3.689   7.219   6.529 -0.1787  0.1929  0.0600
   13MOL   C42714851   3.746   7.321   6.630  0.6659 -0.1724  0.1849
   13MOL   C42814852   3.858   7.414   6.574  0.0052  0.4431 -0.9486
   13MOL   C42914853   3.905   7.506   6.681  0.4374 -0.3656 -0.1459
   13MOL   C43014854   4.021   7.597   6.625 -0.1755  0.2671  0.7866
   13MOL   C43114855   4.057   7.719   6.706 -0.8170 -0.2653  0.1756
   13MOL   C43214856   4.128   0.069   6.612  0.7430 -0.7953 -0.5282
   13MOL   O43314857   4.258   0.025   6.578 -0.3720 -0.1131 -0.0493
   13MOL   C43414858   4.370   0.108   6.582 -0.2696 -0.5482 -0.1847
   13MOL   O43514859   4.372   0.224   6.623  0.0776  0.0308 -0.8464
   13MOL   C43614860   4.496   0.037   6.528  0.5310 -0.4165  0.1183
   13MOL   C43714861   4.625   0.107   6.551  1.0212 -0.2810 -0.1236
   13MOL   C43814862   4.735   0.028   6.494 -0.3052 -0.2035 -0.6601
   13MOL   C43914863   4.852   0.107   6.439  0.1631  0.3808 -0.5657
   13MOL   C44014864   4.828   0.171   6.302 -0.4759 -0.2049 -0.3855
   13MOL   C44114865   4.941   0.278   6.281 -0.1883 -0.3548 -0.4513
   13MOL   C44214866   4.922   0.365   6.152 -0.3823  0.4206 -1.0276
   13MOL   C44314867   5.043   0.447   6.096  0.1501  0.0404  0.2171
   13MOL   C44414868   5.021   0.502   5.955 -0.6428 -0.0890  0.4223
   13MOL   O44514869   5.002   0.621   5.938  0.0887 -0.0323 -0.5305
   13MOL   H44614870   3.324   7.175   6.719  2.3084  3.2843  0.0816
   13MOL   H44714871   3.266   7.102   6.578  2.3555  0.0369 -0.9585
   13MOL   H44814872   3.418   7.262   6.439  4.6672  1.3188 -0.5385
   13MOL   H44914873   3.465   7.344   6.582 -0.6205  0.6282 -0.0806
   13MOL   H45014874   3.564   7.134   6.679  1.2380  0.8423 -0.1171
   13MOL   H45114875   3.556   7.059   6.515 -0.5113 -0.7593  0.1915
   13MOL   H45214876   3.764   7.140   6.518 -0.8267 -0.4084 -0.1048
   13MOL   H45314877   3.673   7.267   6.432 -1.5405  0.9592  0.6527
   13MOL   H45414878   3.771   7.267   6.722 -2.3646 -0.4850  0.8793
   13MOL   H45514879   3.660   7.380   6.662 -1.3383 -2.0537 -1.6100
   13MOL   H45614880   3.825   7.472   6.487 -2.5609  2.8477  1.5479
   13MOL   H45714881   3.941   7.347   6.551  0.1837 -0.1715  1.3741
   13MOL   H45814882   3.936   7.444   6.766  0.9517 -1.2604 -0.9815
   13MOL   H45914883   3.818   7.563   6.715  1.0968  0.8641 -0.5107
   13MOL   H46014884   3.993   7.645   6.531  1.5248  1.6190  0.9434
   13MOL   H46114885   4.103   7.526   6.616  0.7727  1.4386 -0.1216
   13MOL   H46214886   3.962   7.755   6.745 -1.8582 -1.8127 -0.8495
   13MOL   H46314887   4.103   7.690   6.801  0.1739 -0.6470 -0.4148
   13MOL   H46414888   4.074   0.088   6.519 -0.9894 -0.5763  0.5028
   13MOL   H46514889   4.118   0.165   6.663  0.5124 -0.6735 -0.7986
   13MOL   H46614890   4.474   0.032   6.422  1.1640  1.3024 -0.1020
   13MOL   H46714891   4.503   7.696   6.578 -1.2958 -1.1882 -1.0848
   13MOL   H46814892   4.641   0.110   6.659  1.9821 -0.9341 -0.2435
   13MOL   H46914893   4.630   0.208   6.511  0.1547  0.9461  2.7126
   13MOL   H47014894   4.703   7.723   6.411 -2.5335 -0.9973  0.7165
   13MOL   H47114895   4.766   7.717   6.574  0.1407  0.9198  0.1375
   13MOL   H47214896   4.940   0.042   6.436 -0.0490  0.0683 -0.1625
   13MOL   H47314897   4.874   0.176   6.521  1.0951 -0.8503  0.2489
   13MOL   H47414898   4.829   0.092   6.227  2.6151 -1.2145  0.6502
   13MOL   H47514899   4.731   0.220   6.300 -0.5091 -0.2780 -0.5775
   13MOL   H47614900   4.944   0.350   6.362 -2.7247 -0.3596 -0.3038
   13MOL   H47714901   5.038   0.230   6.285  0.1215  0.3587  0.6357
   13MOL   H47814902   4.834   0.430   6.152 -1.4761 -1.0419 -0.4858
   13MOL   H47914903   4.899   0.291   6.076 -0.7710  1.1316 -1.6100
   13MOL   H48014904   5.065   0.527   6.166  0.2575 -0.4511  0.7531
   13MOL   H48114905   5.134   0.388   6.086  0.2525 -0.0827  1.7490
   13MOL   O48214906   5.020   0.409   5.859 -0.1236 -0.3683  0.1269
   13MOL   C48314907   4.986   0.448   5.728  0.1005 -0.5936  0.8511
   13MOL   C48414908   5.044   0.370   5.611  0.1215 -0.2725  0.0396
   13MOL   C48514909   5.197   0.352   5.642 -0.0416  0.2024  0.3025
   13MOL   C48614910   5.250   0.303   5.505  0.1097 -0.4067  1.0508
   13MOL   C48714911   5.403   0.283   5.508  0.0311 -1.1700  0.8549
   13MOL   C48814912   5.478   0.412   5.470 -0.2826 -0.3592 -0.0192
   13MOL   C48914913   5.626   0.404   5.500 -0.2978 -0.4005 -0.0741
   13MOL   C49014914   5.700   0.526   5.455 -0.0198  0.6142 -0.5945
   13MOL   C49114915   5.839   0.538   5.501  0.3695  0.4900 -0.1341
   13MOL   C49214916   5.909   0.658   5.431  1.0707  0.3636 -0.0415
   13MOL   O49314917   6.039   0.659   5.472  0.0652 -0.2454  0.2289
   13MOL   C49414918   6.133   0.586   5.414 -0.2721  0.4083 -0.3191
   13MOL   O49514919   6.114   0.524   5.312 -0.1695  0.1775  0.2897
   13MOL   C49614920   6.269   0.578   5.491  0.0866 -0.4009  0.2895
   13MOL   C49714921   6.334   0.442   5.482  0.1677 -0.2120  0.4748
   13MOL   C49814922   6.258   0.329   5.553  0.6442  0.6210  0.4076
   13MOL   C49914923   6.350   0.206   5.540  0.0605 -0.7289 -0.0105
   13MOL   C50014924   6.291   0.076   5.616  0.2282 -0.5151  1.1577
   13MOL   C50114925   6.400   7.726   5.615  0.1746  0.0597 -0.3300
   13MOL   C50214926   6.362   7.611   5.709 -0.0314 -0.2276 -0.7160
   13MOL   C50314927   6.490   7.514   5.726  0.0003  0.5312  0.4243
   13MOL   C50414928   6.497   7.452   5.862  0.1935  0.2573 -0.1266
   13MOL   O50514929   6.477   7.333   5.878  0.1544  0.2088  1.1245
   13MOL   H50614930   4.877   0.443   5.727 -0.0004  1.2642 -0.0069
   13MOL   H50714931   5.019   0.550   5.708 -0.6043 -0.7739 -1.2999
   13MOL   H50814932   4.995   0.274   5.593 -1.8775  0.9273 -1.1879
   13MOL   H50914933   5.014   0.430   5.525  0.1663  2.5849  1.9261
   13MOL   H51014934   5.248   0.444   5.670 -0.3876  1.0861 -1.9371
   13MOL   H51114935   5.207   0.282   5.726 -2.9850  0.5395  0.9705
   13MOL   H51214936   5.191   0.214   5.480 -1.3618  0.6284  0.7793
   13MOL   H51314937   5.219   0.372   5.427  0.7102 -1.7606 -0.3902
   13MOL   H51414938   5.448   0.214   5.438 -0.6937  0.2411 -1.0482
   13MOL   H51514939   5.443   0.251   5.604  0.5641  0.2926  1.1415
   13MOL   H51614940   5.441   0.501   5.520  0.1500  1.0260 -2.0791
   13MOL   H51714941   5.469   0.442   5.365 -1.4496  0.4598  0.3087
   13MOL   H51814942   5.675   0.317   5.456 -2.0551 -1.1887 -0.5176
   13MOL   H51914943   5.642   0.398   5.608 -0.5374 -1.0762 -0.0712
   13MOL   H52014944   5.639   0.607   5.495  1.1142 -0.1206  2.7716
   13MOL   H52114945   5.689   0.541   5.347 -2.9897 -0.3325 -0.4531
   13MOL   H52214946   5.852   0.541   5.609  4.0150 -0.3698 -0.5040
   13MOL   H52314947   5.887   0.449   5.461  0.4120  0.8771 -0.9567
   13MOL   H52414948   5.912   0.652   5.323  0.7464  2.4540 -0.1954
   13MOL   H52514949   5.849   0.743   5.466  0.1877 -0.1523 -0.2876
   13MOL   H52614950   6.259   0.616   5.593  0.4410  2.8889 -0.8624
   13MOL   H52714951   6.341   0.649   5.450 -1.0404 -0.3648 -1.6470
   13MOL   H52814952   6.430   0.461   5.531  0.6783 -0.9724 -0.2281
   13MOL   H52914953   6.358   0.426   5.377  0.4827  0.0265  0.5090
   13MOL   H53014954   6.160   0.307   5.512 -0.3468  1.1454  2.4414
   13MOL   H53114955   6.227   0.351   5.655 -1.3760 -1.7640  0.3501
   13MOL   H53214956   6.447   0.227   5.585 -0.0443  1.2688 -0.6972
   13MOL   H53314957   6.367   0.181   5.436 -2.4786 -0.5901 -0.4858
   13MOL   H53414958   6.258   0.109   5.715 -0.5096  0.1354  0.6921
   13MOL   H53514959   6.199   0.039   5.570 -0.3044  2.2164 -0.0411
   13MOL   H53614960   6.418   7.690   5.514 -1.3208 -1.9187  0.0741
   13MOL   H53714961   6.498   0.002   5.652  0.0382 -1.2375  1.2671
   13MOL   H53814962   6.287   7.551   5.658  0.3662 -0.5793 -0.8870
   13MOL   H53914963   6.334   7.654   5.806  3.1025  1.3372 -0.4243
   13MOL   H54014964   6.491   7.432   5.654  0.3259 -1.3995  2.5592
   13MOL   H54114965   6.585   7.566   5.716  0.1582 -0.0048 -0.8933
   13MOL   O54214966   6.523   7.540   5.966  0.3365 -0.1472 -0.1618
   13MOL   C54314967   6.505   7.504   6.104 -0.0583  0.6371 -0.4177
   13MOL   C54414968   6.638   7.446   6.149 -0.2144 -0.4936 -0.7364
   13MOL   C54514969   6.637   7.401   6.291 -0.1358 -0.7054  0.8356
   13MOL   C54614970   6.774   7.342   6.335 -0.2522 -0.0886  0.5330
   13MOL   C54714971   6.763   7.272   6.472 -0.2649  0.9670  0.0875
   13MOL   C54814972   6.901   7.220   6.526  0.1330  0.2037  0.1519
   13MOL   C54914973   6.884   7.146   6.657 -0.2993  0.2331 -0.4032
   13MOL   C55014974   7.008   7.090   6.720 -0.5162  0.3098 -0.0908
   13MOL   C55114975   6.990   7.029   6.862 -0.0293  0.3728 -0.1217
   13MOL   C55214976   7.117   7.010   6.938  0.0956  0.8285 -0.1871
   13MOL   O55314977   7.209   6.924   6.873  0.1254 -0.0603 -0.3610
   13MOL   C55414978   7.333   6.923   6.916 -0.5571  0.2309  0.5976
   13MOL   O55514979   7.385   6.990   7.005  0.0308  0.0871  0.4445
   13MOL   C55614980   7.425   6.843   6.823  0.4991  0.3499 -0.2033
   13MOL   C55714981   7.428   6.692   6.861 -0.0497 -0.0549  0.0039
   13MOL   C55814982   7.310   6.612   6.814  1.1544  0.0864  0.5427
   13MOL   C55914983   7.302   6.585   6.662 -0.2711 -0.5575 -0.0084
   13MOL   C56014984   7.187   6.493   6.625  0.4180  0.1164  0.7507
   13MOL   C56114985   7.192   6.468   6.471 -0.3705 -0.4782  0.4986
   13MOL   C56214986   7.051   6.427   6.416 -0.5085 -0.1730 -0.3548
   13MOL   C56314987   7.042   6.372   6.271  0.2062  0.2300 -0.2281
   13MOL   C56414988   7.081   6.478   6.168  0.2096  0.5998 -0.1214
   13MOL   O56514989   7.130   6.583   6.208  0.1509  0.8875 -0.0888
   13MOL   H56614990   6.480   7.600   6.150  1.1790 -0.0813  1.8157
   13MOL   H56714991   6.419   7.438   6.108  0.2591  0.1895 -1.0684
   13MOL   H56814992   6.652   7.367   6.076 -1.8540 -0.0468 -1.5524
   13MOL   H56914993   6.717   7.517   6.125  0.4207 -2.2778 -4.1841
   13MOL   H57014994   6.625   7.494   6.347  0.1452 -0.4947  0.5448
   13MOL   H57114995   6.561   7.323   6.302  1.1406 -2.2944 -1.3966
   13MOL   H57214996   6.811   7.268   6.264 -1.2833 -0.0937 -0.0202
   13MOL   H57314997   6.844   7.425   6.329  0.5597 -0.9046 -2.4078
   13MOL   H57414998   6.690   7.191   6.465 -0.1250  0.9468 -1.4622
   13MOL   H57514999   6.715   7.339   6.542 -1.2771 -0.6659  0.9729
   13MOL   H57615000   6.968   7.305   6.539 -0.2112  0.3325  1.1604
   13MOL   H57715001   6.939   7.136   6.468  0.2986 -0.2456  0.9002
   13MOL   H57815002   6.804   7.073   6.652  0.1476 -0.1897 -1.4003
   13MOL   H57915003   6.844   7.211   6.735 -0.6458  0.1777 -0.5313
   13MOL   H58015004   7.074   7.177   6.722 -0.1705  0.0340  0.7902
   13MOL   H58115005   7.049   7.014   6.654 -0.6315  0.2486 -0.0909
   13MOL   H58215006   6.927   7.091   6.925  1.0974 -0.0199  1.4293
   13MOL   H58315007   6.950   6.928   6.852  1.4660 -0.3188  0.7569
   13MOL   H58415008   7.162   7.107   6.957  2.4965 -0.0974 -0.9391
   13MOL   H58515009   7.078   6.972   7.032  0.1093  2.7814  0.6282
   13MOL   H58615010   7.525   6.887   6.827  0.7501  0.0484 -2.6222
   13MOL   H58715011   7.397   6.855   6.719  0.8336  0.3205 -0.2973
   13MOL   H58815012   7.436   6.693   6.969 -1.4245  1.7965  0.1056
   13MOL   H58915013   7.523   6.652   6.828  0.4961  0.4220  0.9731
   13MOL   H59015014   7.217   6.662   6.839 -0.3783 -1.7970 -1.2322
   13MOL   H59115015   7.309   6.515   6.864  0.5938 -0.3051 -0.2088
   13MOL   H59215016   7.392   6.528   6.642  0.3866  0.6478 -0.5508
   13MOL   H59315017   7.302   6.679   6.607  0.8863 -0.5808 -0.0480
   13MOL   H59415018   7.187   6.401   6.684  1.5183  0.2145  0.9094
   13MOL   H59515019   7.088   6.535   6.647  0.0885  0.4829 -1.3190
   13MOL   H59615020   7.218   6.559   6.418 -1.0116  0.1865  1.3075
   13MOL   H59715021   7.266   6.389   6.459  1.6526  1.3871  0.5257
   13MOL   H59815022   6.993   6.518   6.429 -1.9549 -1.4737  2.9574
   13MOL   H59915023   7.008   6.354   6.484 -0.0130 -1.7233 -1.6707
   13MOL   H60015024   7.105   6.283   6.266 -0.5272 -0.4168  1.5775
   13MOL   H60115025   6.940   6.336   6.257  0.7362 -1.6894  0.6007
   13MOL   O60215026   7.034   6.457   6.053  0.3443 -0.0487  0.0187
   13MOL   C60315027   7.042   6.551   5.946 -1.0111  0.1981 -0.5192
   13MOL   C60415028   6.906   6.550   5.875  0.2485 -0.9431 -0.7866
   13MOL   C60515029   6.898   6.653   5.763  0.5384 -0.8250 -0.4595
   13MOL   C60615030   6.776   6.647   5.677 -0.8491  0.0075  0.0865
   13MOL   C60715031   6.764   6.743   5.557  0.7002 -0.6631 -0.1368
   13MOL   C60815032   6.643   6.717   5.471  0.4046 -0.0767 -0.2548
   13MOL   C60915033   6.652   6.795   5.337  0.4345  0.8905 -0.2366
   13MOL   C61015034   6.652   6.949   5.346 -0.3099  0.0659  0.2136
   13MOL   C61115035   6.667   7.002   5.204  0.4071  0.0428  0.0062
   13MOL   C61215036   6.704   7.148   5.199  0.1418  0.6779 -0.5253
   13MOL   O61315037   6.575   7.210   5.204  0.9680 -0.1800  0.6661
   13MOL   C61415038   6.569   7.329   5.142  0.1443 -0.6309  0.9116
   13MOL   O61515039   6.659   7.384   5.078 -0.8187  0.6668  0.2197
   13MOL   C61615040   6.435   7.407   5.164  0.2257 -0.5648  0.1067
   13MOL   C61715041   6.396   7.490   5.046 -0.0511  0.2948  0.0485
   13MOL   C61815042   6.260   7.549   5.080 -0.0213 -1.1211 -0.1156
   13MOL   C61915043   6.263   7.679   5.163 -0.1410 -0.3073 -0.6548
   13MOL   C62015044   6.120   7.735   5.185 -0.5856 -0.3252  0.1848
   13MOL   C62115045   6.115   0.100   5.269  0.2347  0.1120  0.5082
   13MOL   C62215046   5.972   0.161   5.262 -0.1635 -0.3905  0.5897
   13MOL   C62315047   5.871   0.075   5.350  0.9760  0.4576  0.3385
   13MOL   C62415048   5.914   0.038   5.495 -0.1179 -0.1810 -0.1452
   13MOL   O62515049   5.945   7.680   5.521  0.1092  0.1360  0.4139
   13MOL   H62615050   7.069   6.651   5.980 -3.9079  0.5828  0.8112
   13MOL   H62715051   7.120   6.510   5.882 -2.0371 -0.8729 -1.1091
   13MOL   H62815052   6.890   6.448   5.841 -0.0307 -1.2071  0.1168
   13MOL   H62915053   6.822   6.562   5.943  1.9451  3.1457  0.7461
   13MOL   H63015054   6.903   6.752   5.807  0.3454  0.4214 -3.1092
   13MOL   H63115055   6.985   6.650   5.698  2.1478  1.5381  1.5136
   13MOL   H63215056   6.781   6.548   5.633  0.3717 -0.0821  0.4140
   13MOL   H63315057   6.688   6.659   5.739 -0.2541 -0.7491  1.0777
   13MOL   H63415058   6.851   6.730   5.493  1.2209  0.7864  0.2475
   13MOL   H63515059   6.755   6.845   5.594  2.5280 -0.2853 -0.7114
   13MOL   H63615060   6.547   6.743   5.516  0.5648 -2.2649  1.4268
   13MOL   H63715061   6.636   6.609   5.458 -1.9967  0.3024 -2.3841
   13MOL   H63815062   6.557   6.766   5.291  0.7829 -0.4295 -0.1396
   13MOL   H63915063   6.733   6.749   5.280 -0.0469 -0.6565  0.2825
   13MOL   H64015064   6.736   6.994   5.399 -0.7541  0.2919  0.7399
   13MOL   H64115065   6.560   6.978   5.397 -1.7301 -1.3729 -1.4709
   13MOL   H64215066   6.734   6.947   5.138  0.4334  0.3652 -0.2369
   13MOL   H64315067   6.569   6.986   5.159 -0.5334 -1.6836  2.5432
   13MOL   H64415068   6.763   7.178   5.286 -1.3785 -1.4626  1.3046
   13MOL   H64515069   6.766   7.160   5.110  0.1243  0.1787 -0.6077
   13MOL   H64615070   6.438   7.469   5.254  1.4425  0.8512 -0.8814
   13MOL   H64715071   6.357   7.333   5.181  1.1750 -1.7903 -0.8290
   13MOL   H64815072   6.386   7.443   4.948 -0.3489 -0.5337  0.4748
   13MOL   H64915073   6.463   7.576   5.041  1.1983 -0.6474  0.4736
   13MOL   H65015074   6.195   7.482   5.135 -0.2698  0.9221  2.1501
   13MOL   H65115075   6.219   7.574   4.982  0.1279 -0.2922  0.0312
   13MOL   H65215076   6.315   7.753   5.103 -1.0287 -0.4261 -1.5855
   13MOL   H65315077   6.313   7.656   5.257  0.3075  2.4423 -0.1817
   13MOL   H65415078   6.072   7.756   5.089  0.5511 -0.3523 -0.3927
   13MOL   H65515079   6.053   7.666   5.238 -0.6394  0.9292  1.7804
   13MOL   H65615080   6.138   0.074   5.372 -1.5547 -1.6569  0.4913
   13MOL   H65715081   6.189   0.173   5.236  0.7675 -0.9906 -0.7819
   13MOL   H65815082   5.944   0.172   5.157  1.5986  1.4698  0.2716
   13MOL   H65915083   5.978   0.264   5.299  1.5095 -0.4203  0.4431
   13MOL   H66015084   5.773   0.119   5.362 -0.0799 -1.5732 -0.5416
   13MOL   H66115085   5.859   7.739   5.293  3.0184  0.9372 -0.9324
   13MOL   O66215086   5.912   0.133   5.582 -0.4835 -0.2705 -0.1473
   13MOL   C66315087   5.941   0.100   5.721  0.2135  0.3883 -0.6022
   13MOL   C66415088   5.981   0.223   5.800 -0.0893 -0.1446 -0.4899
   13MOL   C66515089   5.987   0.208   5.954 -1.0431 -0.9869  0.7626
   13MOL   C66615090   6.108   0.127   5.997 -0.1088  0.3732 -0.1644
   13MOL   C66715091   6.104   0.085   6.151 -0.8392 -0.1224 -0.6558
   13MOL   C66815092   6.218   7.749   6.197 -0.2087  0.3836  0.0237
   13MOL   C66915093   6.209   7.697   6.342 -0.7118  0.0166  0.0974
   13MOL   C67015094   6.319   7.599   6.379  0.2320  0.2327 -0.2446
   13MOL   C67115095   6.282   7.505   6.491 -0.6247  0.8407  0.2024
   13MOL   C67215096   6.381   7.383   6.504  0.0642  0.3234 -0.6859
   13MOL   O67315097   6.361   7.325   6.639  0.4468  0.1438 -0.2735
   13MOL   C67415098   6.378   7.188   6.653 -0.5968 -0.7998 -0.6458
   13MOL   O67515099   6.407   7.107   6.564 -0.2776  0.7416 -0.1827
   13MOL   C67615100   6.362   7.141   6.794  0.6966 -0.4447 -0.1389
   13MOL   C67715101   6.454   7.224   6.888 -0.2852  0.4860 -0.0137
   13MOL   C67815102   6.442   7.189   7.037  0.0624  0.6431  0.7285
   13MOL   C67915103   6.560   7.234   7.128 -0.4020 -0.4387 -0.2913
   13MOL   C68015104   6.539   7.223   7.280 -0.5679 -0.6986  0.1884
   13MOL   C68115105   6.664   7.272   7.371 -0.1042  0.0516 -0.0538
   13MOL   C68215106   6.792   7.193   7.329 -0.7997 -0.8226 -0.4990
   13MOL   C68315107   6.926   7.202   7.420 -0.1417  0.3288 -0.2045
   13MOL   C68415108   7.038   7.107   7.378  0.0763 -0.6503 -0.1154
   13MOL   O68515109   7.021   6.998   7.333 -0.3934 -0.1270  0.3064
   13MOL   H68615110   5.852   0.052   5.762 -0.6889  3.2783  0.9730
   13MOL   H68715111   6.016   0.021   5.718 -0.9803 -0.7345 -1.5682
   13MOL   H68815112   6.077   0.257   5.759  1.1117 -0.3219  2.0267
   13MOL   H68915113   5.917   0.308   5.776  0.2545 -0.3585 -2.1879
   13MOL   H69015114   5.999   0.303   6.005 -1.9118  0.3624 -1.4368
   13MOL   H69115115   5.897   0.155   5.984 -2.6271 -0.4710 -2.8136
   13MOL   H69215116   6.108   0.034   5.941  1.0683  0.6334 -0.6171
   13MOL   H69315117   6.197   0.182   5.968 -0.8704  0.5259 -2.3584
   13MOL   H69415118   6.010   0.035   6.171 -0.9089  0.2548 -0.0421
   13MOL   H69515119   6.102   0.184   6.197 -0.9682  0.2107 -1.3582
   13MOL   H69615120   6.314   0.043   6.190 -0.6999  1.3483  0.1653
   13MOL   H69715121   6.230   7.665   6.130 -0.0549  1.1899 -0.9697
   13MOL   H69815122   6.111   7.649   6.343 -1.9642  2.4933 -0.5898
   13MOL   H69915123   6.194   0.029   6.403 -1.2750 -0.0900  0.1180
   13MOL   H70015124   6.417   7.644   6.395  1.2314 -1.8629 -0.2458
   13MOL   H70115125   6.344   7.539   6.291 -1.7661  0.4914 -1.0095
   13MOL   H70215126   6.269   7.540   6.593  2.8815  0.3651  0.8476
   13MOL   H70315127   6.190   7.456   6.460 -0.8635 -0.1597  2.4413
   13MOL   H70415128   6.371   7.317   6.418  0.7715  0.9449 -1.2536
   13MOL   H70515129   6.483   7.422   6.505  0.5457 -0.8590 -1.7284
   13MOL   H70615130   6.367   7.032   6.785  1.9144 -0.5601  1.6788
   13MOL   H70715131   6.258   7.166   6.816  1.2374  0.8548  0.9839
   13MOL   H70815132   6.425   7.329   6.886 -1.2273  0.2037 -1.8726
   13MOL   H70915133   6.557   7.213   6.853  0.0593  0.0171  1.0985
   13MOL   H71015134   6.435   7.081   7.049  0.2333  0.7514  1.8427
   13MOL   H71115135   6.349   7.237   7.065  0.5903  0.4470  2.8581
   13MOL   H71215136   6.586   7.338   7.110 -0.1661 -0.5302 -0.4880
   13MOL   H71315137   6.654   7.189   7.097 -1.4155 -0.0902 -4.2709
   13MOL   H71415138   6.448   7.278   7.305 -0.1232  0.5057 -0.7745
   13MOL   H71515139   6.508   7.122   7.308  0.9453 -0.9815  0.8801
   13MOL   H71615140   6.682   7.378   7.352 -0.9930  0.6396  2.2632
   13MOL   H71715141   6.640   7.257   7.476 -0.2972  1.5128  0.1157
   13MOL   H71815142   6.816   7.219   7.226 -1.5637 -1.2833 -0.7966
   13MOL   H71915143   6.756   7.090   7.325  1.0903 -1.4496 -1.8215
   13MOL   H72015144   6.971   7.301   7.415  0.5463  0.1833  2.1375
   13MOL   H72115145   6.906   7.177   7.525 -0.2348  0.7375 -0.1236
   13MOL   O72215146   7.150   7.168   7.383 -0.1729 -0.1924 -0.4190
   13MOL   C72315147   7.262   7.120   7.310 -0.1471  0.2106  0.6103
   13MOL   C72415148   7.347   7.005   7.371  0.5627 -0.1203 -0.7758
   13MOL   C72515149   7.405   7.043   7.508  0.2888  0.3386 -0.0687
   13MOL   C72615150   7.497   6.940   7.567 -0.0736 -0.2712 -0.7241
   13MOL   C72715151   7.572   6.993   7.689  0.1885 -0.2950 -0.3273
   13MOL   C72815152   7.684   6.892   7.738 -0.2494 -0.8192  0.2635
   13MOL   C72915153   0.049   6.894   7.647  0.0826  0.1679 -0.5351
   13MOL   C73015154   0.164   6.818   7.709  0.2470  0.4067  0.1286
   13MOL   C73115155   0.298   6.844   7.635  0.2041 -0.5885 -0.0329
   13MOL   C73215156   0.408   6.772   7.719  0.0082  0.8486  1.0117
   13MOL   O73315157   0.415   6.831   0.092 -0.3153 -0.6817 -0.2217
   13MOL   C73415158   0.486   6.944   0.108  0.1721 -0.2485  0.0401
   13MOL   O73515159   0.540   7.016   0.024  0.4553 -0.1843  0.3551
   13MOL   C73615160   0.508   6.979   0.252 -0.4188 -0.1286 -0.4310
   13MOL   C73715161   0.637   7.067   0.293  0.3468  0.1845 -0.2035
   13MOL   C73815162   0.632   7.215   0.257 -0.5814  0.5576  0.4971
   13MOL   C73915163   0.745   7.303   0.306 -0.0556 -0.8026 -0.1369
   13MOL   C74015164   0.762   7.428   0.217 -0.2167 -0.7380 -0.4717
   13MOL   C74115165   0.893   7.495   0.239  0.2776 -0.0100  0.5651
   13MOL   C74215166   0.934   7.617   0.146  0.1423  0.1715  0.4831
   13MOL   C74315167   0.833   7.740   0.148  0.2497  0.2338 -0.2315
   13MOL   C74415168   0.826   0.053   0.283  0.1080 -0.5336 -0.5986
   13MOL   O74515169   0.729   0.055   0.360  0.5869  0.5052  0.1844
   13MOL   H74615170   7.231   7.081   7.213  0.5326 -0.6269  0.7355
   13MOL   H74715171   7.336   7.200   7.301 -0.5473  0.5676  0.4501
   13MOL   H74815172   7.286   6.915   7.369  0.0853  0.1675  0.1693
   13MOL   H74915173   7.423   6.965   7.304  1.6690 -1.5104  1.2679
   13MOL   H75015174   7.459   7.137   7.498  2.0286 -0.5332  0.8313
   13MOL   H75115175   7.321   7.052   7.576 -2.6871 -1.7559 -3.2921
   13MOL   H75215176   7.431   6.861   7.603 -1.0141  1.4679  1.4517
   13MOL   H75315177   7.560   6.886   7.495 -0.2373  0.5456 -1.4830
   13MOL   H75415178   7.504   7.023   0.013 -0.7037  2.9636 -2.2039
   13MOL   H75515179   7.618   7.091   7.675 -1.4483  0.5935  0.2741
   13MOL   H75615180   7.650   6.789   7.752  0.1350 -1.2359 -1.6990
   13MOL   H75715181   7.714   6.926   0.081 -0.0706  2.0938 -0.7432
   13MOL   H75815182   0.073   6.998   7.628 -1.3662  0.5930 -0.1473
   13MOL   H75915183   0.028   6.858   7.546  0.9819  0.3076 -0.7682
   13MOL   H76015184   0.128   6.715   7.715 -2.4497  1.2130 -1.0720
   13MOL   H76115185   0.162   6.843   0.058 -2.2428 -1.3566  0.5445
   13MOL   H76215186   0.293   6.798   7.536 -3.1473  0.1914 -0.2632
   13MOL   H76315187   0.312   6.952   7.630 -0.1423 -0.4977  0.9484
   13MOL   H76415188   0.387   6.667   7.737 -0.0091  0.8345  0.9169
   13MOL   H76515189   0.504   6.783   7.669  0.3687 -0.0546  1.5101
   13MOL   H76615190   0.516   6.887   0.308  0.3416 -0.0695 -0.4368
   13MOL   H76715191   0.416   7.032   0.278 -0.9593 -0.7103 -1.1356
   13MOL   H76815192   0.731   7.024   0.258  0.2919  0.8946 -1.2587
   13MOL   H76915193   0.644   7.072   0.402 -1.1573  0.9107 -0.1253
   13MOL   H77015194   0.540   7.244   0.308 -0.8259  1.2525 -0.3110
   13MOL   H77115195   0.610   7.229   0.151 -1.6006  2.4081  0.9267
   13MOL   H77215196   0.836   7.246   0.290  0.5029  0.4607 -1.6093
   13MOL   H77315197   0.740   7.327   0.412 -0.7699 -1.0210 -0.1172
   13MOL   H77415198   0.749   7.406   0.111  0.4191  0.2590 -0.7695
   13MOL   H77515199   0.675   7.489   0.242  0.8021  1.1555 -1.3987
   13MOL   H77615200   0.909   7.528   0.342  0.5205  1.7600 -0.0254
   13MOL   H77715201   0.975   7.426   0.219  0.5141  1.3429 -3.3853
   13MOL   H77815202   0.934   7.590   0.040  1.4143 -0.9481  0.7544
   13MOL   H77915203   1.041   7.639   0.151 -0.2382  3.0992 -2.4210
   13MOL   H78015204   0.870   0.061   0.081 -1.2073  0.2587 -1.0077
   13MOL   H78115205   0.730   7.725   0.118 -0.0426  1.4729  0.1159
   13MOL   O78215206   0.944   0.112   0.312 -0.3199 -0.1756 -0.2690
   13MOL   C78315207   0.978   0.193   0.424  0.0414 -0.4023  0.0141
   13MOL   C78415208   1.056   0.101   0.521  0.7206  0.0274  0.0062
   13MOL   C78515209   1.161   0.011   0.453 -0.5329 -0.5731  0.3591
   13MOL   C78615210   1.250   7.688   0.546  0.2605 -0.0991 -0.4074
   13MOL   C78715211   1.358   7.604   0.481 -0.2784 -0.1573  0.1100
   13MOL   C78815212   1.454   7.557   0.584  0.2677  0.6899 -0.4766
   13MOL   C78915213   1.554   7.449   0.539 -0.5746 -0.1272  0.4032
   13MOL   C79015214   1.652   7.514   0.448  0.0321 -0.5230 -0.6767
   13MOL   C79115215   1.769   7.443   0.394  0.1064  0.3039 -0.2393
   13MOL   C79215216   1.838   7.505   0.269  0.1973  0.6369  0.1503
   13MOL   O79315217   1.761   7.498   0.155  0.6504 -0.0448  0.3374
   13MOL   C79415218   1.813   7.571   0.051  0.1187  0.0497 -0.0618
   13MOL   O79515219   1.922   7.623   0.051  0.1341 -0.1122  0.5238
   13MOL   C79615220   1.725   7.577   7.680 -0.2239 -0.6369  1.0893
   13MOL   C79715221   1.729   7.443   7.611  0.0208 -0.2424 -0.2304
   13MOL   C79815222   1.624   7.436   7.494  0.2522  0.1283 -0.4689
   13MOL   C79915223   1.631   7.307   7.418  0.3714 -0.2784  0.0371
   13MOL   C80015224   1.523   7.292   7.314  0.6709  0.0472 -0.3930
   13MOL   C80115225   1.531   7.153   7.246  0.1516  0.5766  0.3814
   13MOL   C80215226   1.404   7.111   7.175 -0.1619  0.4007 -0.0124
   13MOL   C80315227   1.401   6.958   7.140  0.7731 -0.0875 -0.8161
   13MOL   C80415228   1.477   6.913   7.018 -0.4614 -0.2690  0.9190
   13MOL   O80515229   1.576   6.966   6.983 -0.0324 -0.7521  0.1610
   13MOL   H80615230   1.055   0.260   0.387 -0.7208  0.7564  0.5063
   13MOL   H80715231   0.899   0.246   0.477  0.6557 -1.7239  2.3150
   13MOL   H80815232   1.125   0.162   0.580  1.2683 -1.3960  0.8707
   13MOL   H80915233   0.995   0.052   0.597 -1.8041 -0.2766 -2.1511
   13MOL   H81015234   1.108   7.700   0.386 -2.3840  0.1520  1.0675
   13MOL   H81115235   1.221   0.077   0.391 -0.1071  0.7331  2.1160
   13MOL   H81215236   1.302   0.002   0.610  2.3153 -1.4183 -0.5776
   13MOL   H81315237   1.174   7.629   0.599  1.9329 -2.1025 -0.1805
   13MOL   H81415238   1.408   7.663   0.404  0.0023 -1.1771 -0.4990
   13MOL   H81515239   1.317   7.520   0.426 -0.2529  0.1403 -0.3697
   13MOL   H81615240   1.395   7.514   0.665  1.5224  1.7826  1.0623
   13MOL   H81715241   1.509   7.644   0.620 -1.4090  0.4242  2.8618
   13MOL   H81815242   1.496   7.369   0.493  0.6631 -0.7221 -0.1331
   13MOL   H81915243   1.595   7.402   0.629  1.1556 -1.0273 -0.8399
   13MOL   H82015244   1.695   7.593   0.510 -0.6334  0.9451 -2.0414
   13MOL   H82115245   1.592   7.563   0.371 -0.2503  1.2893  0.6518
   13MOL   H82215246   1.848   7.429   0.468 -1.3568 -0.7580  1.1603
   13MOL   H82315247   1.738   7.344   0.363  3.7811 -1.3194  0.9848
   13MOL   H82415248   1.860   7.611   0.282 -0.8999  1.0291 -1.1015
   13MOL   H82515249   1.933   7.453   0.257  0.6301  1.6221 -0.7148
   13MOL   H82615250   1.754   7.663   7.621  0.1696 -0.9589  0.8119
   13MOL   H82715251   1.622   7.601   7.703 -0.5592  0.4047 -1.3761
   13MOL   H82815252   1.726   7.352   7.670  0.3403 -0.0905  0.0211
   13MOL   H82915253   1.828   7.424   7.569  0.8019  1.2711  0.9097
   13MOL   H83015254   1.631   7.525   7.431 -3.2936 -2.2269 -4.3538
   13MOL   H83115255   1.531   7.440   7.551 -0.9039 -3.5131 -2.0069
   13MOL   H83215256   1.626   7.220   7.483 -0.5460 -1.6067 -1.7333
   13MOL   H83315257   1.731   7.306   7.374  1.3908  1.3763  2.2744
   13MOL   H83415258   1.431   7.304   7.371  0.9345 -0.7718  0.2028
   13MOL   H83515259   1.532   7.371   7.239  0.5495  0.3476 -0.0956
   13MOL   H83615260   1.617   7.166   7.181  0.6355 -0.2471  0.8428
   13MOL   H83715261   1.553   7.072   7.316 -0.6898 -0.3405 -0.3950
   13MOL   H83815262   1.381   7.179   7.093 -0.6733  0.1761 -0.0601
   13MOL   H83915263   1.324   7.122   7.249  0.3008  1.1602  0.3843
   13MOL   H84015264   1.430   6.889   7.220 -0.5322  0.1497 -0.1200
   13MOL   H84115265   1.297   6.932   7.117  0.7662 -1.1818  0.3526
   13MOL   O84215266   1.428   6.798   6.959 -0.1166 -0.4722  0.4314
   13MOL   C84315267   1.497   6.750   6.843  0.7532  0.5444 -0.1694
   13MOL   C84415268   1.403   6.678   6.746  1.0345 -0.4972 -0.0303
   13MOL   C84515269   1.365   6.539   6.803 -0.3852 -0.4492  0.0803
   13MOL   C84615270   1.256   6.480   6.709  0.2015  0.1731 -0.2358
   13MOL   C84715271   1.209   6.339   6.743  0.8321 -0.1851  0.7440
   13MOL   C84815272   1.109   6.349   6.861 -0.7439 -0.3642  0.5162
   13MOL   C84915273   1.100   6.206   6.916  0.5706 -0.2735  0.2798
   13MOL   C85015274   0.998   6.176   7.032  0.1056 -0.9851  0.3228
   13MOL   C85115275   0.863   6.225   7.003 -0.4501 -0.1965 -0.5729
   13MOL   C85215276   0.752   6.195   7.103  0.4196 -0.5001  0.6605
   13MOL   O85315277   0.635   6.246   7.037 -0.4435 -0.2254 -0.4114
   13MOL   C85415278   0.519   6.209   7.083  0.4748 -0.8517 -0.3578
   13MOL   O85515279   0.492   6.110   7.154 -0.5454  0.7036 -0.1151
   13MOL   C85615280   0.404   6.292   7.023  0.2983  0.0008 -0.6310
   13MOL   C85715281   0.291   6.213   6.951  1.5807  0.0149  0.0908
   13MOL   C85815282   0.200   6.303   6.870 -0.8461 -0.4033  1.0106
   13MOL   C85915283   0.129   6.232   6.750 -0.2233  0.3962 -0.2891
   13MOL   C86015284   0.019   6.332   6.693  1.1543  0.1225  0.7175
   13MOL   C86115285   7.644   6.262   6.646  0.5967 -0.4995 -0.1181
   13MOL   C86215286   7.560   6.205   6.766 -0.0309  0.6750 -0.4633
   13MOL   C86315287   7.419   6.171   6.722 -0.7833 -0.2619 -0.3444
   13MOL   C86415288   7.337   6.097   6.827  0.5389  0.2126 -0.1521
   13MOL   O86515289   7.299   6.152   6.932 -0.1687  0.2937  0.0377
   13MOL   H86615290   1.543   6.832   6.788 -0.5862  0.4738 -1.4168
   13MOL   H86715291   1.570   6.680   6.885  2.3925  2.9226  1.1101
   13MOL   H86815292   1.320   6.743   6.718  1.7652  0.7981  0.7737
   13MOL   H86915293   1.445   6.643   6.651 -0.6356 -0.0475 -0.9520
   13MOL   H87015294   1.447   6.472   6.826 -0.8737 -0.3314  2.2451
   13MOL   H87115295   1.323   6.550   6.903  2.1519 -2.2445  1.4060
   13MOL   H87215296   1.171   6.546   6.691 -0.4842 -0.7363 -0.3700
   13MOL   H87315297   1.307   6.476   6.613 -1.0648  1.5977 -0.9942
   13MOL   H87415298   1.296   6.275   6.754 -0.5261 -1.7880  2.6652
   13MOL   H87515299   1.161   6.302   6.652  1.0092 -0.2736  0.6875
   13MOL   H87615300   1.011   6.377   6.822  0.1262  3.2478  0.7713
   13MOL   H87715301   1.143   6.434   6.920 -0.7852  1.0421 -1.4206
   13MOL   H87815302   1.201   6.188   6.953  1.0589 -0.6152 -1.1800
   13MOL   H87915303   1.075   6.133   6.839 -1.1570  0.0645  0.5110
   13MOL   H88015304   1.032   6.217   7.127 -3.4426 -1.5980  1.9259
   13MOL   H88115305   0.981   6.070   7.047 -1.0739 -0.2337  5.0183
   13MOL   H88215306   0.855   6.333   6.994 -1.4064 -0.2471 -0.3888
   13MOL   H88315307   0.833   6.182   6.907 -0.5482 -0.7377 -0.3018
   13MOL   H88415308   0.749   6.087   7.120  0.4140 -0.6793 -0.4415
   13MOL   H88515309   0.790   6.236   7.197 -0.1216  0.1817  0.5777
   13MOL   H88615310   0.450   6.348   6.942  0.5776  0.4413 -0.1722
   13MOL   H88715311   0.377   6.376   7.087 -1.5246  0.3713 -1.8570
   13MOL   H88815312   0.230   6.168   7.029  0.5150 -0.5776 -1.0546
   13MOL   H88915313   0.326   6.131   6.889  0.6719  0.6407 -1.2671
   13MOL   H89015314   0.251   6.393   6.835 -1.4889  0.1180  1.4033
   13MOL   H89115315   0.117   6.339   6.931 -1.3667 -0.4033  0.3068
   13MOL   H89215316   0.078   6.149   6.798 -1.2211  0.5486 -1.0756
   13MOL   H89315317   0.202   6.194   6.678  0.5189  0.4116  0.4423
   13MOL   H89415318   7.749   6.417   6.755 -2.6808  1.4073 -2.4861
   13MOL   H89515319   0.054   6.390   6.608  1.8288 -1.7955 -0.3590
   13MOL   H89615320   7.579   6.343   6.614  1.5732  0.7354  0.9151
   13MOL   H89715321   7.661   6.187   6.569 -1.5073 -0.0809 -1.0260
   13MOL   H89815322   7.563   6.266   6.856  0.1446 -1.3474  0.9355
   13MOL   H89915323   7.598   6.106   6.791  0.0856  0.4876 -1.3609
   13MOL   H90015324   7.361   6.253   6.680 -1.7739 -0.7064  0.1340
   13MOL   H90115325   7.424   6.103   6.636 -0.0553 -0.1106 -0.4299
   13MOL   O90215326   7.308   5.971   6.780 -0.1246  0.0648 -0.7554
   13MOL   C90315327   7.237   5.881   6.863 -0.4229 -0.2326 -0.6570
   13MOL   C90415328   7.336   5.760   6.885  0.0739  0.2687 -0.3429
   13MOL   C90515329   7.296   5.646   6.985  0.5048  0.6196 -0.6088
   13MOL   C90615330   7.314   5.699   7.130  0.8661  0.3417 -0.8897
   13MOL   C90715331   7.280   5.608   7.250  0.6578 -0.0263  0.2593
   13MOL   C90815332   7.277   5.679   7.391  0.7384  0.0814  0.3940
   13MOL   C90915333   7.130   5.737   7.425 -0.5470  0.0538 -0.4326
   13MOL   C91015334   7.124   5.771   7.575  0.1292  0.2594  0.4504
   13MOL   C91115335   7.157   5.654   7.669  0.4721  0.0703  0.6500
   13MOL   C91215336   7.117   5.693   0.057  0.1228 -0.3338  0.0227
   13MOL   O91315337   7.139   5.582   0.145 -0.5260 -0.9657  0.7804
   13MOL   C91415338   7.099   5.589   0.274 -0.9582 -0.2765 -0.4112
   13MOL   O91515339   7.033   5.678   0.327 -0.5302 -0.1918 -0.1216
   13MOL   C91615340   7.133   5.461   0.347 -0.6742  0.1712 -0.3632
   13MOL   C91715341   7.056   5.424   0.479 -0.0977 -0.6206  0.0078
   13MOL   C91815342   7.067   5.280   0.526  0.0828 -0.6964 -0.9816
   13MOL   C91915343   6.999   5.255   0.662  0.0044  0.1599 -0.2661
   13MOL   C92015344   6.996   5.110   0.693  0.0170 -1.2247 -0.1777
   13MOL   C92115345   6.900   5.070   0.806  0.0964  0.3524  0.0855
   13MOL   C92215346   6.875   4.922   0.828 -0.2376 -0.7420  0.1349
   13MOL   C92315347   6.775   4.904   0.944 -0.3745  0.1086 -0.0465
   13MOL   C92415348   6.627   4.926   0.918 -0.6033 -0.0458  0.1842
   13MOL   O92515349   6.573   5.026   0.956 -0.3020 -0.2769 -0.1264
   13MOL   H92615350   7.220   5.927   6.960 -1.7267 -1.7287 -0.1417
   13MOL   H92715351   7.143   5.840   6.826 -0.6224  0.3876 -0.8363
   13MOL   H92815352   7.348   5.718   6.785  2.0279  0.2820 -0.1350
   13MOL   H92915353   7.433   5.801   6.914 -0.4503  0.8114  0.6599
   13MOL   H93015354   7.190   5.622   6.977  0.5641  0.2574 -0.3013
   13MOL   H93115355   7.349   5.553   6.963 -1.7865 -1.0562  0.7638
   13MOL   H93215356   7.419   5.725   7.141  1.3621 -1.6502 -0.7386
   13MOL   H93315357   7.260   5.792   7.143  1.0783 -0.0326  3.2421
   13MOL   H93415358   7.341   5.519   7.261 -1.6721 -1.7523 -0.5080
   13MOL   H93515359   7.183   5.559   7.241 -0.1454  0.9305  2.9976
   13MOL   H93615360   7.348   5.761   7.402  0.5038  0.2475  0.6713
   13MOL   H93715361   7.300   5.598   7.460  0.0808 -1.9351 -1.7014
   13MOL   H93815362   7.045   5.680   7.389 -0.7420 -0.2550  0.4964
   13MOL   H93915363   7.110   5.827   7.367 -0.1783  0.2026 -0.3305
   13MOL   H94015364   7.025   5.813   7.595  0.6861  1.6787  0.2796
   13MOL   H94115365   7.199   5.848   7.594  1.3426 -1.0251  0.9061
   13MOL   H94215366   7.108   5.562   7.636 -0.1871 -0.8968  4.0913
   13MOL   H94315367   7.265   5.642   7.670  0.3271 -2.1740 -2.6036
   13MOL   H94415368   7.161   5.788   0.090 -0.7928  0.2150 -0.3069
   13MOL   H94515369   7.010   5.710   0.067 -0.1982 -1.7197 -0.9550
   13MOL   H94615370   7.236   5.457   0.381 -1.9741  0.8222  3.8673
   13MOL   H94715371   7.115   5.376   0.281 -1.2508 -0.3127  0.4047
   13MOL   H94815372   6.953   5.457   0.467  0.6087  1.7573  0.1697
   13MOL   H94915373   7.084   5.496   0.556  0.0174 -1.5683  0.8449
   13MOL   H95015374   7.169   5.244   0.533  0.0660 -0.3197  1.6978
   13MOL   H95115375   7.020   5.220   0.448 -0.9787 -0.8592 -0.2329
   13MOL   H95215376   6.896   5.284   0.646  0.0267  1.2032  1.3760
   13MOL   H95315377   7.029   5.319   0.745 -0.7858  0.0566  0.1008
   13MOL   H95415378   6.972   5.061   0.598  0.6000 -2.3458  0.2450
   13MOL   H95515379   7.097   5.079   0.719  0.0706 -1.3890 -0.5789
   13MOL   H95615380   6.934   5.116   0.899  0.8887  0.7828 -0.4111
   13MOL   H95715381   6.800   5.109   0.787 -0.4964 -1.1571  0.0257
   13MOL   H95815382   6.974   4.881   0.850  0.4303  0.5262 -0.4263
   13MOL   H95915383   6.841   4.867   0.741  1.9355 -0.0829 -1.1625
   13MOL   H96015384   6.790   4.804   0.986 -2.5863 -0.3625 -0.2949
   13MOL   H96115385   6.797   4.972   1.026  3.0307  0.4978 -1.2131
   13MOL   O96215386   6.582   4.836   0.836  0.7737  0.0897 -0.3106
   13MOL   C96315387   6.451   4.831   0.790  0.4874 -0.8252 -0.1195
   13MOL   C96415388   6.447   4.732   0.679  0.1668  0.6447  0.0309
   13MOL   C96515389   6.557   4.745   0.568  1.1301  0.7855 -0.5984
   13MOL   C96615390   6.547   4.654   0.445 -0.2607 -0.8394 -0.0760
   13MOL   C96715391   6.657   4.645   0.340  0.2162  0.3749  0.2117
   13MOL   C96815392   6.798   4.677   0.396 -0.2005 -0.1323  0.5458
   13MOL   C96915393   6.919   4.653   0.305 -0.1006 -0.2183  0.0268
   13MOL   C97015394   7.059   4.674   0.373 -0.3467  0.5517 -0.0747
   13MOL   C97115395   7.090   4.825   0.392  0.1852  0.1370  0.9406
   13MOL   C97215396   7.220   4.852   0.457 -0.7690 -0.2646 -0.6173
   13MOL   O97315397   7.315   4.814   0.358  0.1392  0.2377 -0.2989
   13MOL   C97415398   7.440   4.813   0.394  0.6354 -0.3402 -0.6787
   13MOL   O97515399   7.480   4.843   0.506  0.3637 -0.5314  0.6822
   13MOL   C97615400   7.542   4.772   0.287  0.1023 -0.3414  0.0470
   13MOL   C97715401   7.531   4.855   0.159  0.6847  0.7011 -0.4549
   13MOL   C97815402   7.630   4.823   0.045 -0.0201  0.3118  0.9892
   13MOL   C97915403   7.593   4.914   7.675 -0.4335  0.1923 -0.3276
   13MOL   C98015404   7.694   4.880   7.559 -0.3523 -0.1632  0.1254
   13MOL   C98115405   7.686   4.732   7.512 -0.0044 -0.2031  0.1369
   13MOL   C98215406   7.745   4.694   7.376 -0.6820  0.6867  0.0872
   13MOL   C98315407   7.725   4.543   7.332 -0.0633  0.0726 -0.0940
   13MOL   C98415408   0.038   4.515   7.200 -0.8181 -0.0481  0.3678
   13MOL   O98515409   0.052   4.606   7.118  0.3350  0.4485  0.4688
   13MOL   H98615410   6.382   4.797   0.867 -0.0812 -0.1613 -0.3223
   13MOL   H98715411   6.412   4.925   0.752  2.2991 -1.0007 -2.5308
   13MOL   H98815412   6.455   4.630   0.719  1.5121 -0.1342 -2.1599
   13MOL   H98915413   6.347   4.735   0.637 -0.7049 -2.3279  1.7518
   13MOL   H99015414   6.576   4.847   0.534 -0.5158  0.8815 -1.2551
   13MOL   H99115415   6.651   4.717   0.616  1.0848 -1.9384 -2.0009
   13MOL   H99215416   6.533   4.551   0.478 -2.5516  0.0734  1.9938
   13MOL   H99315417   6.455   4.678   0.391  0.3250 -0.7104 -1.0144
   13MOL   H99415418   6.645   4.724   0.266  0.8774 -0.8618 -1.2441
   13MOL   H99515419   6.662   4.554   0.280  0.0813 -0.0601  0.8555
   13MOL   H99615420   6.820   4.608   0.477 -1.7056  1.1027  2.0432
   13MOL   H99715421   6.800   4.777   0.438 -0.7016 -0.2395  0.8247
   13MOL   H99815422   6.907   4.718   0.219  0.3452 -0.4603 -0.2199
   13MOL   H99915423   6.914   4.547   0.279  1.5642 -0.3080 -0.0071
   13MOL     H115424   7.134   4.626   0.311  1.2832  0.7868  1.6776
   13MOL     H215425   7.056   4.615   0.464 -0.2720  1.9547  0.8447
   13MOL     H315426   7.090   4.873   0.295  0.6901 -2.6720 -0.5050
   13MOL     H415427   7.003   4.876   0.435 -1.1253 -0.8892 -0.4427
   13MOL     H515428   7.234   4.959   0.469  2.2093 -0.3530 -2.7900
   13MOL     H615429   7.220   4.803   0.555 -2.8513 -2.6091 -1.7174
   13MOL     H715430   7.530   4.668   0.257 -0.4321 -0.3483  0.2808
   13MOL     H815431   7.645   4.766   0.323 -0.1732 -3.1416  0.5476
   13MOL     H915432   7.540   4.960   0.189 -0.1471  0.7337 -0.3068
   13MOL    H1015433   7.430   4.840   0.120  0.4849 -1.2711  0.7861
   13MOL    H1115434   7.607   4.718   0.030  1.2468  0.2282 -0.4115
   13MOL    H1215435   7.735   4.837   0.072  0.6124 -1.2368 -0.5752
   13MOL    H1315436   7.587   5.020   7.701 -1.8354 -0.2397  1.2425
   13MOL    H1415437   7.494   4.880   7.646 -1.4968  2.5592  0.3516
   13MOL    H1515438   7.665   4.956   7.486  1.2223 -1.4674 -1.9266
   13MOL    H1615439   0.036   4.915   7.588 -0.3164  0.6073 -0.8807
   13MOL    H1715440   7.754   4.684   7.583  0.7679  0.4456 -0.1448
   13MOL    H1815441   7.584   4.696   7.522 -0.0208 -0.0370  0.5926
   13MOL    H1915442   0.094   4.717   7.384 -0.9816  1.6019  1.6454
   13MOL    H2015443   7.698   4.756   7.300 -2.4165  0.2195  0.7482
   13MOL    H2115444   7.754   4.475   7.413 -2.5551 -0.3345  0.4985
   13MOL    H2215445   7.617   4.532   7.319  0.2994 -1.8167 -1.6614
   13MOL    O2315446   0.066   4.387   7.188 -0.5461  0.2065 -0.2508
   13MOL    C2415447   0.154   4.342   7.086 -0.4089  0.9444 -0.3733
   13MOL    C2515448   0.086   4.219   7.022 -0.2594 -0.6801  0.9829
   13MOL    C2615449   0.059   4.100   7.105  0.2638 -0.1821 -0.1787
   13MOL    C2715450   0.182   4.045   7.179 -0.4249 -0.6907 -0.8449
   13MOL    C2815451   0.292   3.999   7.090  0.5107 -0.3537  0.3831
   13MOL    C2915452   0.398   3.922   7.167 -0.1166  0.1686 -0.5050
   13MOL    C3015453   0.521   3.882   7.083  0.5185  0.2646  0.0853
   13MOL    C3115454   0.638   3.837   7.177  0.3323  0.3306 -0.4371
   13MOL    C3215455   0.754   3.787   7.104 -0.3020 -0.1494 -0.2471
   13MOL    C3315456   0.818   3.882   7.006 -0.2162 -0.2331 -0.2925
   13MOL    O3415457   0.874   3.988   7.075  0.2262 -0.2411 -0.1685
   13MOL    C3515458   0.965   4.075   7.025  0.6781 -0.2131  0.0809
   13MOL    O3615459   1.025   4.057   6.916 -0.1004 -0.2485 -0.2503
   13MOL    C3715460   1.014   4.183   7.118  0.4368 -0.1484 -1.4508
   13MOL    C3815461   1.032   4.318   7.047 -0.3630 -0.5136  0.2276
   13MOL    C3915462   0.904   4.396   6.997 -0.8512 -0.5175 -0.0273
   13MOL    C4015463   0.944   4.525   6.916 -0.2155 -0.2929 -0.0420
   13MOL    C4115464   0.826   4.611   6.862  0.0473  0.1912 -0.6199
   13MOL    C4215465   0.860   4.746   6.804  0.1943 -0.1090  0.5043
   13MOL    C4315466   0.748   4.855   6.805 -0.0900  1.0429  0.1690
   13MOL    C4415467   0.774   4.970   6.715 -0.2937 -0.0463  0.8334
   13MOL    C4515468   0.670   5.089   6.733 -0.6408  0.2262 -0.3800
   13MOL    O4615469   0.586   5.091   6.820 -0.1157 -0.2431  0.1535
   13MOL    H4715470   0.160   4.408   6.999 -0.5584  0.3017 -0.8853
   13MOL    H4815471   0.260   4.324   7.102 -0.9438 -0.8759  1.3758
   13MOL    H4915472   0.001   4.235   6.956  0.8328  0.3271 -0.1950
   13MOL    H5015473   0.168   4.190   6.957  0.3826 -0.6931  1.7928
   13MOL    H5115474   7.738   4.111   7.181 -1.4768  0.6379 -2.0379
   13MOL    H5215475   0.025   4.015   7.045 -0.2169  0.2128 -0.4725
   13MOL    H5315476   0.221   4.122   7.245  1.2680 -1.5166 -0.8443
   13MOL    H5415477   0.158   3.967   7.251  1.2399 -0.7670 -0.3431
   13MOL    H5515478   0.334   4.075   7.024  0.9859 -0.2283  0.8233
   13MOL    H5615479   0.243   3.929   7.023  2.0970 -2.7104  1.6103
   13MOL    H5715480   0.351   3.828   7.194 -0.1143  1.0027  2.6403
   13MOL    H5815481   0.427   3.967   7.262 -2.7598  1.4972 -0.2984
   13MOL    H5915482   0.549   3.973   7.030  1.6746 -0.5521 -0.7363
   13MOL    H6015483   0.495   3.803   7.013 -0.9372 -0.9064  1.9013
   13MOL    H6115484   0.600   3.752   7.233  0.6749  1.0553  0.9023
   13MOL    H6215485   0.652   3.916   7.251 -1.1767  0.3096 -0.1251
   13MOL    H6315486   0.831   3.778   7.180 -1.1902  1.7522  0.9133
   13MOL    H6415487   0.733   3.687   7.066  1.3455 -0.6302  0.0819
   13MOL    H6515488   0.904   3.837   6.957  0.8416  1.0975  0.3272
   13MOL    H6615489   0.747   3.904   6.925 -1.0908 -2.5266 -0.2121
   13MOL    H6715490   1.102   4.137   7.163  0.5980  2.2730  0.8115
   13MOL    H6815491   0.948   4.187   7.205  1.0878  1.0597 -1.0123
   13MOL    H6915492   1.109   4.330   6.971 -1.8389 -1.3310 -1.4331
   13MOL    H7015493   1.079   4.383   7.122  0.9936 -0.3971 -0.6913
   13MOL    H7115494   0.846   4.419   7.087 -0.6337  0.6756 -0.1847
   13MOL    H7215495   0.857   4.334   6.921  1.0914 -2.1590  0.0486
   13MOL    H7315496   1.012   4.514   6.832  2.0154  0.2743  1.6616
   13MOL    H7415497   0.996   4.600   6.975 -1.7536 -0.1819  1.1885
   13MOL    H7515498   0.776   4.549   6.787  0.7314  0.3657 -1.2238
   13MOL    H7615499   0.751   4.618   6.942 -0.9264 -2.6206 -1.2186
   13MOL    H7715500   0.934   4.796   6.866  3.1550 -1.2202 -1.9800
   13MOL    H7815501   0.901   4.736   6.703  0.0004 -0.1644  0.4320
   13MOL    H7915502   0.741   4.900   6.904  1.4676  1.8111 -0.0601
   13MOL    H8015503   0.657   4.799   6.785  1.8944 -1.7513 -1.2985
   13MOL    H8115504   0.872   4.998   6.754  0.8803 -3.0273  0.1301
   13MOL    H8215505   0.775   4.938   6.611  0.5157  1.1493  0.4538
   13MOL    O8315506   0.697   5.182   6.644 -0.4486  0.1646 -0.0403
   13MOL    C8415507   0.597   5.285   6.634 -0.1433  0.5656 -0.2001
   13MOL    C8515508   0.615   5.351   6.492 -0.5441  0.0280  0.7995
   13MOL    C8615509   0.496   5.432   6.440 -0.5578 -0.3163  0.1662
   13MOL    C8715510   0.526   5.515   6.314  0.5108  0.6229  0.5734
   13MOL    C8815511   0.612   5.641   6.334 -0.6947 -0.0767 -0.2462
   13MOL    C8915512   0.607   5.733   6.210 -0.5848 -0.1644 -0.3469
   13MOL    C9015513   0.709   5.843   6.232  0.0960 -0.3455  0.1213
   13MOL    C9115514   0.696   5.951   6.130  0.9847 -0.7605  0.4019
   13MOL    C9215515   0.784   6.070   6.164 -0.7798  0.0024 -0.1036
   13MOL    C9315516   0.753   6.194   6.072  0.3657  0.0954  0.2932
   13MOL    O9415517   0.869   6.278   6.054 -0.2575 -0.2201 -0.0111
   13MOL    C9515518   0.864   6.389   5.975 -0.0412 -0.0802 -0.2880
   13MOL    O9615519   0.771   6.433   5.912  0.1908  0.7336 -0.5323
   13MOL    C9715520   0.994   6.466   5.983 -0.5836 -0.3633  0.1869
   13MOL    C9815521   1.005   6.577   5.870  0.4551  0.3472  0.3045
   13MOL    C9915522   1.131   6.657   5.875 -0.1707 -0.4849  0.1748
   13MOL   C10015523   1.127   6.782   5.799 -0.4682 -0.2018 -0.4393
   13MOL   C10115524   1.259   6.846   5.756  0.2037  0.4113  0.3927
   13MOL   C10215525   1.312   6.921   5.882  0.8745  0.0662 -0.0109
   13MOL   C10315526   1.444   6.996   5.857  0.3304  0.1001  0.1140
   13MOL   C10415527   1.501   7.100   5.962 -0.2656 -0.7575 -0.1206
   13MOL   C10515528   1.453   7.244   5.957  0.1409 -0.6061  0.6249
   13MOL   O10615529   1.357   7.277   5.890  0.0999  0.2382  0.4185
   13MOL   H10715530   0.498   5.240   6.632 -0.5803  1.5317 -0.6673
   13MOL   H10815531   0.602   5.356   6.716  0.6173  1.7248 -1.2187
   13MOL   H10915532   0.703   5.414   6.507  0.3852 -0.0566 -3.5159
   13MOL   H11015533   0.634   5.273   6.418 -1.8890  0.0377  0.4385
   13MOL   H11115534   0.414   5.362   6.433 -0.4455 -0.7351  2.3964
   13MOL   H11215535   0.460   5.496   6.521 -0.9136 -0.5415  0.1838
   13MOL   H11315536   0.563   5.446   6.238  0.0657  1.5626 -0.5021
   13MOL   H11415537   0.436   5.554   6.266  0.4063 -0.3356 -0.0209
   13MOL   H11515538   0.720   5.621   6.338 -0.6675  0.1443  0.1205
   13MOL   H11615539   0.577   5.692   6.424 -0.3228 -2.3766  1.2532
   13MOL   H11715540   0.505   5.770   6.195 -0.9866 -1.1583 -0.1770
   13MOL   H11815541   0.645   5.671   6.129 -1.5861 -0.0690 -0.8951
   13MOL   H11915542   0.808   5.798   6.237  0.0918 -0.5173 -1.1186
   13MOL   H12015543   0.698   5.890   6.330  2.6439  2.3248 -0.7792
   13MOL   H12115544   0.591   5.973   6.113  0.8518 -3.1412 -2.2121
   13MOL   H12215545   0.723   5.921   6.029 -0.5541 -0.7971 -0.0056
   13MOL   H12315546   0.782   6.090   6.271 -3.9385 -3.8859  0.6616
   13MOL   H12415547   0.890   6.048   6.149 -0.4395  1.1822  0.4533
   13MOL   H12515548   0.728   6.141   5.980  2.6483 -0.9887  0.2396
   13MOL   H12615549   0.676   6.254   6.119  1.3850  1.2337  0.5419
   13MOL   H12715550   1.064   6.387   5.955  0.1786  0.2038  0.4811
   13MOL   H12815551   1.014   6.504   6.083  1.7111 -0.0602 -0.3711
   13MOL   H12915552   0.923   6.648   5.877  0.9868  0.9956 -0.1059
   13MOL   H13015553   0.985   6.532   5.773  2.8807 -0.0850 -0.0178
   13MOL   H13115554   1.210   6.592   5.838 -1.9188 -2.1416 -0.7240
   13MOL   H13215555   1.152   6.681   5.979 -0.8662  0.9730 -0.0165
   13MOL   H13315556   1.052   6.848   5.841 -1.1450  0.1584 -2.1690
   13MOL   H13415557   1.083   6.752   5.704  1.3714  0.8128 -1.6607
   13MOL   H13515558   1.322   6.760   5.732  1.1544  0.0313  4.0438
   13MOL   H13615559   1.247   6.913   5.671  1.6431 -0.3259 -0.4228
   13MOL   H13715560   1.239   6.997   5.909 -0.7648 -0.8700 -1.6403
   13MOL   H13815561   1.314   6.852   5.967 -1.5337  2.1449  1.8284
   13MOL   H13915562   1.441   7.041   5.758 -1.7332  0.2480  0.2393
   13MOL   H14015563   1.522   6.920   5.850 -0.4391 -0.4000 -3.6421
   13MOL   H14115564   1.477   7.067   6.063 -0.8574  1.7112  0.5784
   13MOL   H14215565   1.610   7.104   5.960 -0.3195  2.5107  0.5521
   13MOL   O14315566   1.513   7.329   6.034 -0.0979 -0.3423  0.3264
   13MOL   C14415567   1.475   7.466   6.034  0.0037  0.6248  0.1792
   13MOL   C14515568   1.542   7.553   6.142 -0.0393 -0.1009 -0.0981
   13MOL   C14615569   1.489   7.536   6.289  0.1863  0.5930  0.7080
   13MOL   C14715570   1.339   7.578   6.301 -0.1447  0.8398  0.5978
   13MOL   C14815571   1.280   7.564   6.441 -0.3519  0.0625 -0.0178
   13MOL   C14915572   1.128   7.567   6.452  0.2203 -0.2785  0.1270
   13MOL   C15015573   1.063   7.704   6.444  0.3516  0.2777 -0.1208
   13MOL   C15115574   0.912   7.703   6.487  0.2584  0.2234  0.2080
   13MOL   C15215575   0.885   7.694   6.640  0.2562  0.2225  0.2513
   13MOL   C15315576   0.748   7.739   6.687 -0.3178  0.4451 -0.2931
   13MOL   O15415577   0.649   7.661   6.628  0.1112 -0.1913 -0.2016
   13MOL   C15515578   0.520   7.673   6.673 -0.1504  0.1574 -1.2858
   13MOL   O15615579   0.490   7.757   6.761 -0.0665  0.0674 -0.1712
   13MOL   C15715580   0.419   7.593   6.593  0.4729  0.4082  0.2076
   13MOL   C15815581   0.454   7.440   6.581 -0.2907 -0.4952 -0.3991
   13MOL   C15915582   0.447   7.369   6.717  0.3014  0.2021 -0.5009
   13MOL   C16015583   0.428   7.214   6.698 -0.4144  0.1484 -0.2504
   13MOL   C16115584   0.417   7.145   6.831 -0.3644  0.0228  0.0505
   13MOL   C16215585   0.398   6.990   6.832  0.1911  0.1558  0.3608
   13MOL   C16315586   0.521   6.914   6.778  0.5587  0.0030  0.2823
   13MOL   C16415587   0.517   6.760   6.760  0.6027 -0.0582  0.1551
   13MOL   C16515588   0.631   6.707   6.683 -0.2765  0.2998  0.0781
   13MOL   O16615589   0.723   6.777   6.642  0.0475 -0.4318 -0.6637
   13MOL   H16715590   1.514   7.496   5.937  2.3874  1.2398  1.2915
   13MOL   H16815591   1.369   7.490   6.033 -0.2516 -0.4152  1.1396
   13MOL   H16915592   1.650   7.537   6.142 -0.1029 -0.5688  0.1863
   13MOL   H17015593   1.526   7.657   6.116  1.1214  0.5579  1.7241
   13MOL   H17115594   1.518   7.442   6.335  0.5676  1.6656  2.6828
   13MOL   H17215595   1.545   7.601   6.357  0.7986  0.3647  0.4233
   13MOL   H17315596   1.347   7.683   6.275  0.1944  0.6559 -0.0391
   13MOL   H17415597   1.282   7.521   6.228  1.8243  0.3069 -0.5400
   13MOL   H17515598   1.322   7.632   6.515 -2.4952  3.6598 -1.9625
   13MOL   H17615599   1.296   7.459   6.462 -0.8090 -0.2055 -0.9632
   13MOL   H17715600   1.114   7.527   6.552 -0.4317 -0.1066  0.1108
   13MOL   H17815601   1.081   7.495   6.383  0.5478 -0.5006  0.1360
   13MOL   H17915602   1.064   7.751   6.345  1.7838 -1.0024 -0.7282
   13MOL   H18015603   1.116   0.020   6.505  1.9900 -1.1436  0.1615
   13MOL   H18115604   0.856   7.629   6.429  0.3075 -0.1848  0.6823
   13MOL   H18215605   0.867   0.039   6.451 -1.7670 -1.0775 -0.7049
   13MOL   H18315606   0.903   7.593   6.675  0.1044  0.2643  0.4531
   13MOL   H18415607   0.964   7.746   6.694  1.6623 -1.3002 -0.3355
   13MOL   H18515608   0.745   7.723   6.795 -1.2394 -1.9267 -0.6422
   13MOL   H18615609   0.742   0.086   6.657  1.3245  0.0679 -1.9785
   13MOL   H18715610   0.414   7.633   6.492  1.5602 -0.8475 -0.3674
   13MOL   H18815611   0.324   7.622   6.636  0.7736  1.7657 -0.0173
   13MOL   H18915612   0.551   7.432   6.532  0.1382  1.1830  0.1412
   13MOL   H19015613   0.384   7.395   6.511 -2.7800  1.1334  0.9783
   13MOL   H19115614   0.361   7.401   6.776  0.8895  1.5694 -0.3747
   13MOL   H19215615   0.536   7.385   6.777  0.5885 -3.2176  0.0727
   13MOL   H19315616   0.509   7.170   6.641 -0.6882 -1.3053  0.4634
   13MOL   H19415617   0.333   7.192   6.649 -0.4800  1.2808 -0.6484
   13MOL   H19515618   0.499   7.175   6.896 -1.8268  0.6518  1.6789
   13MOL   H19615619   0.331   7.190   6.881 -0.5865 -2.2053  1.7671
   13MOL   H19715620   0.383   6.944   6.930  2.9938  1.0369  1.2415
   13MOL   H19815621   0.314   6.957   6.771  1.0856  1.0143 -1.3569
   13MOL   H19915622   0.599   6.933   6.851  1.2280 -0.9929 -0.1592
   13MOL   H20015623   0.560   6.951   6.683 -0.1310 -2.7769 -1.1363
   13MOL   H20115624   0.510   6.718   6.860  0.3221  0.2337  0.2610
   13MOL   H20215625   0.422   6.730   6.716  0.7313 -3.4467  2.0131
   13MOL   H20315626   0.615   6.601   6.662 -0.5099  0.4381 -0.4510
   14MOL     O115627   5.777   5.045   4.427  0.0795  0.3391  0.3328
   14MOL     C215628   5.849   4.999   4.313 -0.2235  0.3635 -0.2466
   14MOL     C315629   5.760   4.997   4.197  0.6786  0.0597  0.0689
   14MOL     C415630   5.652   4.894   4.191  0.1196 -0.0327 -0.7661
   14MOL     C515631   5.596   4.888   4.049 -0.3858  0.5769 -0.0684
   14MOL     C615632   5.519   5.012   4.014 -0.2928 -0.3132  0.1916
   14MOL     C715633   5.449   5.009   3.878  0.2190  0.4409 -0.5770
   14MOL     C815634   5.374   5.138   3.839 -0.0145  0.2033  0.2665
   14MOL     C915635   5.310   5.146   3.701 -0.2081 -0.0099  0.6135
   14MOL    C1015636   5.406   5.162   3.583 -0.7336  0.2010  0.5228
   14MOL    C1115637   5.337   5.157   3.442 -0.2392  0.0292 -0.4276
   14MOL    O1215638   5.256   5.275   3.421 -0.1199 -0.0524  0.1762
   14MOL    C1315639   5.225   5.317   3.295  0.0696  0.3609  0.4883
   14MOL    O1415640   5.280   5.270   3.195 -0.1606  0.2266  0.2158
   14MOL    C1515641   5.104   5.413   3.296 -0.2078 -0.0584 -0.9918
   14MOL    C1615642   5.041   5.449   3.160 -0.1873  0.2175  0.4651
   14MOL    C1715643   5.095   5.571   3.091  0.0342  0.2708 -0.8894
   14MOL    C1815644   5.070   5.575   2.945 -0.2934 -0.0974 -1.2590
   14MOL    C1915645   4.922   5.597   2.909 -0.2278 -0.7718 -0.5954
   14MOL    C2015646   4.879   5.738   2.908  0.7549  0.1440  0.1999
   14MOL    C2115647   4.733   5.762   2.857 -0.0444 -0.0820 -0.9013
   14MOL    C2215648   4.610   5.720   2.946  0.7115  0.1052  0.5821
   14MOL    C2315649   4.617   5.781   3.083  0.2440  0.5680 -0.6241
   14MOL    O2415650   4.546   5.876   3.116 -0.4012  0.2642 -0.0032
   14MOL    H2515651   5.935   5.063   4.289 -0.8803  1.1864 -0.4216
   14MOL    H2615652   5.885   4.900   4.340 -2.1063  0.1080  1.3741
   14MOL    H2715653   5.713   5.095   4.193 -2.4015 -1.3264  0.7761
   14MOL    H2815654   5.826   4.985   4.111  1.8528  2.8971  0.5317
   14MOL    H2915655   5.674   4.791   4.219  1.0392  0.0926 -0.9924
   14MOL    H3015656   5.576   4.921   4.264 -0.2564  0.3178 -1.2855
   14MOL    H3115657   5.662   4.865   3.966 -0.9098  1.3632 -0.7106
   14MOL    H3215658   5.525   4.805   4.050 -0.7332  0.8540 -1.1582
   14MOL    H3315659   5.579   5.101   4.033 -1.0166  0.8898 -2.9782
   14MOL    H3415660   5.447   5.022   4.096 -0.1435  0.1698  0.2626
   14MOL    H3515661   5.385   4.921   3.879  3.2679 -1.8488  0.9352
   14MOL    H3615662   5.523   4.987   3.801  0.6784  0.3071 -0.1054
   14MOL    H3715663   5.446   5.217   3.859 -0.7560  1.2701 -1.1561
   14MOL    H3815664   5.302   5.149   3.920 -0.9208 -2.8177 -0.0762
   14MOL    H3915665   5.237   5.226   3.692  0.0248  0.1235 -0.1396
   14MOL    H4015666   5.246   5.059   3.686  1.0109 -0.2035 -4.2282
   14MOL    H4115667   5.477   5.244   3.598 -1.3999  0.5560  1.7708
   14MOL    H4215668   5.472   5.076   3.596  1.0608  1.5753  0.7503
   14MOL    H4315669   5.413   5.145   3.365  0.5755  1.7517  0.0770
   14MOL    H4415670   5.268   5.073   3.437 -3.5100  2.4731  1.1149
   14MOL    H4515671   5.132   5.505   3.347 -0.8939 -1.2365  1.6208
   14MOL    H4615672   5.029   5.362   3.356 -1.5066  1.1067 -1.6130
   14MOL    H4715673   4.933   5.458   3.168  0.0660  2.8263  1.5893
   14MOL    H4815674   5.027   5.363   3.094 -3.4175  0.6915  0.4588
   14MOL    H4915675   5.201   5.584   3.113 -1.1398  2.7083  3.8927
   14MOL    H5015676   5.044   5.655   3.139  0.0139 -0.7444  0.8974
   14MOL    H5115677   5.110   5.480   2.911 -1.8467 -1.9007  1.7894
   14MOL    H5215678   5.135   5.654   2.906 -0.2950  0.1221 -0.8141
   14MOL    H5315679   4.910   5.542   2.815 -1.1759 -2.2795  0.3950
   14MOL    H5415680   4.867   5.539   2.982  0.3689  0.3301  0.7543
   14MOL    H5515681   4.894   5.780   3.007 -1.9118  1.9793 -0.1271
   14MOL    H5615682   4.957   5.775   2.842  1.1491  0.8116  1.0302
   14MOL    H5715683   4.724   5.720   2.757 -2.0140  0.2286 -0.8819
   14MOL    H5815684   4.711   5.867   2.839  3.0858  0.6985 -0.3228
   14MOL    H5915685   4.513   5.749   2.905  1.5474  1.9303 -0.1739
   14MOL    H6015686   4.604   5.612   2.950 -0.1464  0.1628  0.9632
   14MOL    H6115687   5.757   5.135   4.404  0.2871  0.3211  0.0719
   14MOL    O6215688   4.713   5.728   3.158 -0.2221 -0.1362  0.3660
   14MOL    C6315689   4.701   5.743   3.297  0.1291  0.2053  0.6217
   14MOL    C6415690   4.820   5.821   3.347 -0.5294  0.4377  0.4715
   14MOL    C6515691   4.836   5.841   3.499 -0.2236  0.2896  0.0804
   14MOL    C6615692   4.967   5.918   3.537  0.4226 -0.1426 -0.3349
   14MOL    C6715693   4.977   5.936   3.690 -0.8847  0.2036  0.3413
   14MOL    C6815694   5.090   6.039   3.732 -0.1422 -0.7285  1.0402
   14MOL    C6915695   5.121   6.036   3.887 -0.1389 -0.1873 -0.1445
   14MOL    C7015696   5.226   6.147   3.933  0.3987  1.1319 -0.2629
   14MOL    C7115697   5.241   6.152   4.078  0.1259  0.1214 -0.2856
   14MOL    C7215698   5.135   6.233   4.151  0.7423 -0.1520 -0.0673
   14MOL    O7315699   5.132   6.204   4.287  0.0708  0.4622 -0.2516
   14MOL    C7415700   5.182   6.296   4.373  0.1003  0.6936 -0.5346
   14MOL    O7515701   5.227   6.409   4.345  0.1604 -0.4570  0.6504
   14MOL    C7615702   5.179   6.243   4.513  0.0731  0.6204 -0.7414
   14MOL    C7715703   5.040   6.191   4.572  0.3935  0.2414  0.1373
   14MOL    C7815704   4.929   6.294   4.561  0.3064  0.3837  0.2810
   14MOL    C7915705   4.791   6.237   4.595 -0.5867 -0.1827 -0.0439
   14MOL    C8015706   4.671   6.339   4.586 -0.1250  0.3853 -0.4805
   14MOL    C8115707   4.533   6.297   4.637  0.2197 -0.6107  0.2904
   14MOL    C8215708   4.442   6.250   4.525 -0.1442 -0.2936  0.1551
   14MOL    C8315709   4.294   6.243   4.557  0.0445 -0.0794 -0.1663
   14MOL    C8415710   4.201   6.249   4.431 -0.1461 -0.1541  0.4238
   14MOL    O8515711   4.130   6.344   4.396 -0.3884 -0.0849 -0.4027
   14MOL    H8615712   4.609   5.797   3.320  0.2345  1.0652 -0.8981
   14MOL    H8715713   4.701   5.645   3.344 -0.7441 -0.4805 -0.7724
   14MOL    H8815714   4.907   5.767   3.311  0.0922 -0.1640  2.8286
   14MOL    H8915715   4.842   5.913   3.293 -0.6358  1.0140  1.3921
   14MOL    H9015716   4.751   5.891   3.546  0.3952  0.4657  1.0181
   14MOL    H9115717   4.840   5.743   3.548 -0.4601  0.8275  1.1833
   14MOL    H9215718   5.054   5.864   3.498 -0.0484 -1.8387  0.9381
   14MOL    H9315719   4.974   6.020   3.500 -0.4587  0.1843  0.4054
   14MOL    H9415720   5.012   5.853   3.751 -2.6796  0.6817  2.0607
   14MOL    H9515721   4.884   5.974   3.731 -1.4827  0.8527 -1.5368
   14MOL    H9615722   5.054   6.137   3.700 -0.2199 -0.5626  1.6253
   14MOL    H9715723   5.186   6.017   3.686 -1.3703 -4.0040 -0.0942
   14MOL    H9815724   5.157   5.935   3.907 -0.7183 -0.5175 -0.7451
   14MOL    H9915725   5.027   6.062   3.936  1.3885  4.8850  0.3036
   14MOL   H10015726   5.183   6.243   3.905 -1.5570  0.8422  1.5354
   14MOL   H10115727   5.323   6.138   3.884 -0.3494  1.2778 -1.7801
   14MOL   H10215728   5.242   6.053   4.124  1.0823  0.7702  1.1220
   14MOL   H10315729   5.334   6.201   4.106 -0.2046 -0.1695  1.3563
   14MOL   H10415730   5.151   6.337   4.125  0.8394 -0.0880  0.2507
   14MOL   H10515731   5.039   6.201   4.109  0.5967  0.0293  0.1289
   14MOL   H10615732   5.232   6.310   4.580  1.5192 -0.4564 -0.7955
   14MOL   H10715733   5.238   6.151   4.505 -0.3830  0.3040 -0.4674
   14MOL   H10815734   5.064   6.166   4.675 -0.2160  1.3344  0.5493
   14MOL   H10915735   4.991   6.104   4.528 -0.2332 -0.0118  1.3364
   14MOL   H11015736   4.919   6.353   4.470  2.2062  1.1437  0.5415
   14MOL   H11115737   4.955   6.369   4.636 -2.7381  2.1473 -0.3481
   14MOL   H11215738   4.794   6.184   4.691  2.3258 -2.0895 -1.1290
   14MOL   H11315739   4.768   6.154   4.528 -0.2658 -0.2007 -0.1292
   14MOL   H11415740   4.704   6.418   4.654 -1.1461  0.1629  0.2885
   14MOL   H11515741   4.655   6.385   4.489  1.8078 -0.4262 -1.2131
   14MOL   H11615742   4.551   6.234   4.723  1.2621 -1.4454 -0.5248
   14MOL   H11715743   4.475   6.377   4.683 -1.1854 -0.4435 -1.6728
   14MOL   H11815744   4.484   6.158   4.485  1.8431 -0.0504  1.5986
   14MOL   H11915745   4.455   6.332   4.455  0.7377 -0.3286  0.2755
   14MOL   H12015746   4.255   6.166   4.624 -0.9022  2.8561  2.7782
   14MOL   H12115747   4.264   6.331   4.613  1.9975  1.4767 -1.4646
   14MOL   O12215748   4.220   6.132   4.355 -0.2579 -0.1879 -0.0223
   14MOL   C12315749   4.163   6.118   4.229 -0.4097 -0.2124  0.7614
   14MOL   C12415750   4.228   6.001   4.156 -0.0297  0.2376  0.0937
   14MOL   C12515751   4.182   5.867   4.203 -0.2526 -0.0709  0.4338
   14MOL   C12615752   4.259   5.750   4.138  0.3237 -0.0203 -0.1916
   14MOL   C12715753   4.264   5.737   3.983 -0.2041 -0.8294 -0.5471
   14MOL   C12815754   4.126   5.703   3.936  0.2196  0.9395 -0.6008
   14MOL   C12915755   4.114   5.653   3.788  0.1267 -0.4447 -0.0800
   14MOL   C13015756   3.961   5.617   3.757 -0.8538 -0.3846 -0.1021
   14MOL   C13115757   3.949   5.523   3.630  0.2444 -0.7432  0.1748
   14MOL   C13215758   3.808   5.496   3.591 -0.4122 -0.4145 -0.4707
   14MOL   O13315759   3.744   5.594   3.508 -0.2644  0.8155  0.2479
   14MOL   C13415760   3.766   5.585   3.376 -0.3553 -0.1101 -0.0370
   14MOL   O13515761   3.829   5.496   3.313  0.0666  0.1725  0.2722
   14MOL   C13615762   3.702   5.706   3.303 -0.1616  0.3089 -0.4212
   14MOL   C13715763   3.552   5.697   3.304 -0.0118  0.6762  0.6442
   14MOL   C13815764   3.484   5.823   3.249  0.5851  0.0456 -0.0325
   14MOL   C13915765   3.342   5.847   3.299  0.4716 -0.1611 -0.0162
   14MOL   C14015766   3.264   5.965   3.226  0.2679  0.3030 -0.0274
   14MOL   C14115767   3.122   5.991   3.284 -0.0542 -0.6577 -0.1219
   14MOL   C14215768   3.045   6.108   3.219 -0.4736  0.8480  0.4466
   14MOL   C14315769   2.961   6.051   3.097 -0.0286 -0.9370 -0.1397
   14MOL   C14415770   2.818   5.997   3.122  0.7961  0.0077 -0.4541
   14MOL   O14515771   2.790   5.875   3.113 -0.0778  0.6763  0.0075
   14MOL   H14615772   4.055   6.108   4.235 -0.4355 -0.7201 -0.4573
   14MOL   H14715773   4.200   6.209   4.180  2.7414 -0.1977  2.9757
   14MOL   H14815774   4.209   6.021   4.050 -1.3863 -1.3521  0.0042
   14MOL   H14915775   4.336   6.009   4.166 -0.2238 -0.3091  2.8321
   14MOL   H15015776   4.196   5.867   4.311 -0.8635 -1.1037  0.5271
   14MOL   H15115777   4.077   5.854   4.176  0.2779 -1.1381 -1.2055
   14MOL   H15215778   4.362   5.753   4.176  0.9883  0.2196 -1.9505
   14MOL   H15315779   4.222   5.660   4.188  1.5222 -0.3132  0.1983
   14MOL   H15415780   4.330   5.654   3.958 -0.7375 -0.5274 -3.1405
   14MOL   H15515781   4.310   5.826   3.939 -1.0263 -0.3630 -0.4790
   14MOL   H15615782   4.060   5.790   3.941  1.5132  1.8601  0.8274
   14MOL   H15715783   4.090   5.625   4.003 -2.3209  2.8573  0.3419
   14MOL   H15815784   4.176   5.566   3.765  1.0313  0.9330 -3.0646
   14MOL   H15915785   4.139   5.733   3.719 -0.1881 -1.0240 -0.8750
   14MOL   H16015786   3.913   5.712   3.733  0.9497  0.5390 -0.1303
   14MOL   H16115787   3.912   5.576   3.845 -0.7933 -0.5304 -0.1366
   14MOL   H16215788   4.011   5.570   3.553 -1.4614  2.3328  0.5941
   14MOL   H16315789   3.993   5.427   3.658  0.8530  0.1567  2.3768
   14MOL   H16415790   3.801   5.396   3.549  0.1056 -0.8747  0.5176
   14MOL   H16515791   3.748   5.493   3.682  0.4381  0.3717  0.1291
   14MOL   H16615792   3.737   5.709   3.200 -0.2359 -0.0807 -0.4620
   14MOL   H16715793   3.734   5.803   3.341  1.4528 -1.1635  2.1496
   14MOL   H16815794   3.529   5.680   3.409 -0.3209 -0.3966  0.4090
   14MOL   H16915795   3.515   5.617   3.240 -1.4499  1.0188  1.0223
   14MOL   H17015796   3.484   5.812   3.141  0.6815  0.3034 -0.0599
   14MOL   H17115797   3.545   5.913   3.261  1.1629  0.2296 -3.8791
   14MOL   H17215798   3.349   5.866   3.406  0.7218 -1.9078  0.2898
   14MOL   H17315799   3.288   5.752   3.291 -1.7895  0.9890  1.0111
   14MOL   H17415800   3.325   6.055   3.222 -1.9255  1.7990 -0.2368
   14MOL   H17515801   3.245   5.934   3.123 -2.6456  0.8225  0.3178
   14MOL   H17615802   3.067   5.898   3.297 -2.3382  0.8135  1.0802
   14MOL   H17715803   3.132   6.020   3.388 -1.9109 -0.3599 -0.0069
   14MOL   H17815804   3.117   6.187   3.198 -0.0283  0.2197 -0.4166
   14MOL   H17915805   2.982   6.152   3.297  1.0495 -0.0411  2.2120
   14MOL   H18015806   2.963   6.129   3.021  1.8983 -0.9455 -0.1259
   14MOL   H18115807   3.020   5.975   3.046 -1.1169 -1.3775 -0.7498
   14MOL   O18215808   2.735   6.088   3.186  0.3580 -0.3439  0.7093
   14MOL   C18315809   2.597   6.056   3.227  0.2288  0.1614 -0.0379
   14MOL   C18415810   2.574   6.067   3.372 -0.1007  0.4047 -0.5435
   14MOL   C18515811   2.614   6.199   3.439  0.9450  0.3164 -0.3427
   14MOL   C18615812   2.557   6.191   3.586  0.3813 -0.1821 -0.4065
   14MOL   C18715813   2.576   6.321   3.668 -0.0260  0.0428 -0.5289
   14MOL   C18815814   2.715   6.377   3.699  0.4689  0.7632  0.9761
   14MOL   C18915815   2.798   6.277   3.785 -0.2827  0.1574  0.1181
   14MOL   C19015816   2.943   6.335   3.812 -0.3051  0.3248 -0.1797
   14MOL   C19115817   2.936   6.436   3.923 -0.0631 -0.3658  0.6604
   14MOL   C19215818   3.072   6.495   3.963 -0.1667  0.2041 -0.1892
   14MOL   O19315819   3.114   6.575   3.856  0.2825  0.4291  0.3408
   14MOL   C19415820   3.078   6.714   3.849 -0.1996 -0.1421 -0.4357
   14MOL   O19515821   3.007   6.778   3.927 -0.1171  0.0456 -0.5138
   14MOL   C19615822   3.116   6.779   3.716  0.2287  0.5087  0.4006
   14MOL   C19715823   3.253   6.738   3.661  0.7650 -0.0596  0.3113
   14MOL   C19815824   3.333   6.865   3.616 -0.1633  0.5762 -1.2019
   14MOL   C19915825   3.376   6.961   3.730 -0.0491  0.0834  0.2221
   14MOL   C20015826   3.422   7.098   3.668 -0.0507  0.2379  0.5372
   14MOL   C20115827   3.456   7.214   3.765 -0.6327  0.6707 -0.1443
   14MOL   C20215828   3.333   7.293   3.829  0.1192  0.2395 -0.7547
   14MOL   C20315829   3.269   7.217   3.947  0.0289 -0.2263 -0.0513
   14MOL   C20415830   3.367   7.193   4.062 -0.2473  0.1734 -0.6750
   14MOL   O20515831   3.402   7.085   4.113  0.3792 -0.0602 -0.1557
   14MOL   H20615832   2.526   6.127   3.186  1.1646  1.1151 -0.0376
   14MOL   H20715833   2.557   5.964   3.183 -1.2322 -0.2842  2.1320
   14MOL   H20815834   2.468   6.051   3.388 -0.4146 -0.0271 -2.8904
   14MOL   H20915835   2.629   5.988   3.423 -3.6593 -1.3773  0.6837
   14MOL   H21015836   2.720   6.224   3.440  0.7190  1.2346  1.3625
   14MOL   H21115837   2.574   6.285   3.386  0.6467  1.0693  1.0865
   14MOL   H21215838   2.450   6.176   3.575  0.6932  0.0340 -4.7919
   14MOL   H21315839   2.605   6.110   3.642 -0.3672  0.1323  0.7087
   14MOL   H21415840   2.519   6.313   3.760  2.6720  0.0905  1.2056
   14MOL   H21515841   2.530   6.396   3.604 -0.0704 -1.1749 -1.9494
   14MOL   H21615842   2.701   6.479   3.734 -0.5167  1.1915 -0.5846
   14MOL   H21715843   2.777   6.393   3.611  2.8971  0.2165  2.5277
   14MOL   H21815844   2.811   6.185   3.728 -0.0025  0.7592 -0.8034
   14MOL   H21915845   2.742   6.236   3.869  2.7287  0.0632  2.1553
   14MOL   H22015846   2.988   6.367   3.718  0.1510 -1.9229 -0.7555
   14MOL   H22115847   3.017   6.263   3.848 -1.2972  0.5581  2.4121
   14MOL   H22215848   2.862   6.514   3.903  1.8133  1.1742 -0.4754
   14MOL   H22315849   2.902   6.382   4.011 -0.3088 -1.2007  0.0567
   14MOL   H22415850   3.096   6.532   4.063  1.3754  0.0193 -0.4738
   14MOL   H22515851   3.131   6.403   3.959  0.9860  0.8607  1.1870
   14MOL   H22615852   3.102   6.887   3.723 -5.7210 -0.0683  0.1433
   14MOL   H22715853   3.043   6.745   3.642  0.3893  0.1514  0.4039
   14MOL   H22815854   3.239   6.656   3.590 -0.1697  2.6339 -2.7486
   14MOL   H22915855   3.317   6.694   3.737  0.2157  1.2498  1.5554
   14MOL   H23015856   3.278   6.923   3.542 -2.8866  0.9932  1.0629
   14MOL   H23115857   3.423   6.828   3.566 -0.2120 -0.1839 -0.7458
   14MOL   H23215858   3.455   6.910   3.785  1.0528  1.1917 -0.2907
   14MOL   H23315859   3.288   6.975   3.792 -1.2639 -0.3665 -1.3578
   14MOL   H23415860   3.502   7.073   3.598 -1.3552 -0.7625 -0.6223
   14MOL   H23515861   3.355   7.146   3.596  2.2368 -0.0836 -1.8789
   14MOL   H23615862   3.531   7.181   3.837 -1.3986 -0.0455  0.3395
   14MOL   H23715863   3.513   7.294   3.718  1.9750  0.1874  2.0549
   14MOL   H23815864   3.260   7.306   3.750 -1.1600 -0.6741  0.2390
   14MOL   H23915865   3.360   7.393   3.862  0.6204  0.7067 -2.5260
   14MOL   H24015866   3.177   7.268   3.977 -0.8589 -1.1899 -1.1230
   14MOL   H24115867   3.235   7.118   3.917 -2.2522 -0.6767  3.6279
   14MOL   O24215868   3.404   7.312   4.116  0.5250 -0.5979 -0.2027
   14MOL   C24315869   3.480   7.317   4.240  0.3514  0.2709  0.3134
   14MOL   C24415870   3.544   7.461   4.246 -0.2872  0.0354 -0.3155
   14MOL   C24515871   3.633   7.484   4.376  0.0788 -0.3762 -0.4461
   14MOL   C24615872   3.730   7.367   4.398  0.4217 -0.8243 -0.0261
   14MOL   C24715873   3.834   7.402   4.513  0.3983 -0.0858 -0.1676
   14MOL   C24815874   3.926   7.285   4.533 -0.2339  0.3869  0.2234
   14MOL   C24915875   4.042   7.298   4.637 -0.1192 -0.1605  0.3472
   14MOL   C25015876   4.143   7.182   4.631  0.5451 -0.2746 -0.6703
   14MOL   C25115877   4.240   7.185   4.753 -0.2796  0.2831  0.0921
   14MOL   C25215878   4.340   7.072   4.762  0.0278  0.0466 -0.5919
   14MOL   O25315879   4.420   7.071   4.880 -0.0987 -0.4782 -0.4059
   14MOL   C25415880   4.456   6.952   4.942  1.1054  0.4009  0.3104
   14MOL   O25515881   4.424   6.838   4.899 -0.6618 -0.6737 -0.7241
   14MOL   C25615882   4.538   6.974   5.068 -0.6292 -1.0280  1.2437
   14MOL   C25715883   4.679   7.019   5.045  0.3442  0.0779 -0.6759
   14MOL   C25815884   4.771   6.905   4.993 -0.1543 -0.1479  0.6666
   14MOL   C25915885   4.924   6.940   4.996 -0.8006 -0.1563  0.0480
   14MOL   C26015886   5.026   6.827   4.958  0.2866 -0.0687  0.1265
   14MOL   C26115887   5.175   6.840   5.011 -0.1564 -0.5226  0.3532
   14MOL   C26215888   5.271   6.733   4.967 -0.5308  0.0616 -0.1004
   14MOL   C26315889   5.403   6.721   5.045  0.0873  0.9155  0.1610
   14MOL   C26415890   5.385   6.639   5.178  0.0596 -0.4579 -0.7702
   14MOL   O26515891   5.414   6.520   5.183  0.2632  0.4360 -0.3924
   14MOL   H26615892   3.418   7.308   4.330  2.0369  0.3215  1.5115
   14MOL   H26715893   3.563   7.246   4.240  0.3012  0.2001  1.0668
   14MOL   H26815894   3.606   7.489   4.161 -0.6853  0.9555 -0.3143
   14MOL   H26915895   3.453   7.520   4.257 -0.6191 -0.5178 -0.1089
   14MOL   H27015896   3.686   7.579   4.384  2.7880 -1.9953  1.5093
   14MOL   H27115897   3.570   7.470   4.464  1.5328 -2.2515  0.3256
   14MOL   H27215898   3.682   7.274   4.427 -0.1633 -0.5222 -0.0196
   14MOL   H27315899   3.783   7.351   4.304  0.2125 -0.8159 -0.1455
   14MOL   H27415900   3.774   7.422   4.602  1.4049  1.7757  0.1182
   14MOL   H27515901   3.894   7.490   4.492  0.4656 -0.1663 -0.3058
   14MOL   H27615902   3.969   7.275   4.433  0.4378 -0.7038  0.6069
   14MOL   H27715903   3.868   7.194   4.547  2.0504 -0.9575  1.2433
   14MOL   H27815904   3.996   7.321   4.733  0.9104  2.3411  0.2696
   14MOL   H27915905   4.096   7.386   4.603  1.6092 -0.7702  1.4744
   14MOL   H28015906   4.194   7.202   4.537 -1.0399  1.8795 -1.1143
   14MOL   H28115907   4.109   7.079   4.621 -0.3860 -0.3216  2.3917
   14MOL   H28215908   4.303   7.273   4.749  0.9445 -0.4933  1.6550
   14MOL   H28315909   4.181   7.179   4.845  0.0534  0.5116  0.3201
   14MOL   H28415910   4.287   6.978   4.748  1.3149 -0.6765 -0.7054
   14MOL   H28515911   4.409   7.074   4.677  0.4012 -1.1374 -0.3181
   14MOL   H28615912   4.529   6.888   5.135 -1.7670  0.3950  2.9426
   14MOL   H28715913   4.493   7.054   5.126  2.3875  0.2327  1.9264
   14MOL   H28815914   4.724   7.060   5.135  1.7521  1.7472 -2.0909
   14MOL   H28915915   4.671   7.111   4.986 -1.9406  1.1061  1.1578
   14MOL   H29015916   4.746   6.883   4.889  0.9977  0.5465  0.2361
   14MOL   H29115917   4.744   6.815   5.048  2.7521 -1.2083  0.4522
   14MOL   H29215918   4.949   6.973   5.097  0.4221  1.9158 -0.8966
   14MOL   H29315919   4.942   7.036   4.947 -0.5032  0.5826  1.5631
   14MOL   H29415920   4.988   6.729   4.987 -0.9027  1.2092  3.1261
   14MOL   H29515921   5.028   6.825   4.849 -0.6525 -0.1102  0.1028
   14MOL   H29615922   5.219   6.929   4.967 -0.0714 -0.8773 -0.2947
   14MOL   H29715923   5.186   6.849   5.119 -0.3408  0.5526  0.2875
   14MOL   H29815924   5.287   6.751   4.860  0.9807  1.6112  0.3691
   14MOL   H29915925   5.221   6.636   4.964 -1.1242  0.3871 -1.1159
   14MOL   H30015926   5.473   6.672   4.977  0.5737  1.4725  0.2584
   14MOL   H30115927   5.420   6.824   5.074 -2.8395  1.0784  1.5132
   14MOL   O30215928   5.360   6.714   5.280 -0.2830 -0.5813 -0.0124
   14MOL   C30315929   5.361   6.661   5.412  0.2344 -0.2152 -0.1160
   14MOL   C30415930   5.237   6.579   5.449  0.0135  0.1151  0.6741
   14MOL   C30515931   5.111   6.661   5.449  0.3659 -0.3039 -0.0524
   14MOL   C30615932   5.015   6.645   5.325 -0.4587  0.1589 -0.1591
   14MOL   C30715933   4.896   6.744   5.326  0.2965 -0.2516  0.2242
   14MOL   C30815934   4.793   6.710   5.429  0.1739 -0.0758 -0.0010
   14MOL   C30915935   4.685   6.814   5.430  0.0017  0.4859  0.4289
   14MOL   C31015936   4.560   6.785   5.512  0.7794  0.1175 -0.3236
   14MOL   C31115937   4.445   6.890   5.517 -0.2473  0.0903 -0.0668
   14MOL   C31215938   4.337   6.834   5.600 -0.2848 -0.8349 -0.4446
   14MOL   O31315939   4.373   6.823   5.736 -0.0425 -0.2691  0.0390
   14MOL   C31415940   4.282   6.843   5.828  1.3398 -1.0765 -0.2105
   14MOL   O31515941   4.173   6.893   5.802  0.2237 -0.0216  0.3560
   14MOL   C31615942   4.331   6.802   5.968  0.3401  0.6793 -0.1497
   14MOL   C31715943   4.420   6.906   6.037  0.1868 -0.0943  0.6211
   14MOL   C31815944   4.419   6.885   6.189 -0.2541  0.0047 -0.4116
   14MOL   C31915945   4.489   7.007   6.258  0.0555  0.5584 -0.1457
   14MOL   C32015946   4.488   6.995   6.408 -0.5420  0.3635  0.0608
   14MOL   C32115947   4.589   7.086   6.482  0.0570  0.1889 -0.1099
   14MOL   C32215948   4.618   7.040   6.624  0.1565 -0.5032 -0.4031
   14MOL   C32315949   4.718   7.134   6.687 -0.5960  0.2499 -0.0927
   14MOL   C32415950   4.740   7.099   6.840 -0.2559 -0.9767  0.0774
   14MOL   O32515951   4.852   7.062   6.867 -0.2404  0.0163 -0.3219
   14MOL   H32615952   5.456   6.614   5.441  0.9556  0.7280 -0.9160
   14MOL   H32715953   5.358   6.751   5.474  0.3591 -0.1768 -0.1655
   14MOL   H32815954   5.224   6.503   5.372 -0.7261  0.8845  0.0261
   14MOL   H32915955   5.248   6.534   5.547  0.9411 -1.4202 -0.1101
   14MOL   H33015956   5.059   6.643   5.543 -0.0816  1.8965  0.1423
   14MOL   H33115957   5.133   6.767   5.466  2.4150 -0.7272  0.0722
   14MOL   H33215958   5.073   6.685   5.242  0.0226  0.1844  0.1875
   14MOL   H33315959   4.975   6.547   5.302  1.4861 -0.7158  0.0978
   14MOL   H33415960   4.844   6.750   5.231 -0.0557  2.6159  0.5767
   14MOL   H33515961   4.927   6.846   5.344 -1.6081  0.4710 -0.4938
   14MOL   H33615962   4.838   6.707   5.529 -1.7380 -0.1081  0.8804
   14MOL   H33715963   4.752   6.610   5.415  0.1525  0.1745 -1.7592
   14MOL   H33815964   4.653   6.851   5.332 -0.3638  1.8395  1.0489
   14MOL   H33915965   4.721   6.906   5.476 -0.5709 -0.0720  2.0033
   14MOL   H34015966   4.607   6.780   5.610  1.2064 -0.0926 -0.5387
   14MOL   H34115967   4.510   6.692   5.485 -1.8904  1.1116  0.9733
   14MOL   H34215968   4.483   6.988   5.545  0.8865 -0.3296 -0.0954
   14MOL   H34315969   4.403   6.905   5.418 -1.0662  0.0680  0.2773
   14MOL   H34415970   4.250   6.898   5.585  0.7740  0.0517 -3.0484
   14MOL   H34515971   4.306   6.738   5.559 -2.7257 -0.6461  0.8231
   14MOL   H34615972   4.381   6.705   5.964 -0.3501  0.3190 -0.1175
   14MOL   H34715973   4.247   6.783   6.035  0.2310  0.5056 -0.3346
   14MOL   H34815974   4.376   7.005   6.021  0.5929 -0.0125 -0.0081
   14MOL   H34915975   4.521   6.909   5.997 -0.4371 -0.6437 -1.0052
   14MOL   H35015976   4.471   6.793   6.220 -0.8274 -0.7070 -1.5444
   14MOL   H35115977   4.320   6.870   6.232 -0.8069  1.3305 -1.1874
   14MOL   H35215978   4.441   7.102   6.234 -3.8776 -0.8980  1.6598
   14MOL   H35315979   4.590   7.007   6.217 -0.4992 -1.6942 -1.5992
   14MOL   H35415980   4.386   7.007   6.447 -0.5626  1.9864 -0.4350
   14MOL   H35515981   4.515   6.894   6.439  3.8626  1.5590  0.4381
   14MOL   H35615982   4.686   7.084   6.433  0.1149  2.6665 -0.1909
   14MOL   H35715983   4.552   7.189   6.481 -0.5996 -0.0289 -2.7458
   14MOL   H35815984   4.661   6.940   6.614  0.4906 -0.6856  2.2993
   14MOL   H35915985   4.528   7.039   6.685 -0.2272  1.3241 -0.9227
   14MOL   H36015986   4.813   7.123   6.634 -0.6782 -2.3856  0.2211
   14MOL   H36115987   4.692   7.239   6.673 -0.0759  0.5198  0.9865
   14MOL   O36215988   4.634   7.120   6.918 -0.5287  0.0739 -0.1346
   14MOL   C36315989   4.641   7.069   7.047  0.4140 -0.3382  0.0751
   14MOL   C36415990   4.550   6.951   7.076 -0.0304 -0.3578 -0.3004
   14MOL   C36515991   4.544   6.851   6.964  0.4710 -0.2496 -0.4634
   14MOL   C36615992   4.490   6.718   7.005  0.1050  0.2041 -0.6233
   14MOL   C36715993   4.339   6.723   7.047  0.7579 -0.6947  0.4139
   14MOL   C36815994   4.291   6.589   7.090  0.0251  0.1416  0.1634
   14MOL   C36915995   4.152   6.588   7.147 -0.7433 -0.0482 -0.2073
   14MOL   C37015996   4.095   6.448   7.182  0.0754  0.2009  0.5881
   14MOL   C37115997   4.008   6.435   7.305 -0.1661  0.1589 -0.2239
   14MOL   C37215998   3.909   6.320   7.313  0.0988 -0.0917 -0.1903
   14MOL   O37315999   3.970   6.196   7.352  0.2747  0.3368 -0.2813
   14MOL   C37416000   3.928   6.078   7.307 -0.4286  0.2043  0.6384
   14MOL   O37516001   3.829   6.053   7.240 -0.6462 -0.4741  0.6851
   14MOL   C37616002   4.032   5.976   7.343 -0.3801  0.3265  0.2816
   14MOL   C37716003   4.158   5.975   7.255  0.3497  0.2894  0.0156
   14MOL   C37816004   4.277   6.044   7.325  0.3268  0.0630 -0.0371
   14MOL   C37916005   4.412   6.022   7.244  0.2472  0.0277  0.7217
   14MOL   C38016006   4.524   6.107   7.299 -0.3391  0.0938  0.2388
   14MOL   C38116007   4.519   6.260   7.287 -0.3903  0.4999  0.3611
   14MOL   C38216008   4.642   6.324   7.353 -0.0748 -0.8137 -0.2873
   14MOL   C38316009   4.617   6.478   7.336 -0.3747 -0.3179  0.3565
   14MOL   C38416010   4.738   6.554   7.386 -0.3101 -0.2659 -0.3614
   14MOL   O38516011   4.795   6.531   7.492  0.0221 -0.4388 -0.3827
   14MOL   H38616012   4.741   7.038   7.078  1.1001  2.4104  0.8364
   14MOL   H38716013   4.616   7.142   7.125  1.2967  1.0175 -0.8764
   14MOL   H38816014   4.575   6.912   7.175 -1.8802 -0.8570  0.0014
   14MOL   H38916015   4.447   6.986   7.088 -0.0285 -0.6162  0.5042
   14MOL   H39016016   4.482   6.891   6.884 -2.8277 -1.4499  1.4066
   14MOL   H39116017   4.644   6.826   6.929  0.1515  1.1912 -2.4978
   14MOL   H39216018   4.490   6.652   6.918 -4.3068 -0.2305 -0.4032
   14MOL   H39316019   4.563   6.682   7.077  0.7173 -0.1960 -1.4289
   14MOL   H39416020   4.277   6.765   6.968  1.3959 -0.9188 -0.2089
   14MOL   H39516021   4.325   6.791   7.132 -2.8462  0.0321 -0.6762
   14MOL   H39616022   4.351   6.560   7.176 -0.1462  3.5694  1.5150
   14MOL   H39716023   4.292   6.519   7.007  0.6411  0.9603 -0.5303
   14MOL   H39816024   4.090   6.645   7.077 -0.4946 -1.4613 -1.5900
   14MOL   H39916025   4.151   6.650   7.237 -0.8669 -2.3162  1.3831
   14MOL   H40016026   4.181   6.382   7.193 -0.2010 -0.7492 -2.4280
   14MOL   H40116027   4.050   6.411   7.089  0.2167  1.4231  0.0202
   14MOL   H40216028   4.072   6.433   7.393  0.8848 -1.2087 -1.0079
   14MOL   H40316029   3.956   6.531   7.303  0.9829  0.8013  0.0037
   14MOL   H40416030   3.843   6.350   7.394 -1.7850  0.9159 -2.0385
   14MOL   H40516031   3.844   6.321   7.225 -2.0869 -1.1833  1.3672
   14MOL   H40616032   3.980   5.882   7.328  2.4682 -1.2531 -0.0495
   14MOL   H40716033   4.058   5.959   7.448  0.1052  0.7012  0.2216
   14MOL   H40816034   4.142   6.019   7.156  1.4484 -1.2881 -0.8900
   14MOL   H40916035   4.182   5.871   7.235  2.1057  0.3856  1.4545
   14MOL   H41016036   4.294   6.023   7.431  3.3745 -0.8234 -0.6346
   14MOL   H41116037   4.263   6.152   7.322 -0.4711 -0.1012 -2.8773
   14MOL   H41216038   4.406   6.045   7.137 -2.1177 -1.7268  0.4196
   14MOL   H41316039   4.448   5.919   7.242  1.3132  0.4017  0.3917
   14MOL   H41416040   4.541   6.076   7.402 -1.3914 -0.9302  0.1092
   14MOL   H41516041   4.615   6.069   7.252  0.1393 -1.2497  2.1914
   14MOL   H41616042   4.515   6.283   7.181 -0.5810 -0.2870  0.1917
   14MOL   H41716043   4.428   6.284   7.342  0.0858  0.8303  1.0119
   14MOL   H41816044   4.738   6.289   7.318  0.0422 -1.3443  0.5674
   14MOL   H41916045   4.638   6.311   7.461 -2.4569  0.6701 -0.1327
   14MOL   H42016046   4.605   6.502   7.230 -1.8525  1.2208  0.8422
   14MOL   H42116047   4.528   6.499   7.395 -0.7946 -2.0033  0.3708
   14MOL   O42216048   4.772   6.658   7.304 -0.1689 -0.5603 -0.4234
   14MOL   C42316049   4.888   6.730   7.325 -0.4833 -0.2731 -0.0126
   14MOL   C42416050   4.910   6.831   7.209 -0.0895  0.3019 -0.0205
   14MOL   C42516051   5.032   6.915   7.236  0.0714 -0.0273  0.2701
   14MOL   C42616052   5.023   7.010   7.357 -0.3697  0.2541 -0.6289
   14MOL   C42716053   5.125   7.119   7.360 -0.0235  0.3105  0.1649
   14MOL   C42816054   5.148   7.183   7.500 -0.3405 -0.4834  0.3615
   14MOL   C42916055   5.274   7.276   7.525  0.4018  0.9268 -0.2651
   14MOL   C43016056   5.401   7.204   7.522 -0.3096 -0.2062 -0.2534
   14MOL   C43116057   5.524   7.287   7.553 -0.6825 -1.0310 -0.4202
   14MOL   C43216058   5.650   7.201   7.553  0.2115  0.1281  0.3348
   14MOL   O43316059   5.757   7.288   7.572 -0.2206 -0.3041  0.1806
   14MOL   C43416060   5.884   7.257   7.536  0.2056 -0.1016  0.5572
   14MOL   O43516061   5.921   7.155   7.475 -0.1817 -0.0736 -0.4799
   14MOL   C43616062   5.987   7.358   7.597  0.6412  0.0910 -0.9349
   14MOL   C43716063   6.131   7.336   7.550 -0.2231 -0.0160  0.3862
   14MOL   C43816064   6.222   7.446   7.610 -0.5547  0.4793  0.8360
   14MOL   C43916065   6.360   7.436   7.539  0.4314 -0.2032  0.0454
   14MOL   C44016066   6.454   7.554   7.553 -0.0940  0.2288  0.3148
   14MOL   C44116067   6.404   7.684   7.503 -0.2204 -0.5390 -0.0118
   14MOL   C44216068   6.360   0.017   7.617 -0.6598  0.1308  0.2943
   14MOL   C44316069   6.328   0.161   7.582 -0.2349  0.3593  0.0409
   14MOL   C44416070   6.448   0.254   7.577  0.1114  0.0745 -0.9654
   14MOL   O44516071   6.491   0.297   7.468  0.2332 -0.2306 -0.1023
   14MOL   H44616072   4.876   6.787   7.417  4.7276  0.6359  0.2717
   14MOL   H44716073   4.978   6.669   7.334 -1.2489 -1.1795  1.8749
   14MOL   H44816074   4.910   6.781   7.113  1.2930  1.9190 -0.8797
   14MOL   H44916075   4.822   6.896   7.215 -1.4772 -1.6150  0.9328
   14MOL   H45016076   5.122   6.854   7.240  1.7000  2.2577 -0.6162
   14MOL   H45116077   5.046   6.975   7.146  0.9863 -1.4183 -0.5325
   14MOL   H45216078   4.919   7.037   7.374  0.1218  0.9022  1.5574
   14MOL   H45316079   5.051   6.952   7.446  1.5507 -0.9029 -1.9497
   14MOL   H45416080   5.104   7.201   7.291 -0.9649 -0.1196 -0.0732
   14MOL   H45516081   5.221   7.086   7.320 -0.6785  0.1434 -1.2944
   14MOL   H45616082   5.147   7.099   7.570 -0.0715 -0.6732  0.1378
   14MOL   H45716083   5.065   7.251   7.520 -0.8026 -0.9904  0.2227
   14MOL   H45816084   5.268   7.342   7.611  2.5803 -0.8573  1.3097
   14MOL   H45916085   5.277   7.351   7.446 -0.2618  1.4749  0.2255
   14MOL   H46016086   5.407   7.138   7.435 -2.8974 -1.5143  0.4997
   14MOL   H46116087   5.399   7.134   7.605 -0.3337  0.6881  0.5138
   14MOL   H46216088   5.534   7.362   7.475  2.1597 -0.5348  0.3526
   14MOL   H46316089   5.509   7.343   7.646  0.0266  0.3401 -1.1150
   14MOL   H46416090   5.639   7.128   7.633  1.3297 -0.2588  0.1386
   14MOL   H46516091   5.655   7.160   7.452  1.3724  2.8200 -0.7567
   14MOL   H46616092   5.972   7.355   7.705 -0.6442  1.7181 -1.0405
   14MOL   H46716093   5.948   7.456   7.567 -2.7408 -0.7810  0.4002
   14MOL   H46816094   6.140   7.353   7.443  1.9875  0.3740  0.5996
   14MOL   H46916095   6.169   7.235   7.566 -1.9346 -0.9489 -1.3591
   14MOL   H47016096   6.243   7.444   7.717  0.1702 -1.1510  0.6812
   14MOL   H47116097   6.182   7.543   7.579 -1.1113 -0.4181 -1.3159
   14MOL   H47216098   6.344   7.427   7.431  0.7763 -0.2821 -0.0015
   14MOL   H47316099   6.417   7.344   7.559  1.5680  0.4392 -0.1659
   14MOL   H47416100   6.506   7.549   7.649  1.6118  0.1214 -0.5787
   14MOL   H47516101   6.537   7.519   7.490  0.2284 -0.2973  1.0281
   14MOL   H47616102   6.489   7.736   7.461  0.1469 -1.8661 -0.9528
   14MOL   H47716103   6.337   7.684   7.417 -1.0242  1.6202  0.5835
   14MOL   H47816104   6.448   0.022   7.681  0.3599  1.1468 -1.1380
   14MOL   H47916105   6.278   7.728   7.672 -0.2458 -1.4757 -0.3918
   14MOL   H48016106   6.273   0.162   7.488  1.9118 -1.0147 -1.2535
   14MOL   H48116107   6.256   0.203   7.653 -1.5979 -1.2717 -0.3629
   14MOL   O48216108   6.496   0.272   7.701 -0.0313 -0.2781 -0.0653
   14MOL   C48316109   6.619   0.348   7.709 -0.2118 -0.1613 -0.3713
   14MOL   C48416110   6.734   0.266   0.016 -0.4129  0.2952 -0.5012
   14MOL   C48516111   6.869   0.336   0.013  0.6401 -0.4458  0.1383
   14MOL   C48616112   6.982   0.266   0.090  0.2849  0.8065  0.3442
   14MOL   C48716113   7.120   0.276   0.024  0.3157  0.3932  0.2536
   14MOL   C48816114   7.223   0.187   0.103  0.7176  0.2352  0.2980
   14MOL   C48916115   7.370   0.186   0.050 -0.0196  0.3144  0.6129
   14MOL   C49016116   7.463   0.084   0.127 -1.0642 -0.5508  0.2738
   14MOL   C49116117   7.620   0.117   0.112  0.5399 -0.1472  0.4721
   14MOL   C49216118   7.662   0.252   0.185  0.0930  0.2079  0.6033
   14MOL   O49316119   7.646   0.238   0.330  0.3994 -0.3907  0.3538
   14MOL   C49416120   7.718   0.303   0.418  0.6759  0.5071 -0.0158
   14MOL   O49516121   0.024   0.399   0.389 -0.0395 -0.4252  0.3416
   14MOL   C49616122   7.712   0.242   0.561  0.0788  0.3915 -0.4054
   14MOL   C49716123   7.582   0.286   0.633 -0.2310  0.4732 -1.0280
   14MOL   C49816124   7.573   0.207   0.761  0.7921 -0.3236  0.7668
   14MOL   C49916125   7.440   0.241   0.827 -0.5076  0.3192 -0.0569
   14MOL   C50016126   7.440   0.365   0.915 -0.4728 -0.1676 -0.6241
   14MOL   C50116127   7.305   0.373   0.988 -0.4376 -0.0934  0.2014
   14MOL   C50216128   7.319   0.467   1.112  0.1345 -0.1420  0.3208
   14MOL   C50316129   7.178   0.481   1.174 -0.0822 -0.1369 -0.2681
   14MOL   C50416130   7.125   0.366   1.254 -0.7665  0.0185 -0.3594
   14MOL   O50516131   7.041   0.292   1.208 -0.4965  0.2541 -0.0665
   14MOL   H50616132   6.665   0.385   7.617 -0.2900  1.5440  0.2553
   14MOL   H50716133   6.607   0.444   0.003  0.4306  0.9182 -2.1921
   14MOL   H50816134   6.696   0.261   0.118  0.3221 -0.9531 -0.2717
   14MOL   H50916135   6.740   0.161   7.744 -0.7781 -0.1785  1.1028
   14MOL   H51016136   6.899   0.328   7.665 -1.4916 -3.3503 -0.3247
   14MOL   H51116137   6.843   0.439   0.036 -1.1443 -0.8764  0.1681
   14MOL   H51216138   6.991   0.310   0.189 -1.6166 -0.2342  1.0020
   14MOL   H51316139   6.967   0.158   0.100  2.1692  0.5745  0.9083
   14MOL   H51416140   7.146   0.381   0.015 -2.5344  1.1664  0.6482
   14MOL   H51516141   7.128   0.242   7.677 -2.3956 -0.4135  0.2667
   14MOL   H51616142   7.193   0.083   0.090 -0.4480  0.8595 -2.2430
   14MOL   H51716143   7.226   0.211   0.210  0.9386 -2.0141  0.8280
   14MOL   H51816144   7.405   0.290   0.050  0.0518  0.2906  0.5191
   14MOL   H51916145   7.359   0.172   7.699 -0.1585  1.5615  0.4563
   14MOL   H52016146   7.446   7.738   0.097 -1.0423  0.4760 -3.5709
   14MOL   H52116147   7.440   0.091   0.233 -1.6975 -1.5042  0.2042
   14MOL   H52216148   7.679   0.031   0.144 -0.0105 -1.0937 -1.0135
   14MOL   H52316149   7.636   0.132   0.006  2.6042 -0.2796  0.7532
   14MOL   H52416150   0.011   0.265   0.159  0.5328 -2.7691  0.7326
   14MOL   H52516151   7.598   0.331   0.145  0.7377  0.2595 -0.3488
   14MOL   H52616152   0.047   0.266   0.615 -0.3652 -0.9067  0.9398
   14MOL   H52716153   7.712   0.134   0.549  1.7523  0.4434 -0.9310
   14MOL   H52816154   7.499   0.270   0.564  0.0408 -0.1785 -1.2119
   14MOL   H52916155   7.581   0.393   0.650 -1.8186  0.5579 -1.6201
   14MOL   H53016156   7.667   0.226   0.813  2.1558 -1.2834 -1.2550
   14MOL   H53116157   7.570   0.108   0.716 -2.6751  0.0577  0.0421
   14MOL   H53216158   7.413   0.157   0.892 -0.9548  1.8987  1.8738
   14MOL   H53316159   7.372   0.249   0.743  2.6422  0.5174 -2.7087
   14MOL   H53416160   7.518   0.370   0.991 -1.0007  2.1379 -0.1815
   14MOL   H53516161   7.443   0.451   0.848 -1.6698 -0.5916 -1.2370
   14MOL   H53616162   7.223   0.399   0.921 -1.7152  0.2296  1.8459
   14MOL   H53716163   7.269   0.275   1.019  1.7971 -0.3156  2.2393
   14MOL   H53816164   7.354   0.562   1.071  0.4248 -0.3640  0.0553
   14MOL   H53916165   7.386   0.425   1.187 -0.0831  1.9259  1.7315
   14MOL   H54016166   7.191   0.553   1.255  2.1260 -1.1190  0.2978
   14MOL   H54116167   7.102   0.513   1.102 -0.7644 -0.5422  0.2689
   14MOL   O54216168   7.200   0.342   1.365 -0.0050  0.2182  0.4185
   14MOL   C54316169   7.155   0.233   1.444  0.2817  0.8060  0.5595
   14MOL   C54416170   7.055   0.266   1.556 -0.6372  0.4622  0.1984
   14MOL   C54516171   7.099   0.376   1.651 -1.1172 -0.0623  0.3156
   14MOL   C54616172   7.017   0.405   1.772 -0.3214  0.5519 -0.4919
   14MOL   C54716173   6.881   0.465   1.746  0.2490 -0.7639  0.0204
   14MOL   C54816174   6.790   0.475   1.871 -0.3186  0.5587  0.0175
   14MOL   C54916175   6.643   0.544   1.846 -0.6048 -0.5764 -0.4282
   14MOL   C55016176   6.528   0.476   1.910 -0.0012  0.2137  0.3784
   14MOL   C55116177   6.520   0.518   2.055  0.4426  0.0766 -0.2022
   14MOL   C55216178   6.402   0.443   2.121  0.3649 -0.5348  0.3151
   14MOL   O55316179   6.423   0.303   2.126 -0.7864  0.2016 -0.0460
   14MOL   C55416180   6.316   0.221   2.165  0.3249  0.2822  0.1593
   14MOL   O55516181   6.208   0.269   2.199 -0.1165 -0.8310 -0.3860
   14MOL   C55616182   6.351   0.076   2.151 -0.2668  0.6806  0.3345
   14MOL   C55716183   6.430   0.030   2.272 -0.4407  0.1699  0.0669
   14MOL   C55816184   6.437   7.635   2.277  0.5107  0.4150  0.0562
   14MOL   C55916185   6.537   7.585   2.381  0.1110  0.0283  0.0232
   14MOL   C56016186   6.567   7.430   2.365  0.4916  0.1076 -0.0104
   14MOL   C56116187   6.703   7.362   2.416 -0.2182  0.0408  0.5154
   14MOL   C56216188   6.743   7.420   2.553  0.3436  0.0318  0.0729
   14MOL   C56316189   6.840   7.336   2.632 -0.3603 -0.4793  0.3263
   14MOL   C56416190   6.782   7.220   2.700 -0.7368  0.2642 -0.0243
   14MOL   O56516191   6.697   7.153   2.649  0.5618  0.7009 -0.5335
   14MOL   H56616192   7.113   0.161   1.374 -2.8927  1.2922  1.8471
   14MOL   H56716193   7.233   0.173   1.489  1.0266  1.1242 -0.3005
   14MOL   H56816194   6.961   0.290   1.507 -1.0595 -0.3254  0.6162
   14MOL   H56916195   7.040   0.171   1.607  1.3196 -0.2771 -0.5377
   14MOL   H57016196   7.196   0.352   1.695 -0.1305  1.3899 -1.0057
   14MOL   H57116197   7.107   0.465   1.587  2.0271 -1.7983 -1.8701
   14MOL   H57216198   7.017   0.314   1.832  1.5418  1.8717  1.6047
   14MOL   H57316199   7.068   0.474   1.839 -3.0676  2.3221 -0.1117
   14MOL   H57416200   6.829   0.403   1.673 -0.0304 -0.2648 -0.2074
   14MOL   H57516201   6.871   0.562   1.698  2.0600  1.7789  4.4989
   14MOL   H57616202   6.855   0.518   1.947  1.2953 -0.6631 -0.6341
   14MOL   H57716203   6.769   0.375   1.908  0.6357  0.3307 -0.0341
   14MOL   H57816204   6.616   0.546   1.740 -2.4535  0.3842  0.0483
   14MOL   H57916205   6.663   0.648   1.871 -2.1692  0.0552 -1.7268
   14MOL   H58016206   6.538   0.367   1.909 -1.0255  0.1160 -0.4031
   14MOL   H58116207   6.428   0.504   1.877 -0.1896 -2.8343 -1.8539
   14MOL   H58216208   6.613   0.492   2.105  0.2703  1.6421  0.9866
   14MOL   H58316209   6.496   0.623   2.072  0.9189 -0.1169  1.8260
   14MOL   H58416210   6.384   0.485   2.220 -0.6665 -0.5447  0.1312
   14MOL   H58516211   6.311   0.468   2.067  0.0396  0.3645  1.2690
   14MOL   H58616212   6.408   0.059   2.060  0.2410 -0.5315  0.8569
   14MOL   H58716213   6.257   0.021   2.140 -0.1099  0.7828 -1.6135
   14MOL   H58816214   6.393   0.063   2.369 -2.2204 -0.1354 -0.4807
   14MOL   H58916215   6.531   0.071   2.272 -0.1321 -0.5824 -0.2563
   14MOL   H59016216   6.456   7.590   2.179 -1.2735 -1.1731  0.3855
   14MOL   H59116217   6.336   7.599   2.299 -0.1320  1.9584 -0.2778
   14MOL   H59216218   6.507   7.605   2.484  2.5524 -0.3428  0.8313
   14MOL   H59316219   6.629   7.641   2.366  0.9201 -1.0925  0.7439
   14MOL   H59416220   6.486   7.369   2.405  1.8534 -1.9742 -0.3245
   14MOL   H59516221   6.554   7.400   2.261 -0.0248 -0.0154  0.0893
   14MOL   H59616222   6.699   7.253   2.412 -2.1770  0.1534 -2.3568
   14MOL   H59716223   6.779   7.384   2.341 -2.5930 -1.1635 -2.3377
   14MOL   H59816224   6.659   7.436   2.621 -1.6793 -2.2540 -1.8309
   14MOL   H59916225   6.779   7.522   2.541 -2.0599  1.3746  3.3107
   14MOL   H60016226   6.925   7.309   2.568  0.3270  0.6002  0.7630
   14MOL   H60116227   6.882   7.402   2.708  1.5624  0.6909 -1.6574
   14MOL   O60216228   6.825   7.203   2.826  0.2389  0.7972  0.3719
   14MOL   C60316229   6.766   7.102   2.909  0.4356 -0.4862 -0.1132
   14MOL   C60416230   6.655   7.173   2.992 -0.8722 -0.0310 -0.2915
   14MOL   C60516231   6.717   7.255   3.111  0.6386 -0.1988  0.1551
   14MOL   C60616232   6.617   7.295   3.219  0.6792  0.3084  0.1169
   14MOL   C60716233   6.690   7.357   3.339 -0.1023  0.2100 -1.1588
   14MOL   C60816234   6.589   7.406   3.448  1.4018  0.1165 -0.4551
   14MOL   C60916235   6.504   7.532   3.400 -0.2498 -0.4470  0.7332
   14MOL   C61016236   6.576   7.656   3.361 -0.6976  0.4285  0.3855
   14MOL   C61116237   6.493   0.025   3.343 -0.1641 -0.2234  0.1446
   14MOL   C61216238   6.578   0.135   3.257  0.0162  0.1595 -0.2759
   14MOL   O61316239   6.673   0.201   3.340  0.0688 -0.1552  0.2783
   14MOL   C61416240   6.640   0.323   3.403  0.9212 -0.2576 -1.0996
   14MOL   O61516241   6.533   0.387   3.392 -0.1896 -0.0058  0.0957
   14MOL   C61616242   6.742   0.367   3.510 -0.0951  0.1808 -0.0763
   14MOL   C61716243   6.689   0.454   3.627 -0.2239 -0.1910 -0.4430
   14MOL   C61816244   6.594   0.379   3.724 -0.2648 -0.0797 -0.0252
   14MOL   C61916245   6.508   0.464   3.822  0.3169 -0.3164 -0.1006
   14MOL   C62016246   6.475   0.396   3.954 -0.3630  0.6707 -0.1494
   14MOL   C62116247   6.415   0.501   4.055 -0.0634  0.2229  0.3888
   14MOL   C62216248   6.386   0.437   4.189  0.2139  0.3661 -0.3377
   14MOL   C62316249   6.314   0.533   4.293 -0.6393  0.1296 -0.2340
   14MOL   C62416250   6.285   0.473   4.427  0.8237 -0.1431  0.1687
   14MOL   O62516251   6.186   0.514   4.487 -0.2227  0.2400  0.4786
   14MOL   H62616252   6.727   7.021   2.847 -1.0700 -0.7178  1.0936
   14MOL   H62716253   6.838   7.052   2.972 -0.5290 -1.4055  0.2779
   14MOL   H62816254   6.586   7.232   2.933 -1.0330  1.1365  1.0489
   14MOL   H62916255   6.589   7.093   3.026  0.5346 -1.2988 -0.4801
   14MOL   H63016256   6.792   7.190   3.156 -1.5602 -3.3317 -0.5118
   14MOL   H63116257   6.761   7.347   3.071 -0.1233  0.0182 -0.2057
   14MOL   H63216258   6.543   7.365   3.181 -1.1074 -0.4623  2.0518
   14MOL   H63316259   6.566   7.211   3.265  1.7807 -0.9445 -0.9150
   14MOL   H63416260   6.752   7.440   3.305  1.6744 -0.4866  0.3099
   14MOL   H63516261   6.759   7.290   3.389 -2.2452 -0.5896  0.8059
   14MOL   H63616262   6.655   7.437   3.529  2.0495 -0.5821 -0.7084
   14MOL   H63716263   6.531   7.324   3.488  3.4956 -0.4470  1.5503
   14MOL   H63816264   6.432   7.549   3.480 -0.6230 -0.6494  0.4441
   14MOL   H63916265   6.438   7.501   3.319 -1.1283  1.6795  0.6292
   14MOL   H64016266   6.643   7.633   3.278 -0.2865 -0.9794  1.0823
   14MOL   H64116267   6.642   7.678   3.445  1.4919 -1.5233 -0.7745
   14MOL   H64216268   6.391   0.011   3.309 -0.2266  0.7004 -0.0741
   14MOL   H64316269   6.485   0.064   3.445 -0.4675  0.7455 -0.2442
   14MOL   H64416270   6.635   0.090   3.176 -1.5120 -1.9056 -0.2225
   14MOL   H64516271   6.510   0.201   3.203 -0.7816 -1.0571 -0.7654
   14MOL   H64616272   6.806   0.432   3.451 -0.7302 -0.7713 -1.8659
   14MOL   H64716273   6.800   0.279   3.538  3.7887  3.5133  2.8821
   14MOL   H64816274   6.642   0.545   3.589 -1.3480 -0.1436  1.0231
   14MOL   H64916275   6.774   0.477   3.691 -0.2160 -2.8022  0.5488
   14MOL   H65016276   6.637   0.301   3.787 -1.2561 -0.0514  0.6965
   14MOL   H65116277   6.518   0.342   3.655 -1.0737  1.4594  0.0195
   14MOL   H65216278   6.419   0.486   3.764 -0.6565 -1.9436  0.7287
   14MOL   H65316279   6.558   0.555   3.855 -1.0746 -0.2395  1.8228
   14MOL   H65416280   6.421   0.302   3.942  2.6600 -1.2139  0.6605
   14MOL   H65516281   6.571   0.351   3.979  0.7641  2.8722 -0.3531
   14MOL   H65616282   6.480   0.586   4.074  1.2054 -0.2196 -1.8360
   14MOL   H65716283   6.320   0.531   4.010 -1.0021 -0.0356  2.1287
   14MOL   H65816284   6.484   0.407   4.227 -0.7647 -0.4336  1.6553
   14MOL   H65916285   6.323   0.348   4.182  0.8728 -0.3073  1.6452
   14MOL   H66016286   6.384   0.614   4.313 -0.5260 -0.2345  0.8915
   14MOL   H66116287   6.225   0.579   4.251 -0.4035  0.8350  0.0400
   14MOL   O66216288   6.377   0.394   4.478 -0.0633  0.0842  0.0276
   14MOL   C66316289   6.355   0.328   4.599 -0.3493  0.1609 -0.0759
   14MOL   C66416290   6.450   0.209   4.617  0.3186  0.6315 -0.0129
   14MOL   C66516291   6.449   0.131   4.749 -0.0802  0.1269 -0.1038
   14MOL   C66616292   6.555   0.021   4.748  0.6351 -0.2584  0.1467
   14MOL   C66716293   6.704   0.057   4.739  0.0608  0.2359 -0.3842
   14MOL   C66816294   6.793   7.680   4.713 -0.0969 -0.9391  0.3819
   14MOL   C66916295   6.941   7.725   4.692  0.4803  1.1020  0.5863
   14MOL   C67016296   7.037   7.607   4.679 -0.7527 -0.0779 -0.1748
   14MOL   C67116297   7.188   7.639   4.686 -0.1380  0.1096  0.3135
   14MOL   C67216298   7.233   7.717   4.559 -0.6523 -0.2203  0.3062
   14MOL   O67316299   7.183   7.644   4.450  0.1780  0.1788 -0.1153
   14MOL   C67416300   7.103   7.713   4.358  0.5701 -0.6225  0.7688
   14MOL   O67516301   7.093   0.078   4.353 -0.0682  0.3617 -0.1641
   14MOL   C67616302   7.029   7.628   4.258 -1.1441 -0.6873 -0.0566
   14MOL   C67716303   7.117   7.551   4.167 -0.4694 -0.1141  0.5628
   14MOL   C67816304   7.044   7.426   4.113 -0.2430  0.0911  0.1898
   14MOL   C67916305   7.128   7.348   4.011 -0.0156 -0.7799 -0.3515
   14MOL   C68016306   7.031   7.246   3.941  0.3602  0.1934 -0.2569
   14MOL   C68116307   7.109   7.144   3.847  0.2351 -0.1185  0.5841
   14MOL   C68216308   7.018   7.058   3.758 -0.0940  0.5604  0.2397
   14MOL   C68316309   7.082   6.958   3.661  0.0390 -0.0929 -0.6897
   14MOL   C68416310   7.142   6.830   3.721  0.0693  0.1014  0.3614
   14MOL   O68516311   7.230   6.773   3.665 -0.7689  0.3989  0.0678
   14MOL   H68616312   6.364   0.412   4.668  0.4881  2.8177 -3.2917
   14MOL   H68716313   6.251   0.294   4.602 -0.6666  1.1068 -0.3390
   14MOL   H68816314   6.427   0.134   4.540 -0.9437  0.1461  0.8232
   14MOL   H68916315   6.549   0.247   4.591  1.2612 -0.9338  1.1947
   14MOL   H69016316   6.456   0.201   4.832  0.3144  3.7974 -3.0941
   14MOL   H69116317   6.349   0.087   4.750 -1.2051  2.3253 -4.0931
   14MOL   H69216318   6.553   7.717   4.839 -0.9358  0.3754  0.5513
   14MOL   H69316319   6.523   7.698   4.681 -0.3274 -0.6309  1.0374
   14MOL   H69416320   6.727   0.123   4.822  2.4584  0.0097 -0.8117
   14MOL   H69516321   6.720   0.118   4.650 -0.8765 -1.5516 -1.8072
   14MOL   H69616322   6.762   7.623   4.625 -0.0787 -0.6969  0.2167
   14MOL   H69716323   6.770   7.614   4.796 -1.9730 -0.6365  0.1186
   14MOL   H69816324   6.974   0.044   4.763  1.8370  1.8762 -0.8282
   14MOL   H69916325   6.931   0.008   4.591 -0.2461 -0.3089  0.0859
   14MOL   H70016326   7.014   7.555   4.587  0.4354  0.5021 -0.7992
   14MOL   H70116327   7.019   7.533   4.757 -1.3176 -0.7095 -0.8993
   14MOL   H70216328   7.224   7.698   4.771  0.1599 -1.2092  1.1261
   14MOL   H70316329   7.236   7.541   4.682  0.9114  0.6744 -1.6594
   14MOL   H70416330   7.212   0.067   4.566  2.2441  0.3481  1.2530
   14MOL   H70516331   7.342   7.718   4.552 -0.5868  3.2215  0.9668
   14MOL   H70616332   6.958   7.677   4.193 -1.6512  0.4832  1.3427
   14MOL   H70716333   6.964   7.558   4.310 -3.0159 -0.2168 -1.7260
   14MOL   H70816334   7.199   7.510   4.225 -1.0519 -1.6935  0.2939
   14MOL   H70916335   7.150   7.617   4.086  0.9937  0.5664  1.6910
   14MOL   H71016336   6.954   7.460   4.063  0.0059  1.2688  0.5291
   14MOL   H71116337   7.020   7.363   4.199  1.2737 -0.9591 -0.1424
   14MOL   H71216338   7.206   7.290   4.059 -0.7378  0.4765  2.4090
   14MOL   H71316339   7.180   7.411   3.939  0.2765 -0.0738  0.4752
   14MOL   H71416340   6.977   7.187   4.015 -2.1236  1.2603 -1.1639
   14MOL   H71516341   6.953   7.294   3.882  0.0011  0.7686  0.6703
   14MOL   H71616342   7.177   7.194   3.778 -1.6967  1.3039 -0.3588
   14MOL   H71716343   7.176   7.074   3.897  2.5406  2.2127  0.8993
   14MOL   H71816344   6.933   7.110   3.713 -0.0476 -0.5286 -1.1323
   14MOL   H71916345   6.951   6.997   3.819  0.0214 -0.3342 -0.5180
   14MOL   H72016346   7.008   6.917   3.593 -0.3989 -0.3136 -0.0875
   14MOL   H72116347   7.148   7.016   3.597 -0.1563 -0.6429 -1.3922
   14MOL   O72216348   7.081   6.792   3.839 -0.6709  0.2894  0.1043
   14MOL   C72316349   7.138   6.678   3.909 -0.5453  0.3059  0.1826
   14MOL   C72416350   7.077   6.552   3.861 -0.2407 -0.6259  0.4022
   14MOL   C72516351   6.943   6.525   3.933  0.5800 -0.2602 -0.0303
   14MOL   C72616352   6.859   6.416   3.873  0.3452 -0.9168  0.1309
   14MOL   C72716353   6.712   6.417   3.899  0.3643  0.6709 -0.2066
   14MOL   C72816354   6.641   6.543   3.843  0.3494 -1.4185 -0.3815
   14MOL   C72916355   6.634   6.561   3.691  0.1138 -0.1010  0.1565
   14MOL   C73016356   6.568   6.452   3.611  0.3684 -0.1701 -0.4579
   14MOL   C73116357   6.565   6.471   3.458  0.5072 -0.1162  0.1340
   14MOL   C73216358   6.556   6.338   3.387 -0.5653 -0.6751  0.0225
   14MOL   O73316359   6.598   6.362   3.255  0.0976  0.0114 -0.4369
   14MOL   C73416360   6.662   6.272   3.185 -0.1115  0.2967  0.4693
   14MOL   O73516361   6.682   6.154   3.218  0.1198 -0.3381  0.1019
   14MOL   C73616362   6.702   6.326   3.053 -0.5359  0.1180 -0.1223
   14MOL   C73716363   6.768   6.225   2.959  0.0158 -0.2575  0.2098
   14MOL   C73816364   6.676   6.124   2.892  0.0070 -0.7951 -0.0614
   14MOL   C73916365   6.744   6.025   2.801 -0.6476 -0.2318 -0.1724
   14MOL   C74016366   6.809   6.097   2.681 -0.5534 -0.4020  0.2742
   14MOL   C74116367   6.848   6.007   2.565  0.4715  0.3647  0.0421
   14MOL   C74216368   6.735   5.946   2.479 -0.0204  0.3051  0.0874
   14MOL   C74316369   6.805   5.872   2.362  0.4206  0.0009  0.4926
   14MOL   C74416370   6.905   5.758   2.396 -0.1185  0.0343 -0.3708
   14MOL   O74516371   7.025   5.759   2.359 -0.1357 -0.4864  0.4778
   14MOL   H74616372   7.247   6.687   3.900 -0.5415  0.0880  0.0133
   14MOL   H74716373   7.114   6.699   4.014 -1.6790  1.0809 -0.2194
   14MOL   H74816374   7.054   6.559   3.755 -1.4238  1.1915  0.7630
   14MOL   H74916375   7.148   6.470   3.868 -0.7722 -1.3934 -2.4608
   14MOL   H75016376   6.949   6.508   4.040  0.1569  0.3568  0.0864
   14MOL   H75116377   6.901   6.625   3.926  3.8755  1.1284 -1.1359
   14MOL   H75216378   6.873   6.416   3.764 -0.7328 -0.4262 -0.0146
   14MOL   H75316379   6.897   6.323   3.915  2.1399  0.7371  2.2695
   14MOL   H75416380   6.690   6.399   4.004  0.5850  0.8700 -0.1247
   14MOL   H75516381   6.683   6.324   3.850  1.5193 -0.2056  0.7203
   14MOL   H75616382   6.681   6.634   3.887 -1.2197  0.8192 -3.4505
   14MOL   H75716383   6.541   6.545   3.887  0.3091 -0.0397 -0.5345
   14MOL   H75816384   6.737   6.560   3.654  0.4121  0.7875  0.9579
   14MOL   H75916385   6.596   6.658   3.660  1.0526  0.0278 -0.6511
   14MOL   H76016386   6.471   6.429   3.656  0.7411 -0.4149  0.2193
   14MOL   H76116387   6.621   6.362   3.640 -0.6148 -0.1490  1.4900
   14MOL   H76216388   6.481   6.535   3.430 -0.4694 -2.0242 -1.4288
   14MOL   H76316389   6.658   6.521   3.431  0.1944  0.1918 -0.3998
   14MOL   H76416390   6.628   6.271   3.433  0.5685 -1.2133 -2.4472
   14MOL   H76516391   6.459   6.288   3.390 -0.9333  0.0973  1.4546
   14MOL   H76616392   6.775   6.407   3.062 -0.9310  0.7151 -2.0748
   14MOL   H76716393   6.615   6.367   3.001 -0.8043 -0.4250 -0.0938
   14MOL   H76816394   6.848   6.170   3.009  0.8871 -1.1051 -2.0538
   14MOL   H76916395   6.817   6.283   2.881 -1.6552  3.3040  1.6629
   14MOL   H77016396   6.598   6.175   2.835  1.7284  0.3005 -1.4876
   14MOL   H77116397   6.617   6.077   2.970 -0.1127 -2.6994 -1.2884
   14MOL   H77216398   6.667   5.958   2.762 -0.9825 -0.0764  0.2236
   14MOL   H77316399   6.820   5.965   2.851 -0.0255  0.2254 -0.5569
   14MOL   H77416400   6.765   6.192   2.649 -1.8864 -1.1176 -0.0481
   14MOL   H77516401   6.907   6.125   2.719 -0.6839 -0.0587  0.3661
   14MOL   H77616402   6.918   6.061   2.501  0.0051  2.4756  1.2585
   14MOL   H77716403   6.903   5.926   2.612  0.3587 -0.8647 -1.8871
   14MOL   H77816404   6.683   6.018   2.416  2.1131  0.4659 -1.5723
   14MOL   H77916405   6.659   5.885   2.528  1.6626 -1.9547 -0.0009
   14MOL   H78016406   6.733   5.828   2.292  1.1018  0.7977 -0.7239
   14MOL   H78116407   6.849   5.948   2.297 -2.6382 -0.0090 -1.7027
   14MOL   O78216408   6.847   5.660   2.460  0.8233  0.2157 -0.4841
   14MOL   C78316409   6.924   5.551   2.507  0.8611 -0.3290  0.1849
   14MOL   C78416410   6.834   5.462   2.597  0.5860  0.2732 -0.2706
   14MOL   C78516411   6.716   5.393   2.526  0.9585  0.2006 -0.0580
   14MOL   C78616412   6.641   5.289   2.613  0.3083 -0.3533 -0.2751
   14MOL   C78716413   6.521   5.227   2.528 -0.0546 -0.0544  0.2013
   14MOL   C78816414   6.425   5.141   2.599  1.0134 -0.5429 -0.9198
   14MOL   C78916415   6.295   5.090   2.517  0.0348 -0.3408 -0.2971
   14MOL   C79016416   6.324   4.988   2.405  0.2111  0.4598 -0.0657
   14MOL   C79116417   6.192   4.926   2.347  0.7085  0.5724 -0.2198
   14MOL   C79216418   6.225   4.832   2.230  0.2300 -0.2631 -0.2104
   14MOL   O79316419   6.107   4.761   2.182 -0.2463 -0.1375 -0.3305
   14MOL   C79416420   6.107   4.712   2.048 -0.3196 -0.3913 -0.5218
   14MOL   O79516421   6.203   4.710   1.971  0.0334 -0.0896 -0.1144
   14MOL   C79616422   5.972   4.658   2.005  0.6244  0.4822  0.1399
   14MOL   C79716423   5.923   4.720   1.870 -1.1384 -0.0716  0.2847
   14MOL   C79816424   5.784   4.665   1.838 -0.5207  0.5407 -0.8429
   14MOL   C79916425   5.736   4.734   1.706  0.6466  0.1978  0.3411
   14MOL   C80016426   5.594   4.685   1.666  1.0828 -0.0874 -0.2964
   14MOL   C80116427   5.543   4.756   1.538  0.4312 -0.0750  0.4542
   14MOL   C80216428   5.402   4.700   1.497 -0.1739 -0.0634  0.2613
   14MOL   C80316429   5.361   4.761   1.367 -0.5053 -0.9429  0.2376
   14MOL   C80416430   5.219   4.717   1.332  0.0736 -0.8030  0.2200
   14MOL   O80516431   5.120   4.788   1.371 -0.0993 -0.0068  0.0768
   14MOL   H80616432   6.966   5.506   2.417  1.4085  1.5894 -0.5560
   14MOL   H80716433   7.009   5.581   2.568 -1.1011  1.2527  2.2476
   14MOL   H80816434   6.898   5.387   2.644  0.1983 -1.4610 -2.4344
   14MOL   H80916435   6.797   5.527   2.676 -0.9849 -0.6724 -0.1892
   14MOL   H81016436   6.655   5.473   2.484 -3.0673 -2.6147  0.0717
   14MOL   H81116437   6.756   5.341   2.439  0.2490 -1.1567  0.4065
   14MOL   H81216438   6.708   5.214   2.655  1.5666  0.1074 -1.4575
   14MOL   H81316439   6.596   5.334   2.701 -1.0548  0.1878 -1.2323
   14MOL   H81416440   6.572   5.168   2.451 -0.0889  0.4908 -0.2438
   14MOL   H81516441   6.464   5.301   2.471 -0.1665  1.3129  2.0523
   14MOL   H81616442   6.387   5.182   2.693  0.3093  0.3948 -1.6119
   14MOL   H81716443   6.470   5.044   2.621  0.6589 -0.6586 -0.6920
   14MOL   H81816444   6.228   5.168   2.482  0.7602  0.7059  0.5795
   14MOL   H81916445   6.232   5.032   2.583 -0.9881 -0.0695 -1.0131
   14MOL   H82016446   6.380   4.904   2.444 -1.3790 -1.7972 -2.4783
   14MOL   H82116447   6.382   5.027   2.321  2.9627 -0.3543  1.4034
   14MOL   H82216448   6.143   4.868   2.425  0.7697 -0.6494 -1.0759
   14MOL   H82316449   6.113   4.995   2.315 -0.6983 -1.1657 -0.5675
   14MOL   H82416450   6.263   4.890   2.146 -0.3972  0.7313  0.1855
   14MOL   H82516451   6.309   4.765   2.252 -0.6361 -1.6166 -0.9336
   14MOL   H82616452   5.897   4.692   2.076  1.9483  1.6895  0.9854
   14MOL   H82716453   5.974   4.549   2.002  1.8937  0.4865  0.3622
   14MOL   H82816454   6.000   4.693   1.799 -0.7885  2.2082 -0.2426
   14MOL   H82916455   5.932   4.828   1.878  1.2901 -0.4090  2.7529
   14MOL   H83016456   5.723   4.696   1.922  0.1189  2.3327 -1.0118
   14MOL   H83116457   5.757   4.560   1.825 -1.8999  0.9294 -1.1601
   14MOL   H83216458   5.807   4.706   1.628  0.1305  3.3296 -1.3561
   14MOL   H83316459   5.719   4.841   1.721 -2.2134 -0.5440  2.8557
   14MOL   H83416460   5.574   4.578   1.666 -1.1947  0.3027  1.6422
   14MOL   H83516461   5.530   4.709   1.751 -0.5470 -2.7040 -0.7453
   14MOL   H83616462   5.554   4.864   1.551 -2.3797  0.3538 -0.3709
   14MOL   H83716463   5.612   4.729   1.458 -1.6592 -0.2445 -1.3453
   14MOL   H83816464   5.337   4.711   1.584 -0.2700  0.6377  0.1033
   14MOL   H83916465   5.424   4.595   1.478  0.2259 -0.3717  2.2464
   14MOL   H84016466   5.383   4.868   1.371 -0.1713 -0.9926 -0.2814
   14MOL   H84116467   5.424   4.716   1.290 -1.8789  0.2612 -1.6427
   14MOL   O84216468   5.219   4.607   1.264  0.1892 -0.3455 -0.0986
   14MOL   C84316469   5.096   4.546   1.223 -0.1822 -0.0793  1.1936
   14MOL   C84416470   5.112   4.505   1.075 -0.1566  0.0751  0.1833
   14MOL   C84516471   5.220   4.387   1.054  0.0413  0.1217 -0.1384
   14MOL   C84616472   5.194   4.239   1.108  0.9390  0.0513  0.4032
   14MOL   C84716473   5.322   4.152   1.098  0.7149 -0.2627  0.1512
   14MOL   C84816474   5.345   4.081   0.968  0.4728 -0.1222 -0.4504
   14MOL   C84916475   5.467   3.990   0.960 -1.1656 -0.2465 -0.6685
   14MOL   C85016476   5.493   3.900   0.834  0.8448  0.0745 -0.5978
   14MOL   C85116477   5.560   3.962   0.715  0.6111  0.5048  0.0318
   14MOL   C85216478   5.511   3.901   0.579 -0.0411  0.2863 -0.9638
   14MOL   O85316479   5.390   3.971   0.545  0.0837  0.3977  0.0893
   14MOL   C85416480   5.307   3.918   0.453  0.3429  1.4098 -0.3900
   14MOL   O85516481   5.333   3.825   0.376 -0.2603 -0.1739  0.0790
   14MOL   C85616482   5.169   3.991   0.445  0.2136  0.2892 -0.7753
   14MOL   C85716483   5.059   3.930   0.533  0.0473  0.0367 -0.0011
   14MOL   C85816484   5.080   3.974   0.685 -0.1794  0.4158  0.8685
   14MOL   C85916485   5.064   4.124   0.709 -0.6111 -0.2500  0.3121
   14MOL   C86016486   4.919   4.170   0.688 -0.1325  0.2381 -0.5501
   14MOL   C86116487   4.911   4.325   0.714 -0.2772 -0.1762 -0.5380
   14MOL   C86216488   4.771   4.389   0.705  0.5069  0.6114  0.5467
   14MOL   C86316489   4.756   4.511   0.802 -0.0021  0.4919 -0.3743
   14MOL   C86416490   4.787   4.650   0.738  0.3154 -0.2355  0.3893
   14MOL   O86516491   4.898   4.708   0.752  0.1790 -0.1036  0.2907
   14MOL   H86616492   5.054   4.470   1.289  0.7641 -0.1297  1.7437
   14MOL   H86716493   5.025   4.628   1.233  2.4622  2.1768  1.8753
   14MOL   H86816494   5.014   4.468   1.044  0.2413 -0.1167 -0.8569
   14MOL   H86916495   5.137   4.594   1.017 -1.7232 -0.4205 -1.2871
   14MOL   H87016496   5.228   4.366   0.947 -0.4238 -0.8654  0.0187
   14MOL   H87116497   5.321   4.421   1.074 -0.3526  0.8577  0.6389
   14MOL   H87216498   5.148   4.251   1.206 -2.2969 -0.1515 -1.0315
   14MOL   H87316499   5.114   4.197   1.047 -0.4807  1.8240  0.9726
   14MOL   H87416500   5.312   4.076   1.176  1.7614  0.1300  0.6837
   14MOL   H87516501   5.407   4.208   1.136  0.4271 -2.3226  4.1064
   14MOL   H87616502   5.354   4.162   0.895 -2.6247 -0.5033 -1.3029
   14MOL   H87716503   5.251   4.032   0.943  0.4729 -0.4181  0.1250
   14MOL   H87816504   5.463   3.918   1.041  2.7581 -0.1880 -0.3185
   14MOL   H87916505   5.552   4.055   0.981 -2.3401  2.0332 -2.6798
   14MOL   H88016506   5.392   3.867   0.812  0.9410  0.7028 -2.0627
   14MOL   H88116507   5.549   3.808   0.845 -2.0848 -1.4461  2.5464
   14MOL   H88216508   5.536   4.068   0.704 -1.0782  0.1539  0.3244
   14MOL   H88316509   5.667   3.946   0.729  0.3943 -1.5765 -0.5146
   14MOL   H88416510   5.578   3.929   0.498 -1.0304  1.2828 -1.4606
   14MOL   H88516511   5.506   3.792   0.582 -1.5342  0.3867  1.1900
   14MOL   H88616512   5.148   3.988   0.338 -0.1394  1.5900 -0.7533
   14MOL   H88716513   5.171   4.097   0.469 -0.9434 -0.2318  1.8404
   14MOL   H88816514   5.064   3.821   0.526 -0.0367  0.0658 -0.5361
   14MOL   H88916515   4.959   3.961   0.501 -0.8320  0.6722  3.1332
   14MOL   H89016516   5.177   3.933   0.715 -0.4560  0.2333  1.5033
   14MOL   H89116517   5.013   3.926   0.755 -0.4883  1.7493  1.5061
   14MOL   H89216518   5.143   4.183   0.663 -0.0952  0.5308  2.1605
   14MOL   H89316519   5.090   4.140   0.813 -1.0073  1.3598  0.1680
   14MOL   H89416520   4.869   4.138   0.597 -0.0947 -1.7849  0.0980
   14MOL   H89516521   4.867   4.121   0.771 -0.4102  2.0729  0.3864
   14MOL   H89616522   4.952   4.345   0.813  1.3023 -1.6963 -0.8681
   14MOL   H89716523   4.973   4.382   0.644 -0.1157  1.1417  0.6583
   14MOL   H89816524   4.702   4.313   0.743  0.3804  1.5682  2.3081
   14MOL   H89916525   4.740   4.424   0.607 -1.5016 -1.2074  0.4940
   14MOL   H90016526   4.649   4.520   0.818 -0.0590 -0.2496 -0.3314
   14MOL   H90116527   4.822   4.486   0.886 -0.9901  0.1813  0.3124
   14MOL   O90216528   4.683   4.696   0.653 -0.0790  0.7578  0.0048
   14MOL   C90316529   4.708   4.816   0.567  0.2586  0.0572  0.7679
   14MOL   C90416530   4.651   4.941   0.631  0.1738 -0.0081 -0.2665
   14MOL   C90516531   4.655   5.075   0.552 -0.6949  0.1596  0.5696
   14MOL   C90616532   4.700   5.192   0.647 -0.0626 -0.1915 -0.0929
   14MOL   C90716533   4.736   5.322   0.574  0.4535  0.2199  0.7293
   14MOL   C90816534   4.873   5.325   0.501  0.3822 -0.0768 -0.8890
   14MOL   C90916535   4.997   5.276   0.589  0.2513 -0.2013 -0.1951
   14MOL   C91016536   5.122   5.337   0.537  0.5277 -0.2487  0.7023
   14MOL   C91116537   5.253   5.268   0.593  0.5378 -0.2486  0.2054
   14MOL   C91216538   5.283   5.287   0.738  0.6378 -0.0487 -0.0349
   14MOL   O91316539   5.321   5.427   0.753  0.3780 -0.4620  0.7448
   14MOL   C91416540   5.411   5.465   0.841  1.0073  0.5042 -0.1548
   14MOL   O91516541   5.479   5.391   0.908  0.6263 -0.1399 -0.4476
   14MOL   C91616542   5.400   5.621   0.869 -0.3677  0.2341  0.0036
   14MOL   C91716543   5.494   5.691   0.969  0.3591 -0.3427  0.4505
   14MOL   C91816544   5.650   5.692   0.925  0.2209 -0.0890 -0.1124
   14MOL   C91916545   5.748   5.730   1.041  0.9487 -0.1299  0.0409
   14MOL   C92016546   5.901   5.707   1.020  0.3972  0.2418  0.6592
   14MOL   C92116547   5.979   5.821   1.089  0.2181 -0.4251  0.0690
   14MOL   C92216548   5.976   5.816   1.243  0.5486 -0.3711 -0.3577
   14MOL   C92316549   6.078   5.916   1.306 -0.5343 -0.6326  0.1988
   14MOL   C92416550   6.220   5.862   1.322  0.4757 -0.3122 -0.4546
   14MOL   O92516551   6.264   5.839   1.438  0.9720  0.1255  0.0583
   14MOL   H92616552   4.813   4.822   0.541  0.0749 -1.0200 -0.2700
   14MOL   H92716553   4.663   4.808   0.468  0.6275  0.1335  0.5944
   14MOL   H92816554   4.551   4.919   0.667 -0.4494  0.1473 -1.8661
   14MOL   H92916555   4.707   4.952   0.724  0.2205  0.3424 -0.3350
   14MOL   H93016556   4.734   5.060   0.479  0.2567  1.6707  1.2494
   14MOL   H93116557   4.562   5.097   0.499 -0.3092 -1.0018 -0.6003
   14MOL   H93216558   4.612   5.227   0.701 -0.3476 -1.9906  0.6559
   14MOL   H93316559   4.781   5.162   0.713  0.4809  0.3133 -0.5274
   14MOL   H93416560   4.736   5.408   0.641 -0.2076  2.0882 -1.5997
   14MOL   H93516561   4.653   5.336   0.504 -0.7362  1.8502  2.4077
   14MOL   H93616562   4.877   5.429   0.466 -0.8379  0.4239  0.3907
   14MOL   H93716563   4.866   5.258   0.416  1.7304 -0.2589 -0.8560
   14MOL   H93816564   5.006   5.168   0.589  2.4862 -0.0461  1.3688
   14MOL   H93916565   4.986   5.313   0.691 -1.2826  1.1148 -0.8191
   14MOL   H94016566   5.120   5.444   0.557 -0.9342 -0.0741 -0.3773
   14MOL   H94116567   5.133   5.320   0.430  0.8074  1.9013  0.3704
   14MOL   H94216568   5.250   5.159   0.584 -0.2380 -0.3409  1.4516
   14MOL   H94316569   5.335   5.292   0.526  1.1377  0.0331  1.0380
   14MOL   H94416570   5.187   5.266   0.784  1.5353 -1.8759  1.0521
   14MOL   H94516571   5.362   5.228   0.785 -0.0488 -1.4142 -0.5831
   14MOL   H94616572   5.298   5.641   0.902  0.2245  0.7407  1.5755
   14MOL   H94716573   5.404   5.688   0.783 -1.5742  0.6943  0.2937
   14MOL   H94816574   5.489   5.640   1.065  1.0108 -1.4098 -0.0732
   14MOL   H94916575   5.465   5.794   0.990  2.0181 -0.2013  2.2384
   14MOL   H95016576   5.654   5.779   0.859  0.4199 -0.4504 -0.5782
   14MOL   H95116577   5.677   5.597   0.879 -1.3159 -1.0051  0.8255
   14MOL   H95216578   5.723   5.666   1.126 -1.2197 -1.8653 -1.8564
   14MOL   H95316579   5.733   5.829   1.083 -3.0434 -0.2600 -0.9579
   14MOL   H95416580   5.931   5.607   1.050 -1.0351  0.2845  2.3762
   14MOL   H95516581   5.920   5.722   0.914  2.0101 -0.9450  0.7705
   14MOL   H95616582   6.080   5.813   1.049  0.0544 -1.1924 -0.2008
   14MOL   H95716583   5.945   5.914   1.044  0.3483 -1.7730 -2.9584
   14MOL   H95816584   5.992   5.710   1.266 -0.9843 -0.7697 -1.0331
   14MOL   H95916585   5.873   5.833   1.275  0.4128 -1.8883  0.0793
   14MOL   H96016586   6.086   6.002   1.240  2.0620 -0.3815  0.8011
   14MOL   H96116587   6.047   5.955   1.402 -1.4486 -0.9756  0.0477
   14MOL   O96216588   6.274   5.829   1.200 -0.7656 -0.1890 -0.2848
   14MOL   C96316589   6.397   5.768   1.196  0.7406 -0.6805 -0.3282
   14MOL   C96416590   6.512   5.868   1.212 -0.3224  0.6991 -0.4961
   14MOL   C96516591   6.652   5.818   1.187  0.5052 -0.0889  0.6815
   14MOL   C96616592   6.765   5.904   1.230  0.4892  0.0877  0.2376
   14MOL   C96716593   6.896   5.872   1.158 -0.8819  0.2514  0.3823
   14MOL   C96816594   7.016   5.953   1.193  0.1817 -0.5562  0.0333
   14MOL   C96916595   7.065   5.936   1.337  1.3935 -0.1934 -0.1755
   14MOL   C97016596   7.189   6.020   1.361 -0.1815 -0.0218  0.2537
   14MOL   C97116597   7.227   6.001   1.511  0.2928 -0.7403 -0.7818
   14MOL   C97216598   7.326   6.107   1.556 -0.1520 -0.4764 -0.6960
   14MOL   O97316599   7.316   6.104   1.694 -0.2344  0.7974  0.2261
   14MOL   C97416600   7.428   6.081   1.769 -0.4690 -0.4659  0.1835
   14MOL   O97516601   7.538   6.051   1.723 -0.1459 -0.2622 -0.3749
   14MOL   C97616602   7.403   6.117   1.914  0.5168 -0.4253  0.3548
   14MOL   C97716603   7.431   6.266   1.947  0.2360  0.0818 -0.6105
   14MOL   C97816604   7.588   6.288   1.953 -0.3985  0.3760  0.4855
   14MOL   C97916605   7.642   6.431   1.985  0.2645  0.2172  0.7886
   14MOL   C98016606   7.568   6.540   1.904  0.6773  0.6783  0.3925
   14MOL   C98116607   7.638   6.680   1.910  0.0163 -0.0030  0.4850
   14MOL   C98216608   7.592   6.767   1.796  0.0327  0.1211  0.3908
   14MOL   C98316609   7.631   6.912   1.821 -0.3100 -0.0789 -0.1340
   14MOL   C98416610   7.539   7.013   1.745 -0.0307 -0.0326  0.1859
   14MOL   O98516611   7.478   7.102   1.812 -0.1617  0.3098 -0.2281
   14MOL   H98616612   6.390   5.702   1.282 -4.6287 -0.6574 -0.6027
   14MOL   H98716613   6.400   5.692   1.118 -2.4651 -1.7412  0.5196
   14MOL   H98816614   6.502   5.959   1.152 -0.3180 -0.0673 -1.6624
   14MOL   H98916615   6.513   5.912   1.312  0.0126 -0.9709  0.2447
   14MOL   H99016616   6.662   5.727   1.246 -0.5816 -0.0198  0.9980
   14MOL   H99116617   6.660   5.791   1.082  1.8186 -1.0347  1.0208
   14MOL   H99216618   6.739   6.010   1.222  0.9931  0.2372  0.5269
   14MOL   H99316619   6.787   5.884   1.335  0.7180 -0.4687  0.0825
   14MOL   H99416620   6.870   5.886   1.053 -3.4900 -2.4521  0.5735
   14MOL   H99516621   6.921   5.768   1.180 -0.4813 -0.0540 -1.3871
   14MOL   H99616622   7.004   6.056   1.162 -2.0698 -0.7858  0.0047
   14MOL   H99716623   7.091   5.903   1.132  1.6964  0.2226  1.2478
   14MOL   H99816624   7.067   5.830   1.359 -2.1260 -0.7492 -2.1512
   14MOL   H99916625   6.992   5.980   1.405  0.0049  0.4927 -2.0656
   14MOL     H116626   7.176   6.126   1.339 -0.0297 -0.3929 -1.6750
   14MOL     H216627   7.272   5.984   1.300 -0.9393 -1.9167  0.2894
   14MOL     H316628   7.144   6.011   1.581  1.2659 -0.1221  0.2924
   14MOL     H416629   7.253   5.897   1.531 -1.5641 -1.2663 -1.0183
   14MOL     H516630   7.430   6.102   1.523  0.3888  1.8434  0.4659
   14MOL     H616631   7.299   6.212   1.542 -1.7485 -0.8620 -0.5749
   14MOL     H716632   7.475   6.054   1.967  0.2586 -1.1065 -0.1047
   14MOL     H816633   7.303   6.080   1.936  0.7348 -1.3066 -0.1029
   14MOL     H916634   7.384   6.280   2.045  0.6989  0.6866 -0.4703
   14MOL    H1016635   7.384   6.335   1.877  0.7852 -0.9543 -2.0224
   14MOL    H1116636   7.632   6.264   1.856 -2.3627 -1.4836  0.0276
   14MOL    H1216637   7.620   6.210   2.023 -1.7044 -2.4362 -1.9622
   14MOL    H1316638   7.749   6.422   1.969 -0.0183  1.6722 -2.3076
   14MOL    H1416639   7.617   6.444   2.090  1.3370 -0.2569  1.1108
   14MOL    H1516640   7.566   6.501   1.802 -2.1794  0.0490  0.6580
   14MOL    H1616641   7.464   6.539   1.935  1.0354 -2.4160  1.7492
   14MOL    H1716642   7.619   6.724   2.008 -0.7794  0.7259  0.0153
   14MOL    H1816643   7.746   6.669   1.903 -0.0411 -1.2081  1.2727
   14MOL    H1916644   7.485   6.766   1.774 -0.0243  0.7318  0.6191
   14MOL    H2016645   7.647   6.746   1.705  1.0197  0.8895  0.8019
   14MOL    H2116646   7.605   6.936   1.924  0.5406  1.6410 -0.3030
   14MOL    H2216647   7.732   6.927   1.781 -1.2060 -0.2244 -2.5130
   14MOL    O2316648   7.549   7.001   1.616  0.8581 -0.4710 -0.0094
   14MOL    C2416649   7.508   7.112   1.539 -0.2176  0.3337 -0.3021
   14MOL    C2516650   7.622   7.202   1.490 -0.0172  0.7272  0.4931
   14MOL    C2616651   7.580   7.345   1.454 -0.7735 -0.2144 -0.4766
   14MOL    C2716652   7.712   7.430   1.433  0.3145  0.0203  0.0832
   14MOL    C2816653   7.703   7.573   1.481  0.3292  0.9573  0.5764
   14MOL    C2916654   0.074   7.665   1.463 -0.2826 -0.3399 -0.8274
   14MOL    C3016655   0.053   0.049   1.530  0.1988 -0.5439  0.1329
   14MOL    C3116656   0.186   0.140   1.524  0.7329  0.4457  0.3449
   14MOL    C3216657   0.295   0.081   1.615  0.1532  0.2920 -0.2053
   14MOL    C3316658   0.424   0.168   1.613  0.3064  0.3972 -0.1224
   14MOL    O3416659   0.485   0.154   1.487 -1.3490 -0.4499  0.3645
   14MOL    C3516660   0.595   0.224   1.453  0.4859  0.0683  0.5084
   14MOL    O3616661   0.661   0.301   1.529  0.6750 -0.0029  0.4469
   14MOL    C3716662   0.640   0.195   1.308 -0.1558 -0.2254  1.0285
   14MOL    C3816663   0.774   0.255   1.269  0.4076  0.1440 -0.4370
   14MOL    C3916664   0.882   0.149   1.276 -0.2276 -0.3773  0.3910
   14MOL    C4016665   0.890   0.048   1.149  0.5971 -0.3065 -0.1701
   14MOL    C4116666   1.005   7.701   1.165 -0.0812  0.0056 -0.4691
   14MOL    C4216667   1.018   7.598   1.050  0.5938 -0.4011  0.1965
   14MOL    C4316668   0.909   7.491   1.044  0.3900  0.5758  0.3362
   14MOL    C4416669   0.912   7.417   0.911  0.7556 -0.2562 -0.4281
   14MOL    C4516670   0.839   7.288   0.932 -0.1874  0.3311 -0.3358
   14MOL    O4616671   0.906   7.190   0.975 -0.2148  0.1105  0.4335
   14MOL    H4716672   7.451   7.068   1.457  1.2706 -0.2951 -1.0166
   14MOL    H4816673   7.438   7.175   1.594  0.1375  0.8505 -0.4406
   14MOL    H4916674   7.704   7.204   1.563  0.0063 -0.2131  0.4995
   14MOL    H5016675   7.682   7.144   1.420 -0.6967 -0.5249  0.9300
   14MOL    H5116676   7.519   7.350   1.364  0.1380 -1.0112 -1.1643
   14MOL    H5216677   7.529   7.396   1.536 -0.9831  0.7161 -1.1798
   14MOL    H5316678   0.024   7.395   1.511 -0.8784  0.1088  1.1928
   14MOL    H5416679   7.748   7.421   1.330 -0.1906 -0.2529 -0.0688
   14MOL    H5516680   7.666   7.577   1.583  1.3766 -0.3638  1.0157
   14MOL    H5616681   7.624   7.615   1.419  1.5668 -0.0484 -1.7597
   14MOL    H5716682   0.097   7.680   1.357  2.4895  0.7240 -0.1301
   14MOL    H5816683   0.151   7.617   1.523 -1.9562  2.3086  3.6846
   14MOL    H5916684   0.015   0.043   1.632 -2.8992  2.6870 -0.7032
   14MOL    H6016685   7.729   0.102   1.478 -0.8380 -1.2547  0.9835
   14MOL    H6116686   0.167   0.246   1.540 -3.9821  0.0375 -1.5236
   14MOL    H6216687   0.221   0.134   1.421  0.0644  0.7168  0.0989
   14MOL    H6316688   0.245   0.075   1.712  0.1198  0.4433 -0.2136
   14MOL    H6416689   0.321   7.740   1.574  2.1253  0.9406 -0.5522
   14MOL    H6516690   0.403   0.271   1.640 -0.7645  0.4887 -1.2500
   14MOL    H6616691   0.501   0.122   1.675  1.1730 -3.1454 -3.6065
   14MOL    H6716692   0.565   0.249   1.250 -0.0406 -0.9851  0.1497
   14MOL    H6816693   0.637   0.087   1.300 -2.4511 -0.0687 -0.7436
   14MOL    H6916694   0.795   0.335   1.339 -1.0454  0.3775 -0.2526
   14MOL    H7016695   0.784   0.295   1.168  0.9256  0.2882 -0.3271
   14MOL    H7116696   0.890   0.098   1.372 -0.4939  1.5040  1.4254
   14MOL    H7216697   0.980   0.198   1.269 -0.3451 -0.3232 -1.2013
   14MOL    H7316698   0.906   0.097   1.053  0.7658 -1.3281 -0.6691
   14MOL    H7416699   0.798   7.749   1.131 -0.9477  1.5971  1.6513
   14MOL    H7516700   1.104   7.748   1.165  0.2260 -0.5314 -3.2101
   14MOL    H7616701   1.004   7.646   1.259 -0.9438 -1.0509 -1.0915
   14MOL    H7716702   1.002   7.640   0.951  0.5129  0.8431  0.7179
   14MOL    H7816703   1.117   7.553   1.049  0.7015 -0.1733  0.4177
   14MOL    H7916704   0.809   7.534   1.052 -0.8657 -1.5697 -2.5028
   14MOL    H8016705   0.917   7.432   1.135 -1.2158 -1.5199 -0.8008
   14MOL    H8116706   0.869   7.471   0.826 -1.6278 -1.0783  0.2194
   14MOL    H8216707   1.016   7.393   0.890  0.1191 -1.2100 -2.5684
   14MOL    O8316708   0.710   7.294   0.915 -0.5463 -0.3981  0.1870
   14MOL    C8416709   0.634   7.170   0.936  0.4291 -0.2321 -0.0985
   14MOL    C8516710   0.602   7.105   0.796  0.1981 -0.3396  0.0804
   14MOL    C8616711   0.493   7.000   0.804  0.3630  0.7317 -0.3624
   14MOL    C8716712   0.456   6.938   0.667  0.0074 -0.6954 -0.7346
   14MOL    C8816713   0.346   6.836   0.657 -0.1193  0.2318  0.1955
   14MOL    C8916714   0.324   6.796   0.512  0.2705  0.1375 -1.1284
   14MOL    C9016715   0.194   6.714   0.504 -0.0162  0.2460  0.4898
   14MOL    C9116716   0.170   6.635   0.375 -0.4293  0.3947  0.6063
   14MOL    C9216717   0.068   6.525   0.368  0.7620  0.2531  0.6598
   14MOL    C9316718   0.044   6.482   0.218 -0.0710 -0.3478  0.8571
   14MOL    O9416719   7.676   6.422   0.188 -0.3228 -0.5829  0.1848
   14MOL    C9516720   7.664   6.382   0.063  0.6040 -0.0169 -0.4566
   14MOL    O9616721   7.751   6.382   7.737  0.2654  0.7287  0.2557
   14MOL    C9716722   7.519   6.327   0.042  0.0149 -0.7753 -0.0223
   14MOL    C9816723   7.503   6.188   7.732 -0.2298  0.5844  0.1203
   14MOL    C9916724   7.507   6.069   0.067 -0.2050 -0.4853  0.1209
   14MOL   C10016725   7.502   5.940   7.746 -0.4069 -0.5155  0.2325
   14MOL   C10116726   7.637   5.911   7.684 -0.2595 -0.4706 -0.0856
   14MOL   C10216727   7.655   5.770   7.618  0.0902  0.0510 -0.6605
   14MOL   C10316728   0.022   5.758   7.535  0.3361 -0.5800  0.3644
   14MOL   C10416729   0.038   5.620   7.462 -0.5424  0.6684  0.7442
   14MOL   C10516730   0.166   5.610   7.373  0.2465 -0.1478 -0.2269
   14MOL   O10616731   0.257   5.694   7.359  0.4494 -0.4893  0.3677
   14MOL   H10716732   0.680   7.099   1.005  0.0850  2.1246  2.6359
   14MOL   H10816733   0.544   7.203   0.988  0.2890  0.1580 -0.5790
   14MOL   H10916734   0.576   7.189   0.732  0.8283 -0.3695 -0.2252
   14MOL   H11016735   0.689   7.072   0.739 -0.9495  0.2910 -2.1051
   14MOL   H11116736   0.532   6.915   0.859 -0.4420 -0.3132 -1.3687
   14MOL   H11216737   0.408   7.045   0.856  0.0811 -0.1424 -0.0545
   14MOL   H11316738   0.434   7.022   0.601  0.7288 -0.3454 -0.5356
   14MOL   H11416739   0.550   6.894   0.634  0.7431 -1.0479  1.7608
   14MOL   H11516740   0.255   6.878   0.700 -2.1172 -2.7353 -0.9157
   14MOL   H11616741   0.374   6.748   0.715 -0.1730 -0.2098 -0.4427
   14MOL   H11716742   0.402   6.732   0.471 -1.5628 -2.6783 -0.3967
   14MOL   H11816743   0.317   6.886   0.451  0.0940  0.4102 -0.7114
   14MOL   H11916744   0.113   6.785   0.518  0.2703  0.4698  1.0416
   14MOL   H12016745   0.195   6.639   0.584  1.8501  0.0125  0.2810
   14MOL   H12116746   0.265   6.584   0.360 -1.9079 -1.8480 -1.4870
   14MOL   H12216747   0.151   6.709   0.298 -0.9403 -1.3230 -0.9528
   14MOL   H12316748   0.099   6.435   0.422 -0.0496 -0.4391 -0.0094
   14MOL   H12416749   7.731   6.553   0.416 -0.0627  0.2352 -0.9192
   14MOL   H12516750   0.064   6.576   0.167  1.2300 -0.6051  0.8713
   14MOL   H12616751   0.125   6.417   0.184  0.0130 -0.3666  1.0910
   14MOL   H12716752   7.465   6.399   7.738  0.2055  1.5695  2.5052
   14MOL   H12816753   7.456   6.324   0.131 -1.1164 -0.1138 -0.7950
   14MOL   H12916754   7.581   6.182   7.656 -2.0528 -3.0507 -1.6055
   14MOL   H13016755   7.411   6.176   7.674 -1.2618 -0.1829  1.8723
   14MOL   H13116756   7.415   6.079   0.124 -1.9393  0.2906 -2.7347
   14MOL   H13216757   7.594   6.062   0.133  0.4730  1.4347 -0.5596
   14MOL   H13316758   7.433   5.942   7.662  0.0227  3.1307 -0.1353
   14MOL   H13416759   7.467   5.855   0.049 -2.1802  0.8726  1.2472
   14MOL   H13516760   7.669   5.981   7.608 -1.4108 -0.6139 -0.7159
   14MOL   H13616761   7.719   5.926   7.754  1.1994  0.9854 -2.0479
   14MOL   H13716762   7.662   5.709   7.707 -0.8983  3.5481  1.9338
   14MOL   H13816763   7.572   5.742   7.553  0.5193 -2.2793 -0.2518
   14MOL   H13916764   0.099   5.777   7.611 -0.4834  0.5661  0.9310
   14MOL   H14016765   0.018   5.828   7.452  0.1351 -1.5248 -0.4242
   14MOL   H14116766   0.037   5.540   7.536  3.0837  1.6988  2.0328
   14MOL   H14216767   7.710   5.610   7.395  0.9047 -1.1059 -0.8820
   14MOL   O14316768   0.159   5.492   7.302  0.4247 -0.0761  0.3643
   14MOL   C14416769   0.250   5.484   7.188  0.7842 -0.7608  0.1616
   14MOL   C14516770   0.348   5.373   7.215 -0.1890  0.1926  0.2929
   14MOL   C14616771   0.466   5.353   7.110 -0.1384  0.0211 -0.0141
   14MOL   C14716772   0.603   5.318   7.170 -0.2489  0.1653 -0.0680
   14MOL   C14816773   0.717   5.330   7.072  0.4958 -0.3270 -0.6666
   14MOL   C14916774   0.849   5.314   7.146 -0.7154  0.6135 -0.2087
   14MOL   C15016775   0.971   5.323   7.049 -0.5273  0.6442  0.0051
   14MOL   C15116776   0.969   5.198   6.955  0.1345  0.3944  0.6342
   14MOL   C15216777   1.109   5.171   6.896 -0.3141  0.1965  0.6037
   14MOL   C15316778   1.225   5.133   6.988  0.0149  0.0678  0.0120
   14MOL   O15416779   1.205   5.007   7.050  0.2638  0.1891  0.2002
   14MOL   C15516780   1.204   4.979   7.186  0.5538  0.1302  0.4665
   14MOL   O15616781   1.223   5.054   7.279  0.1724 -0.2170  0.5346
   14MOL   C15716782   1.171   4.837   7.223 -0.1047 -0.7052  1.0212
   14MOL   C15816783   1.035   4.820   7.283  0.4058 -1.0234  0.1329
   14MOL   C15916784   0.919   4.871   7.201  0.1463  0.4786  0.3707
   14MOL   C16016785   0.782   4.820   7.241 -0.2509 -0.1362 -0.1466
   14MOL   C16116786   0.660   4.912   7.194 -1.1611  0.5119  0.0881
   14MOL   C16216787   0.524   4.842   7.202 -0.0441  0.2226  0.6568
   14MOL   C16316788   0.400   4.929   7.171  0.5968 -0.6874  0.0127
   14MOL   C16416789   0.263   4.879   7.212 -0.0948  0.7710  0.9383
   14MOL   C16516790   0.155   4.980   7.167 -0.4662 -0.1505  0.3375
   14MOL   O16616791   0.147   5.090   7.225 -0.0152  0.2089  0.0084
   14MOL   H16716792   0.182   5.471   7.103  2.3204  0.5954 -1.3284
   14MOL   H16816793   0.316   5.570   7.177 -0.5860  0.3243  0.2370
   14MOL   H16916794   0.400   5.401   7.307  1.8619  1.2369 -1.1363
   14MOL   H17016795   0.295   5.280   7.236  1.0931 -0.3930  1.0044
   14MOL   H17116796   0.445   5.287   7.027  0.3639  0.8976 -0.8508
   14MOL   H17216797   0.485   5.451   7.065 -1.7626  0.5004  0.3100
   14MOL   H17316798   0.620   5.370   7.264 -1.4788  0.7599 -0.1637
   14MOL   H17416799   0.598   5.210   7.187  0.2756  0.0455 -0.6357
   14MOL   H17516800   0.730   5.430   7.031 -1.0200 -0.1167 -0.6885
   14MOL   H17616801   0.698   5.262   6.989 -0.4578  0.0152 -0.7403
   14MOL   H17716802   0.845   5.226   7.211  0.0513  0.0256 -0.9576
   14MOL   H17816803   0.853   5.383   7.230  0.6310  0.6077 -0.2607
   14MOL   H17916804   1.057   5.321   7.115 -1.4308  1.7533  1.2341
   14MOL   H18016805   0.976   5.416   6.993  1.8500  0.5698  0.0517
   14MOL   H18116806   0.898   5.209   6.873  0.7040 -1.2769 -0.1038
   14MOL   H18216807   0.937   5.107   7.005  0.4235 -0.8840 -1.4495
   14MOL   H18316808   1.104   5.090   6.823  1.0301  0.1698  0.5237
   14MOL   H18416809   1.148   5.253   6.835 -0.6362  0.2256  0.4367
   14MOL   H18516810   1.318   5.127   6.931 -1.6906  0.8051 -2.9915
   14MOL   H18616811   1.240   5.209   7.064 -1.1127  1.5197 -1.1565
   14MOL   H18716812   1.240   4.796   7.297  1.0559  0.8954  0.8441
   14MOL   H18816813   1.185   4.758   7.149  3.3836 -0.7753  1.6993
   14MOL   H18916814   1.037   4.867   7.381 -1.4322 -0.2255 -0.1876
   14MOL   H19016815   1.019   4.714   7.300 -0.0815 -1.1853 -1.2682
   14MOL   H19116816   0.935   4.840   7.097  2.1499 -0.7431  1.0096
   14MOL   H19216817   0.915   4.979   7.197 -0.8561  0.3976 -1.6807
   14MOL   H19316818   0.798   4.818   7.349  0.8207  1.1531 -0.2768
   14MOL   H19416819   0.768   4.718   7.206 -1.7475  0.0180 -0.0434
   14MOL   H19516820   0.656   4.999   7.260  0.7517 -0.2304  1.2234
   14MOL   H19616821   0.673   4.964   7.099  0.6108 -0.9698 -0.5089
   14MOL   H19716822   0.519   4.753   7.139  0.0595  0.5729  0.1545
   14MOL   H19816823   0.510   4.793   7.299  1.0050  0.0153  0.7117
   14MOL   H19916824   0.399   4.960   7.066  1.3611  0.7312  0.4145
   14MOL   H20016825   0.413   5.023   7.225  0.4839  0.2802 -1.6162
   14MOL   H20116826   0.226   4.786   7.169  1.1971  0.8878 -0.4587
   14MOL   H20216827   0.249   4.872   7.320  3.6500 -1.3461  1.3533
   14MOL   H20316828   0.074   4.958   7.096 -0.2158  0.7982 -0.2456
   15MOL     O116829   4.330   6.231   6.861  0.3657 -0.4877  0.1238
   15MOL     C216830   4.206   6.175   6.863  1.1617  0.2725 -0.3109
   15MOL     C316831   4.199   6.067   6.751  0.2799  0.0113 -0.2797
   15MOL     C416832   4.077   5.967   6.764 -0.0232 -0.2790 -0.0453
   15MOL     C516833   4.066   5.869   6.645 -0.6059  0.1641  0.1149
   15MOL     C616834   3.945   5.776   6.667  0.0400  0.7210  0.0165
   15MOL     C716835   3.950   5.671   6.555 -0.0805 -0.4066  0.6580
   15MOL     C816836   3.861   5.545   6.583  0.0867  0.0204  0.1416
   15MOL     C916837   3.865   5.443   6.467  0.2036  0.1649  0.2335
   15MOL    C1016838   3.777   5.324   6.506 -0.3669  0.5804 -0.0210
   15MOL    C1116839   3.795   5.201   6.410 -0.1165  0.9574  0.9315
   15MOL    O1216840   3.926   5.151   6.406 -0.1981  0.3192 -0.1602
   15MOL    C1316841   3.975   5.067   6.497 -1.0883  0.5145  0.6687
   15MOL    O1416842   3.921   5.045   6.606 -0.4579  0.3864  0.4173
   15MOL    C1516843   4.117   5.023   6.461 -0.0313  0.4538 -0.1805
   15MOL    C1616844   4.128   4.944   6.329  0.7382 -0.0773  0.0051
   15MOL    C1716845   4.115   5.029   6.194  0.1143  0.1040  0.1859
   15MOL    C1816846   4.159   4.947   6.072 -0.1570  0.0510  0.4366
   15MOL    C1916847   4.120   5.009   5.940 -0.0446  0.7323  0.5203
   15MOL    C2016848   4.165   4.921   5.821 -0.1035 -0.1057 -0.3627
   15MOL    C2116849   4.144   5.000   5.690  0.1861  0.6969  0.2400
   15MOL    C2216850   4.171   4.919   5.565  0.9614  0.4787  0.3747
   15MOL    C2316851   4.053   4.823   5.537 -0.3162  0.1421  0.2687
   15MOL    O2416852   3.959   4.854   5.461  0.1027  0.2550  0.2047
   15MOL    H2516853   4.182   6.144   6.964 -0.9566  0.4787 -0.7131
   15MOL    H2616854   4.136   6.255   6.838 -0.1429 -0.0167  2.3166
   15MOL    H2716855   4.201   6.125   6.659  2.1926 -1.5074 -1.2411
   15MOL    H2816856   4.285   6.000   6.756  1.5746  1.7684  2.0481
   15MOL    H2916857   4.089   5.903   6.851 -1.5027 -1.1688 -0.4800
   15MOL    H3016858   3.990   6.032   6.777  0.6107  0.3655  1.0480
   15MOL    H3116859   4.060   5.921   6.550 -1.2122  1.1062  0.6565
   15MOL    H3216860   4.148   5.800   6.623 -2.1385 -1.5017 -0.5179
   15MOL    H3316861   3.847   5.823   6.676 -0.0006  0.5531  0.4856
   15MOL    H3416862   3.952   5.722   6.762 -1.3831  0.2932 -0.1050
   15MOL    H3516863   4.050   5.632   6.538  0.4128 -0.1447  2.7674
   15MOL    H3616864   3.924   5.719   6.461 -2.3884 -1.6502  0.6375
   15MOL    H3716865   3.761   5.585   6.602  0.9211  0.7987  3.1902
   15MOL    H3816866   3.901   5.510   6.678 -0.7996  1.2023  0.9599
   15MOL    H3916867   3.968   5.408   6.462 -0.1603 -0.8838 -0.0322
   15MOL    H4016868   3.835   5.492   6.375 -1.4091  0.8508  1.1045
   15MOL    H4116869   3.803   5.299   6.608 -0.9507 -1.2361 -0.3059
   15MOL    H4216870   3.670   5.343   6.499 -0.3966  0.2428 -0.6067
   15MOL    H4316871   3.721   5.127   6.441  0.2650  0.9195  1.7591
   15MOL    H4416872   3.769   5.221   6.306 -0.5701  0.7715  1.0094
   15MOL    H4516873   4.153   4.959   6.541  0.6698 -0.2812 -1.0631
   15MOL    H4616874   4.179   5.112   6.449 -1.6453  1.4836 -1.0200
   15MOL    H4716875   4.059   4.861   6.320 -1.2560  1.5455  0.0114
   15MOL    H4816876   4.226   4.897   6.324  0.3427 -0.7618 -1.6349
   15MOL    H4916877   4.187   5.110   6.204 -0.8930  1.1457 -0.7827
   15MOL    H5016878   4.011   5.061   6.186 -0.0308 -0.4555 -0.1880
   15MOL    H5116879   4.115   4.847   6.078 -0.4381  0.0980 -0.7035
   15MOL    H5216880   4.267   4.940   6.055  0.0303 -0.5135  1.7615
   15MOL    H5316881   4.012   5.004   5.934  0.1281 -2.5329 -1.0090
   15MOL    H5416882   4.156   5.112   5.942 -2.1266  1.5189 -1.3112
   15MOL    H5516883   4.274   4.917   5.830 -0.3153 -1.2018  2.2520
   15MOL    H5616884   4.118   4.823   5.822 -1.1734  0.4074 -0.1604
   15MOL    H5716885   4.210   5.086   5.689 -0.4081  1.1415 -1.1899
   15MOL    H5816886   4.038   5.025   5.685  0.3242  1.1062 -0.7266
   15MOL    H5916887   4.167   4.980   5.475 -1.1285  2.4276  1.7365
   15MOL    H6016888   4.261   4.858   5.557  1.4546  1.4424 -1.8166
   15MOL    H6116889   4.385   6.165   6.902 -1.6572 -1.8754  0.7024
   15MOL    O6216890   4.065   4.712   5.605  0.0085  0.4210  0.2193
   15MOL    C6316891   3.965   4.617   5.601  0.2425 -0.1490  0.1009
   15MOL    C6416892   3.977   4.500   5.703  0.1475 -0.1302 -0.9971
   15MOL    C6516893   3.975   4.526   5.858  0.3048  0.2001  0.6427
   15MOL    C6616894   3.997   4.400   5.943 -0.1065 -0.0326  0.0538
   15MOL    C6716895   4.029   4.446   6.086 -0.2772  0.9211  0.1455
   15MOL    C6816896   4.047   4.343   6.192  0.5701  0.1192 -1.0934
   15MOL    C6916897   4.110   4.395   6.323  0.0795 -0.5082 -0.0947
   15MOL    C7016898   4.005   4.477   6.413 -0.8448 -0.1957 -0.6546
   15MOL    C7116899   4.071   4.540   6.535 -0.4022  0.4196 -0.1589
   15MOL    C7216900   3.984   4.638   6.605 -0.0090 -0.1105 -0.3361
   15MOL    O7316901   4.076   4.710   6.691  0.2374  0.9648 -0.8341
   15MOL    C7416902   4.097   4.671   6.816  0.7633  0.4712 -0.2815
   15MOL    O7516903   4.028   4.583   6.867 -0.2515 -0.5323 -0.6314
   15MOL    C7616904   4.197   4.749   6.896  0.1506 -0.4673 -0.1452
   15MOL    C7716905   4.163   4.855   6.991 -0.0834 -0.7049 -0.5273
   15MOL    C7816906   4.076   4.959   6.921  0.5784  0.1399  0.4678
   15MOL    C7916907   4.055   5.083   7.011  0.7099  0.0491 -0.0810
   15MOL    C8016908   3.953   5.179   6.956 -0.3763  0.2672 -0.1687
   15MOL    C8116909   3.970   5.318   7.020 -0.4047 -0.2276 -0.6415
   15MOL    C8216910   3.871   5.422   6.984 -0.0944  0.8221  0.0358
   15MOL    C8316911   3.897   5.555   7.061  0.3378  0.4145 -0.0644
   15MOL    C8416912   3.806   5.674   7.024 -0.2967  0.4082 -0.7819
   15MOL    O8516913   3.846   5.786   6.997  0.2495 -0.0524  0.1748
   15MOL    H8616914   3.872   4.672   5.619  1.9555  2.9301 -0.1852
   15MOL    H8716915   3.953   4.589   5.496 -2.1194 -1.6915  0.7269
   15MOL    H8816916   3.894   4.439   5.667 -0.3099 -0.5874  0.7857
   15MOL    H8916917   4.069   4.446   5.683 -0.7077 -1.3479 -1.7236
   15MOL    H9016918   4.058   4.591   5.883 -0.5273  0.7446  2.0433
   15MOL    H9116919   3.880   4.574   5.881  0.2401  0.5736 -0.3822
   15MOL    H9216920   3.899   4.353   5.938 -0.6591  1.2093 -0.9314
   15MOL    H9316921   4.064   4.330   5.894  0.5875  1.6407 -1.4462
   15MOL    H9416922   3.957   4.520   6.119  0.4072  2.0483 -0.8715
   15MOL    H9516923   4.120   4.506   6.083 -0.0505  0.5596 -0.2866
   15MOL    H9616924   4.111   4.258   6.168 -2.4212 -2.5606  0.0590
   15MOL    H9716925   3.951   4.293   6.210  0.6662 -0.0405 -1.0227
   15MOL    H9816926   4.199   4.453   6.299 -0.0921 -0.1892  0.0307
   15MOL    H9916927   4.150   4.312   6.381 -2.5029  1.1290  4.2988
   15MOL   H10016928   3.921   4.419   6.451  0.2000 -0.5107  1.2102
   15MOL   H10116929   3.964   4.553   6.346 -0.6154 -0.1760 -0.7733
   15MOL   H10216930   4.106   4.456   6.595  0.3673  1.4089  0.7979
   15MOL   H10316931   4.160   4.593   6.501 -0.4290  1.3279  1.1444
   15MOL   H10416932   3.928   4.705   6.540  1.7313 -0.9100 -2.7157
   15MOL   H10516933   3.907   4.585   6.661 -0.6590  0.6892 -0.4573
   15MOL   H10616934   4.273   4.783   6.825 -1.4593 -0.4844 -1.9302
   15MOL   H10716935   4.242   4.675   6.961 -1.4894 -1.0492  0.3303
   15MOL   H10816936   4.253   4.905   7.028  0.1191 -0.8557 -0.8101
   15MOL   H10916937   4.112   4.814   7.077 -1.0234  1.9975  0.2590
   15MOL   H11016938   3.978   4.917   6.896  0.9375 -0.7180  0.4830
   15MOL   H11116939   4.125   4.987   6.828  0.6326 -1.7719 -0.1170
   15MOL   H11216940   4.152   5.133   7.015 -0.6055  2.9541 -2.6162
   15MOL   H11316941   4.023   5.057   7.111 -0.6426 -0.5782 -0.6725
   15MOL   H11416942   3.966   5.205   6.851 -0.3384  2.0702  0.2570
   15MOL   H11516943   3.853   5.138   6.968 -0.9115  1.7961  0.9440
   15MOL   H11616944   3.958   5.310   7.128  0.9858 -1.8558 -0.5928
   15MOL   H11716945   4.072   5.351   7.005  0.0054 -1.4631 -0.6339
   15MOL   H11816946   3.772   5.396   7.021 -0.3089  0.2045 -0.9544
   15MOL   H11916947   3.862   5.439   6.876 -0.1724  0.7733  0.0345
   15MOL   H12016948   3.893   5.534   7.168  2.4850 -0.0772 -0.0695
   15MOL   H12116949   4.000   5.585   7.046  0.5763 -1.0321 -1.4847
   15MOL   O12216950   3.677   5.646   7.044  0.3124 -0.0390 -0.7674
   15MOL   C12316951   3.581   5.746   7.040 -0.3727 -0.1759 -0.0573
   15MOL   C12416952   3.504   5.755   7.176  0.3882  0.3336 -0.2517
   15MOL   C12516953   3.424   5.878   7.201  0.0503 -0.2430  0.3403
   15MOL   C12616954   3.364   5.895   7.337 -0.6347  0.4824 -0.1699
   15MOL   C12716955   3.472   5.894   7.447 -0.3049  0.5898  0.4658
   15MOL   C12816956   3.424   5.934   7.584  0.6834  0.6757  0.3298
   15MOL   C12916957   3.522   5.901   7.690  0.0544  0.0800  0.1345
   15MOL   C13016958   3.658   5.959   7.666 -0.9180  0.7121 -0.0580
   15MOL   C13116959   3.759   5.919   0.019 -0.0248  0.1291  0.8530
   15MOL   C13216960   3.904   5.968   7.729  0.8879 -0.1746 -0.8012
   15MOL   O13316961   3.919   6.104   7.742  0.9090 -0.6434  0.2455
   15MOL   C13416962   4.031   6.159   7.699  0.5604  0.3451  0.1344
   15MOL   O13516963   4.127   6.095   7.650  0.2003 -0.0805 -0.4080
   15MOL   C13616964   4.025   6.310   7.715 -0.7037  0.0085  0.1654
   15MOL   C13716965   4.163   6.369   7.701  0.1323  0.2691  0.1184
   15MOL   C13816966   4.174   6.519   7.734  0.7096  0.6075 -0.0738
   15MOL   C13916967   4.278   6.576   7.636 -0.1599  0.2696  0.0835
   15MOL   C14016968   4.334   6.713   7.673 -0.1064 -0.1189 -0.0172
   15MOL   C14116969   4.438   6.769   7.570 -0.8203 -0.0192 -0.3641
   15MOL   C14216970   4.387   6.795   7.428 -1.3430  0.6887  0.0922
   15MOL   C14316971   4.263   6.873   7.417  0.3723  0.1670  0.5488
   15MOL   C14416972   4.268   7.019   7.472  0.1289 -0.2645 -0.4034
   15MOL   O14516973   4.210   7.053   7.578 -0.0112 -0.4331  0.3124
   15MOL   H14616974   3.621   5.846   7.025  0.8656 -0.6523 -0.0245
   15MOL   H14716975   3.517   5.719   6.956 -0.0861 -0.3910 -0.2089
   15MOL   H14816976   3.438   5.669   7.188 -0.5356  0.8992 -1.2523
   15MOL   H14916977   3.581   5.749   7.254 -1.2951  0.2291  1.4373
   15MOL   H15016978   3.472   5.972   7.175 -1.8522  0.6186 -0.0732
   15MOL   H15116979   3.336   5.875   7.136  2.0257  0.5598 -2.5048
   15MOL   H15216980   3.310   5.989   7.345 -2.0372 -0.2861 -0.5435
   15MOL   H15316981   3.288   5.818   7.338  0.5038 -0.6861  2.8489
   15MOL   H15416982   3.558   5.957   7.424 -0.0949  0.7355  1.6279
   15MOL   H15516983   3.517   5.795   7.456 -0.8028  0.5286  2.6271
   15MOL   H15616984   3.325   5.893   7.602  0.5933  0.7092 -0.1020
   15MOL   H15716985   3.407   6.041   7.574 -1.7879  0.3675  0.8681
   15MOL   H15816986   3.535   5.793   7.692  0.0722  0.0736 -0.3426
   15MOL   H15916987   3.485   5.929   0.032 -1.1351  1.0073 -0.5596
   15MOL   H16016988   3.658   6.068   7.669 -0.7736  0.6771  1.3525
   15MOL   H16116989   3.704   5.919   7.575 -1.1856 -0.0825  0.1501
   15MOL   H16216990   3.748   5.963   0.118 -0.1130  0.4221  0.7138
   15MOL   H16316991   3.774   5.812   0.030  0.7530  0.0464 -0.7300
   15MOL   H16416992   3.982   5.922   0.033  2.9652  1.5411 -2.1263
   15MOL   H16516993   3.939   5.931   7.632  1.7177 -0.7503 -0.2848
   15MOL   H16616994   3.979   6.342   0.053 -0.6123 -0.1678  0.2702
   15MOL   H16716995   3.951   6.344   7.643  0.7171  1.9613 -0.4079
   15MOL   H16816996   4.195   6.343   7.600  0.5526 -0.0960  0.3436
   15MOL   H16916997   4.238   6.328   0.012 -1.2694  0.9299  2.1086
   15MOL   H17016998   4.199   6.530   0.083  0.2053 -0.0295  0.1145
   15MOL   H17116999   4.071   6.556   7.723  0.6160  0.5418  0.5521
   15MOL   H17217000   4.230   6.586   7.538  0.5611  0.4014 -0.2573
   15MOL   H17317001   4.364   6.509   7.633 -0.5239 -0.2961  1.9236
   15MOL   H17417002   4.261   6.791   7.697  0.7237  0.1758  1.6160
   15MOL   H17517003   4.384   6.700   0.012 -1.2162  0.1893  0.6226
   15MOL   H17617004   4.488   6.857   7.610  2.3725 -3.0653  2.7660
   15MOL   H17717005   4.521   6.697   7.571 -0.4811  0.3731 -0.3134
   15MOL   H17817006   4.379   6.699   7.377 -0.3182 -0.5698  2.2330
   15MOL   H17917007   4.463   6.856   7.379  0.6068 -1.7649 -0.0445
   15MOL   H18017008   4.229   6.886   7.314 -0.1415 -0.1800  0.6727
   15MOL   H18117009   4.177   6.823   7.462  0.1781 -1.4663 -1.5779
   15MOL   O18217010   4.346   7.095   7.395 -0.1577 -0.5834  0.0404
   15MOL   C18317011   4.377   7.224   7.439  0.1780  0.5012  0.2302
   15MOL   C18417012   4.528   7.232   7.464 -0.3076 -0.9709  0.4281
   15MOL   C18517013   4.567   7.157   7.588 -0.2940  0.0575 -0.5085
   15MOL   C18617014   4.700   7.210   7.633 -0.5752  0.1800 -0.6985
   15MOL   C18717015   4.748   7.144   7.753  0.6157 -0.1141 -0.9147
   15MOL   C18817016   4.809   7.008   7.720 -0.2871 -0.2849 -0.0257
   15MOL   C18917017   4.838   6.932   0.095 -0.3195 -0.2415 -0.3955
   15MOL   C19017018   4.916   6.802   0.068  0.2365 -0.2205  0.2832
   15MOL   C19117019   4.823   6.687   0.058  0.2751  0.1616  0.5579
   15MOL   C19217020   4.889   6.559   0.012  0.0624 -0.3769 -0.4101
   15MOL   O19317021   4.991   6.525   0.101  0.1058 -0.3644  0.1109
   15MOL   C19417022   5.080   6.426   0.085  0.4356 -0.3005  0.0354
   15MOL   O19517023   5.083   6.344   7.753 -0.4917  0.2993 -0.2669
   15MOL   C19617024   5.184   6.419   0.198 -0.3223 -0.5307  0.3283
   15MOL   C19717025   5.212   6.560   0.273  0.4586  0.9564 -0.1380
   15MOL   C19817026   5.326   6.647   0.218  0.2533  0.6277  0.7426
   15MOL   C19917027   5.462   6.592   0.259 -0.1003  0.6396  0.4756
   15MOL   C20017028   5.535   6.517   0.144  0.4467 -0.5892  0.1528
   15MOL   C20117029   5.676   6.475   0.185 -0.0020 -0.3603  0.6369
   15MOL   C20217030   5.782   6.585   0.211 -0.0186 -0.3765 -0.3019
   15MOL   C20317031   5.910   6.522   0.277 -0.1284  0.7905  0.3054
   15MOL   C20417032   6.022   6.477   0.183  0.1243  0.8980  0.5476
   15MOL   O20517033   6.134   6.525   0.185  0.1328 -0.1196 -0.2587
   15MOL   H20617034   4.363   7.296   7.359  0.6066  0.9584  0.5676
   15MOL   H20717035   4.332   7.244   7.536 -1.0247  2.4252 -0.6862
   15MOL   H20817036   4.589   7.201   7.380  0.4870  0.0813  0.6006
   15MOL   H20917037   4.554   7.337   7.476 -2.3349 -0.1278 -2.0995
   15MOL   H21017038   4.483   7.177   7.654 -1.8767  0.1082 -2.4667
   15MOL   H21117039   4.562   7.054   7.552  0.1924 -0.1103 -0.0995
   15MOL   H21217040   4.768   7.209   7.548  2.1464  1.5377  1.3630
   15MOL   H21317041   4.685   7.314   7.660 -0.4953 -0.5918  2.6123
   15MOL   H21417042   4.669   7.139   0.071 -0.8285  0.5313 -2.3973
   15MOL   H21517043   4.823   7.203   0.050 -1.0380  1.0160  0.1770
   15MOL   H21617044   4.895   7.040   7.661 -0.1643  1.5159  1.0810
   15MOL   H21717045   4.742   6.938   7.671 -0.1620  1.1936 -2.4075
   15MOL   H21817046   4.747   6.909   0.149  0.3801 -0.0416  0.9007
   15MOL   H21917047   4.890   6.994   0.168  1.0767 -1.2874 -0.4803
   15MOL   H22017048   4.994   6.801   0.145 -1.1162 -0.2614  1.6871
   15MOL   H22117049   4.970   6.823   7.732  0.9321  1.6570  1.0829
   15MOL   H22217050   4.760   6.679   0.147  1.7258  1.1088  1.6886
   15MOL   H22317051   4.749   6.714   7.739  0.5627  0.7463  0.4872
   15MOL   H22417052   4.818   6.476   0.005 -0.7447  0.2730 -0.0199
   15MOL   H22517053   4.925   6.561   7.666  0.8710 -3.4729 -0.2398
   15MOL   H22617054   5.270   6.357   0.175  0.0040  0.0062  0.0755
   15MOL   H22717055   5.151   6.367   0.288  2.4028  1.5159  2.6070
   15MOL   H22817056   5.236   6.541   0.377 -0.0511  0.4520 -0.1063
   15MOL   H22917057   5.117   6.612   0.281  1.4146  2.4983  1.5207
   15MOL   H23017058   5.319   6.753   0.244  0.5383  0.6595  0.6903
   15MOL   H23117059   5.310   6.649   0.110 -0.5306 -1.1005  0.8054
   15MOL   H23217060   5.467   6.537   0.353  1.3529 -2.5626 -1.3912
   15MOL   H23317061   5.528   6.679   0.268  0.0214  0.6647 -0.6552
   15MOL   H23417062   5.471   6.438   0.105 -2.8173  2.4670 -1.0010
   15MOL   H23517063   5.549   6.589   0.063 -0.1704 -1.9389 -1.1744
   15MOL   H23617064   5.679   6.407   0.270  1.3326 -0.1255  0.7902
   15MOL   H23717065   5.720   6.419   0.102 -0.9726  0.6209 -0.5495
   15MOL   H23817066   5.747   6.669   0.270  1.1522 -0.3248  0.3320
   15MOL   H23917067   5.816   6.638   0.122 -1.0522  1.4345  0.3704
   15MOL   H24017068   5.956   6.603   0.333 -1.3161  0.7780  1.3145
   15MOL   H24117069   5.893   6.442   0.349  1.2122 -0.6378 -0.9194
   15MOL   O24217070   5.983   6.380   0.103  0.1056  0.4570  0.1597
   15MOL   C24317071   6.071   6.330   0.004  0.0684 -0.3394 -0.1814
   15MOL   C24417072   6.193   6.261   0.060  0.0977  0.6292  0.4321
   15MOL   C24517073   6.256   6.166   7.710 -0.1973  0.7211 -0.0447
   15MOL   C24617074   6.352   6.061   0.016  0.1344  0.0950  0.2624
   15MOL   C24717075   6.403   5.968   7.658 -0.2431 -0.2503 -0.1715
   15MOL   C24817076   6.502   5.866   7.716  0.4985 -0.1300  0.7376
   15MOL   C24917077   6.545   5.746   7.624 -0.1908 -0.2817  0.0415
   15MOL   C25017078   6.662   5.674   7.694  0.2049 -0.6968 -0.2020
   15MOL   C25117079   6.759   5.611   7.599  0.1031 -0.2299  0.4309
   15MOL   C25217080   6.704   5.520   7.485  0.1737 -0.2141 -0.2337
   15MOL   O25317081   6.813   5.500   7.397 -1.1372 -0.1999 -0.4307
   15MOL   C25417082   6.858   5.382   7.372  0.1640 -0.1900  0.9164
   15MOL   O25517083   6.821   5.276   7.425 -0.0225 -0.5815 -0.0032
   15MOL   C25617084   6.969   5.378   7.265  0.4770  0.4350  0.1789
   15MOL   C25717085   6.925   5.423   7.123 -0.4118 -0.3401 -0.0620
   15MOL   C25817086   6.821   5.339   7.050 -0.0447 -0.0463 -0.4574
   15MOL   C25917087   6.773   5.400   6.909 -0.8480  0.2305 -0.5742
   15MOL   C26017088   6.664   5.313   6.838 -0.6490  0.6100  0.8990
   15MOL   C26117089   6.623   5.386   6.710 -0.2035 -0.0295  0.1391
   15MOL   C26217090   6.488   5.333   6.649  0.2496 -0.3489  0.6743
   15MOL   C26317091   6.482   5.334   6.494  0.0391 -0.1581 -0.1900
   15MOL   C26417092   6.511   5.476   6.430  0.1033  0.6774  0.4860
   15MOL   O26517093   6.476   5.575   6.484 -0.0186 -0.1314 -0.1623
   15MOL   H26617094   6.018   6.272   7.686 -0.2840 -2.6823  1.8385
   15MOL   H26717095   6.113   6.414   7.704 -0.0657  0.6990  1.2150
   15MOL   H26817096   6.268   6.334   0.089 -0.0284  1.1024 -0.4212
   15MOL   H26917097   6.158   6.198   0.142  0.6425  1.5346  1.3642
   15MOL   H27017098   6.176   6.108   7.665 -0.7227  0.0497  1.7411
   15MOL   H27117099   6.303   6.220   7.628  1.8102  0.0301  0.6259
   15MOL   H27217100   6.431   6.108   0.074  0.5517 -0.0994 -0.1491
   15MOL   H27317101   6.295   6.011   0.094  0.0045  1.1420  0.8458
   15MOL   H27417102   6.455   6.024   7.581  1.1980  0.5695  1.3463
   15MOL   H27517103   6.321   5.915   7.610  0.8051 -2.1123  0.0727
   15MOL   H27617104   6.442   5.807   0.029  0.4883 -0.2889  0.5915
   15MOL   H27717105   6.577   5.911   0.026  0.3231  0.1750  0.7315
   15MOL   H27817106   6.582   5.797   7.534  4.5627 -0.4904  1.7453
   15MOL   H27917107   6.452   5.695   7.603 -0.4208  1.1889 -2.8205
   15MOL   H28017108   6.625   5.597   0.005  0.2531 -0.5858 -0.0460
   15MOL   H28117109   6.730   5.733   7.755 -0.4695  0.3625 -0.4446
   15MOL   H28217110   6.830   5.686   7.562 -1.3353  0.3371 -1.2543
   15MOL   H28317111   6.818   5.544   7.662  2.5774  2.1742  0.7551
   15MOL   H28417112   6.665   5.424   7.519  3.5675 -1.3138  0.7301
   15MOL   H28517113   6.626   5.574   7.432  1.7254  0.4614 -1.8827
   15MOL   H28617114   7.008   5.276   7.263  1.8738  0.9202  1.7464
   15MOL   H28717115   7.044   5.446   7.307  0.3365 -0.1885  1.4575
   15MOL   H28817116   7.019   5.426   7.068 -1.5729 -4.3560 -2.5186
   15MOL   H28917117   6.881   5.523   7.128 -0.3345 -0.3023 -0.1515
   15MOL   H29017118   6.732   5.323   7.111 -0.3905  2.1856 -0.3353
   15MOL   H29117119   6.871   5.244   7.031  1.0207  0.5312 -0.5391
   15MOL   H29217120   6.866   5.424   6.859 -2.5296 -0.6888 -4.2770
   15MOL   H29317121   6.736   5.499   6.936 -1.3478 -0.0522 -0.1972
   15MOL   H29417122   6.700   5.211   6.826  0.4050  0.9010  1.5039
   15MOL   H29517123   6.573   5.302   6.898 -1.1888 -0.6102 -0.1326
   15MOL   H29617124   6.610   5.490   6.740 -0.7565 -0.4540  1.3710
   15MOL   H29717125   6.697   5.391   6.630  0.1771 -1.2208  0.4166
   15MOL   H29817126   6.400   5.377   6.696 -0.0283  1.3465 -1.3334
   15MOL   H29917127   6.480   5.226   6.671  1.2178 -0.6858 -0.5860
   15MOL   H30017128   6.554   5.262   6.456 -0.3344  0.4628 -2.1514
   15MOL   H30117129   6.385   5.296   6.462 -0.5571  1.2060 -0.0357
   15MOL   O30217130   6.562   5.465   6.314 -0.4418  0.0477  0.1916
   15MOL   C30317131   6.622   5.580   6.258 -0.0845  0.1507 -0.1413
   15MOL   C30417132   6.655   5.555   6.115  0.8925  0.2628 -0.1680
   15MOL   C30517133   6.788   5.475   6.093 -0.4092  0.0198 -0.4127
   15MOL   C30617134   6.812   5.442   5.943 -0.3283 -0.0701 -0.5145
   15MOL   C30717135   6.941   5.351   5.925 -0.0835  0.7236  0.0514
   15MOL   C30817136   6.939   5.269   5.795 -0.4273 -0.6017 -0.1135
   15MOL   C30917137   7.031   5.155   5.787  0.2623  0.0353  0.1027
   15MOL   C31017138   7.034   5.077   5.650 -0.4106 -0.3473  0.6325
   15MOL   C31117139   7.148   4.965   5.646  0.0485  0.5631  0.2472
   15MOL   C31217140   7.145   4.878   5.517  0.2493  0.8132  0.1208
   15MOL   O31317141   7.179   4.958   5.413  0.7521 -0.7313 -0.5553
   15MOL   C31417142   7.177   4.906   5.293 -0.3173 -0.3504  0.1620
   15MOL   O31517143   7.136   4.791   5.264  0.3152  0.0332 -0.1737
   15MOL   C31617144   7.217   4.998   5.185 -0.1046  0.1933  0.7751
   15MOL   C31717145   7.110   5.092   5.127  0.2870  0.3577 -0.1888
   15MOL   C31817146   7.031   5.170   5.226 -0.7059 -0.2785 -0.1306
   15MOL   C31917147   6.909   5.100   5.281  0.3252  0.6581 -0.4009
   15MOL   C32017148   6.821   5.193   5.362  0.0118  0.2350  0.5545
   15MOL   C32117149   6.690   5.119   5.397  0.0773 -0.2006 -0.1752
   15MOL   C32217150   6.606   5.047   5.280  0.7621  0.0714  0.5454
   15MOL   C32317151   6.483   4.987   5.346 -0.3941  0.7467 -0.0801
   15MOL   C32417152   6.346   5.046   5.329 -1.0246  0.3376 -0.0431
   15MOL   O32517153   6.281   5.103   5.414 -0.3538 -0.6248 -0.1639
   15MOL   H32617154   6.562   5.669   6.279  1.7968  1.0010  1.9707
   15MOL   H32717155   6.711   5.603   6.318 -0.4379  0.8871  0.1116
   15MOL   H32817156   6.568   5.505   6.070  0.6257  0.6958 -0.1302
   15MOL   H32917157   6.657   5.650   6.062 -2.7137  1.0431  0.9431
   15MOL   H33017158   6.875   5.526   6.136 -0.6970 -1.3477  1.9141
   15MOL   H33117159   6.783   5.377   6.142 -2.6444  1.1952  1.7997
   15MOL   H33217160   6.720   5.388   5.918  0.5454 -1.7058 -0.2553
   15MOL   H33317161   6.828   5.535   5.889  2.8792  0.4304  1.1983
   15MOL   H33417162   6.939   5.273   6.001 -0.0534  1.7206  1.0749
   15MOL   H33517163   7.037   5.402   5.933  0.5538 -0.7518  2.4136
   15MOL   H33617164   6.951   5.350   5.722  2.1577  1.2569  2.3162
   15MOL   H33717165   6.843   5.228   5.762 -0.7873  1.3274 -1.6094
   15MOL   H33817166   7.006   5.084   5.865  0.8363  0.0486  0.3038
   15MOL   H33917167   7.134   5.184   5.807  0.5364 -1.6704  1.2364
   15MOL   H34017168   7.050   5.148   5.568 -1.9122 -2.2024 -1.3177
   15MOL   H34117169   6.936   5.043   5.617 -0.1999  0.6202 -1.0677
   15MOL   H34217170   7.242   5.019   5.635 -0.8181  1.5964 -2.7162
   15MOL   H34317171   7.145   4.910   5.740 -0.1579 -0.3804 -0.3140
   15MOL   H34417172   7.223   4.803   5.515 -0.7486 -0.2667  1.1072
   15MOL   H34517173   7.050   4.825   5.512  0.3380  0.7010 -0.3959
   15MOL   H34617174   7.240   4.929   5.103  0.0842  0.8221  0.2885
   15MOL   H34717175   7.304   5.055   5.219  0.5411 -2.5805  3.9536
   15MOL   H34817176   7.038   5.036   5.067 -1.1469  0.0603  1.7823
   15MOL   H34917177   7.158   5.163   5.060 -0.8506  0.8213 -0.5258
   15MOL   H35017178   6.990   5.252   5.167 -0.4944  0.1510  0.3075
   15MOL   H35117179   7.085   5.204   5.314 -1.9160 -0.2919  0.6277
   15MOL   H35217180   6.936   5.021   5.352 -2.4886  1.1827  1.3338
   15MOL   H35317181   6.846   5.057   5.203 -0.8602 -0.7148  1.2395
   15MOL   H35417182   6.868   5.233   5.451  1.3525 -0.2561  0.0793
   15MOL   H35517183   6.781   5.276   5.302  1.0150  0.3993  0.0998
   15MOL   H35617184   6.708   5.044   5.475  1.3369 -0.1185 -0.3761
   15MOL   H35717185   6.630   5.196   5.444  0.1122 -0.6519  0.6352
   15MOL   H35817186   6.671   4.970   5.239 -2.0569 -1.7915 -0.5892
   15MOL   H35917187   6.584   5.121   5.202  0.2823 -1.8321 -1.1847
   15MOL   H36017188   6.493   4.883   5.315 -1.6362 -0.6106  3.8728
   15MOL   H36117189   6.502   4.960   5.450  0.7280  1.6125 -0.0490
   15MOL   O36217190   6.306   5.028   5.201  0.3934  0.1070 -0.0005
   15MOL   C36317191   6.166   5.037   5.173 -0.1788  0.6442 -0.3035
   15MOL   C36417192   6.132   5.167   5.106  0.3764 -0.1311  0.1667
   15MOL   C36517193   6.165   5.162   4.955  0.3105  0.2772 -0.4444
   15MOL   C36617194   6.155   5.290   4.883 -0.1547 -0.4893 -0.1942
   15MOL   C36717195   6.182   5.283   4.733 -0.0786 -1.1225 -0.1361
   15MOL   C36817196   6.051   5.267   4.639 -0.4323 -0.8035 -0.1011
   15MOL   C36917197   6.072   5.288   4.487  0.3013 -0.2013 -0.3255
   15MOL   C37017198   6.081   5.434   4.442 -0.3797 -0.0948  0.2731
   15MOL   C37117199   6.129   5.441   4.296 -0.5193  0.5884 -0.6468
   15MOL   C37217200   6.085   5.577   4.243 -0.5501 -0.5444  0.0262
   15MOL   O37317201   6.168   5.678   4.299 -0.1081 -0.7147  0.2067
   15MOL   C37417202   6.127   5.802   4.310  0.6054  0.7935 -0.4569
   15MOL   O37517203   6.010   5.833   4.281  0.1292  0.0101  0.3034
   15MOL   C37617204   6.227   5.897   4.378 -0.2731  0.5206 -0.7106
   15MOL   C37717205   6.236   5.855   4.527  0.4491  0.2993  0.2879
   15MOL   C37817206   6.353   5.928   4.598  0.1282 -0.0785  0.0990
   15MOL   C37917207   6.364   5.881   4.749 -0.1795 -0.1625  0.5735
   15MOL   C38017208   6.396   5.727   4.772  0.4090  0.3086 -0.0989
   15MOL   C38117209   6.445   5.701   4.912  0.4306 -0.3883  0.2082
   15MOL   C38217210   6.543   5.579   4.900  0.2183 -1.1587  0.8226
   15MOL   C38317211   6.593   5.539   5.041 -0.6627 -0.5621 -0.4049
   15MOL   C38417212   6.686   5.418   5.032  0.4280 -0.1397  0.4778
   15MOL   O38517213   6.807   5.427   5.044  0.3515 -0.6837 -0.1429
   15MOL   H38617214   6.138   4.948   5.118 -0.1062 -0.5958  1.6140
   15MOL   H38717215   6.096   5.036   5.257 -1.0362  0.6828 -1.0121
   15MOL   H38817216   6.025   5.183   5.118 -0.0950 -0.0551 -3.5053
   15MOL   H38917217   6.182   5.252   5.153  2.4614 -0.5513 -1.2321
   15MOL   H39017218   6.270   5.138   4.943 -0.3148 -1.0423 -3.6056
   15MOL   H39117219   6.108   5.079   4.913  1.4550 -0.2762 -0.9118
   15MOL   H39217220   6.051   5.320   4.893  0.2130  0.3616  1.2408
   15MOL   H39317221   6.217   5.368   4.928 -0.8458 -0.1770  0.2230
   15MOL   H39417222   6.261   5.214   4.705  0.4647 -1.0855  1.2797
   15MOL   H39517223   6.224   5.378   4.701  1.4585 -1.9813 -0.6910
   15MOL   H39617224   5.965   5.323   4.677  1.5091  0.2873  2.8519
   15MOL   H39717225   6.020   5.167   4.668  1.2041 -0.8499  1.5444
   15MOL   H39817226   5.992   5.242   4.428  0.8076 -2.1494  0.4590
   15MOL   H39917227   6.166   5.244   4.452  0.9622 -0.7224  2.0133
   15MOL   H40017228   6.144   5.499   4.502 -0.1191  1.5586 -1.7578
   15MOL   H40117229   5.985   5.487   4.448 -0.1156  0.1640  2.7719
   15MOL   H40217230   6.237   5.434   4.280  0.0329  2.5898  1.9436
   15MOL   H40317231   6.080   5.362   4.239 -0.1303 -0.6744  0.7338
   15MOL   H40417232   6.103   5.590   4.137 -0.4868 -1.6731 -0.1083
   15MOL   H40517233   5.978   5.595   4.251 -0.5291 -0.1186 -0.6210
   15MOL   H40617234   6.193   5.998   4.357  0.0676  0.9637  0.8420
   15MOL   H40717235   6.318   5.878   4.322 -1.4040  1.0221 -2.7723
   15MOL   H40817236   6.255   5.748   4.522 -1.9415 -0.1036 -0.6936
   15MOL   H40917237   6.141   5.875   4.577 -0.6758 -2.1594 -0.7732
   15MOL   H41017238   6.335   6.034   4.583  1.2484 -0.1625 -2.1506
   15MOL   H41117239   6.446   5.914   4.541  0.4064 -0.1777  0.5713
   15MOL   H41217240   6.271   5.909   4.800 -0.6226 -0.0409 -0.2843
   15MOL   H41317241   6.434   5.945   4.803 -1.6900 -0.2544  2.6790
   15MOL   H41417242   6.307   5.671   4.742  0.2767  0.0544  0.7553
   15MOL   H41517243   6.467   5.692   4.698  1.6964 -2.2053  2.2120
   15MOL   H41617244   6.508   5.787   4.932 -0.3219  0.0287  0.8066
   15MOL   H41717245   6.365   5.684   4.985 -0.6959  2.2706 -0.3282
   15MOL   H41817246   6.633   5.609   4.848 -1.6347  1.6992 -0.8175
   15MOL   H41917247   6.512   5.484   4.857  0.5936 -0.3614 -1.2670
   15MOL   H42017248   6.654   5.618   5.084 -0.8021  0.3716 -1.8789
   15MOL   H42117249   6.514   5.499   5.105 -1.6999  2.1524  0.0890
   15MOL   O42217250   6.624   5.304   4.998  0.5689  0.0612 -0.1353
   15MOL   C42317251   6.706   5.190   4.967  0.0690 -0.2394 -0.1367
   15MOL   C42417252   6.706   5.165   4.821 -0.1992  0.4380  0.3590
   15MOL   C42517253   6.562   5.148   4.778  0.1280 -0.7363  0.0010
   15MOL   C42617254   6.536   5.141   4.628  0.0233 -0.5568  0.5834
   15MOL   C42717255   6.561   5.280   4.562  0.5104  0.5819  0.1301
   15MOL   C42817256   6.542   5.264   4.410  0.5957  0.1034  0.1297
   15MOL   C42917257   6.664   5.292   4.320  0.2446  0.1574 -0.4298
   15MOL   C43017258   6.783   5.199   4.348  0.4599  0.0080 -0.6282
   15MOL   C43117259   6.912   5.230   4.272 -0.0032 -0.5829 -0.4450
   15MOL   C43217260   7.027   5.128   4.289 -0.2274 -0.5532  0.2101
   15MOL   O43317261   7.004   5.014   4.209  0.2013  0.4645 -0.1881
   15MOL   C43417262   7.050   4.891   4.250  0.2779 -0.3244  0.2622
   15MOL   O43517263   7.125   4.870   4.343 -0.3175 -0.2813 -0.5498
   15MOL   C43617264   7.006   4.776   4.160  0.1464 -0.3279 -0.1365
   15MOL   C43717265   7.073   4.631   4.171 -0.0967 -0.3395  0.3137
   15MOL   C43817266   7.036   4.556   4.295  0.2212 -0.5366 -1.0580
   15MOL   C43917267   7.122   4.440   4.329 -0.3149  0.3072 -0.0517
   15MOL   C44017268   7.083   4.358   4.454  0.2599  0.3581 -0.2069
   15MOL   C44117269   6.944   4.290   4.453 -0.1042 -0.1923  0.3172
   15MOL   C44217270   6.910   4.201   4.572 -0.3565 -0.5405 -0.4064
   15MOL   C44317271   6.760   4.144   4.576 -0.0500 -0.0494 -0.8550
   15MOL   C44417272   6.733   4.040   4.474  0.3375  0.5867  0.9381
   15MOL   O44517273   6.690   4.071   4.365  0.1343 -0.3888  0.1230
   15MOL   H44617274   6.808   5.196   5.004 -0.3537  2.1222  0.7442
   15MOL   H44717275   6.659   5.105   5.017  0.7291 -0.2176  0.5270
   15MOL   H44817276   6.757   5.244   4.766  1.2983 -0.6034  0.2226
   15MOL   H44917277   6.768   5.076   4.806 -2.7158 -1.3827  0.5130
   15MOL   H45017278   6.542   5.047   4.813 -1.8162 -1.1262 -2.0926
   15MOL   H45117279   6.488   5.211   4.828  2.3479  2.8596 -1.0763
   15MOL   H45217280   6.594   5.057   4.591  1.5407 -0.9940  3.8115
   15MOL   H45317281   6.432   5.121   4.605  0.0910 -0.5458  0.2682
   15MOL   H45417282   6.660   5.315   4.590  1.2552  1.0182 -2.8469
   15MOL   H45517283   6.490   5.355   4.596 -0.6294 -0.8103  0.8970
   15MOL   H45617284   6.468   5.340   4.386 -0.7988 -0.9708  0.9972
   15MOL   H45717285   6.482   5.176   4.391  0.2993  0.0774  1.1298
   15MOL   H45817286   6.690   5.398   4.324  0.4028  0.1109 -0.2083
   15MOL   H45917287   6.638   5.265   4.217  1.0470  0.9142 -0.8417
   15MOL   H46017288   6.762   5.093   4.338  0.7457 -0.1386  0.3157
   15MOL   H46117289   6.799   5.209   4.455  0.1316 -0.5721 -0.5241
   15MOL   H46217290   6.892   5.240   4.166 -0.3815  0.7754 -0.2548
   15MOL   H46317291   6.942   5.332   4.296  1.4855 -0.3502 -3.0548
   15MOL   H46417292   7.122   5.177   4.268 -0.8366  0.5478 -0.0106
   15MOL   H46517293   7.033   5.108   4.397  0.7114  0.1574  0.2904
   15MOL   H46617294   7.019   4.821   4.062 -1.4520  0.7023  0.1122
   15MOL   H46717295   6.899   4.754   4.166  0.0002  0.6928  1.1043
   15MOL   H46817296   7.180   4.652   4.164 -0.0783 -0.0673  1.3696
   15MOL   H46917297   7.063   4.573   4.079 -0.3993  2.1024 -1.2418
   15MOL   H47017298   6.933   4.521   4.284 -1.0797  2.4244  0.9793
   15MOL   H47117299   7.037   4.625   4.379  0.4707 -0.7295 -0.9042
   15MOL   H47217300   7.223   4.479   4.338 -1.0103  2.4683 -1.3497
   15MOL   H47317301   7.129   4.369   4.246 -0.7406  0.1459  0.0488
   15MOL   H47417302   7.156   4.281   4.478  1.4109  0.6549 -2.5987
   15MOL   H47517303   7.078   4.434   4.532 -0.8854 -0.4430  0.5157
   15MOL   H47617304   6.866   4.364   4.438 -0.3266  0.0010  2.2893
   15MOL   H47717305   6.941   4.225   4.365 -1.0352  1.1899 -0.6876
   15MOL   H47817306   6.920   4.257   4.664  0.2221 -0.5071 -0.4880
   15MOL   H47917307   6.976   4.114   4.568  1.3163  0.6026  1.7473
   15MOL   H48017308   6.738   4.086   4.665 -2.2627  2.9360  0.6452
   15MOL   H48117309   6.695   4.229   4.557  0.1929  0.2565 -0.3206
   15MOL   O48217310   6.773   3.914   4.503 -0.7199 -0.3232 -0.5743
   15MOL   C48317311   6.743   3.816   4.406  0.5628 -0.7038 -0.2823
   15MOL   C48417312   6.790   3.680   4.427  0.9766 -0.3374 -0.3846
   15MOL   C48517313   6.781   3.579   4.316  0.2634  0.0879  0.5953
   15MOL   C48617314   6.777   3.431   4.351  0.0774 -0.1681  0.6728
   15MOL   C48717315   6.791   3.356   4.219 -0.4379 -0.1111 -0.2759
   15MOL   C48817316   6.839   3.206   4.231 -0.2427  1.0965  0.2393
   15MOL   C48917317   6.901   3.155   4.095  0.8451 -0.4487 -0.6405
   15MOL   C49017318   6.782   3.137   3.991 -0.3847  0.9608 -0.6738
   15MOL   C49117319   6.664   3.039   4.035  0.3351  0.0318  0.2238
   15MOL   C49217320   6.571   3.037   3.911  0.2854 -0.1749 -0.2593
   15MOL   O49317321   6.452   2.972   3.955  0.3726 -0.0726 -0.2388
   15MOL   C49417322   6.338   2.985   3.888  0.1623 -0.0857  0.0566
   15MOL   O49517323   6.332   3.035   3.772  0.3818  0.3493  0.1232
   15MOL   C49617324   6.215   2.933   3.958  0.3693 -0.3826  1.2913
   15MOL   C49717325   6.210   2.936   4.111 -0.4511  0.3520 -0.4304
   15MOL   C49817326   6.183   3.067   4.176 -0.2622  0.5713 -0.4570
   15MOL   C49917327   6.243   3.078   4.312 -0.6346  0.1312 -0.2458
   15MOL   C50017328   6.399   3.093   4.318  0.1185  0.4693 -0.9328
   15MOL   C50117329   6.452   3.120   4.458 -0.6085 -0.2752  0.0436
   15MOL   C50217330   6.444   2.996   4.555 -0.4960  0.2746 -0.6372
   15MOL   C50317331   6.305   2.963   4.621  0.1286  0.6748 -0.2329
   15MOL   C50417332   6.251   3.083   4.701  0.2018 -0.5319 -0.0520
   15MOL   O50517333   6.131   3.104   4.709  0.3695 -0.2068  0.2069
   15MOL   H50617334   6.635   3.811   4.397  0.6472  0.1449 -1.9470
   15MOL   H50717335   6.768   3.841   4.303  2.5394  0.6452  0.4837
   15MOL   H50817336   6.898   3.693   4.442  1.2421  0.1941 -2.5982
   15MOL   H50917337   6.760   3.634   4.521  1.2997 -1.1078 -0.6542
   15MOL   H51017338   6.685   3.601   4.268  0.4902 -1.0657 -0.4118
   15MOL   H51117339   6.855   3.613   4.243 -2.9068  2.2172 -1.7862
   15MOL   H51217340   6.870   3.403   4.401  0.9319  0.3579 -0.5816
   15MOL   H51317341   6.689   3.397   4.405 -0.7950  1.1037  0.0794
   15MOL   H51417342   6.859   3.398   4.145 -0.3722 -0.2980 -0.3227
   15MOL   H51517343   6.692   3.358   4.172  0.5005  2.2934 -2.2673
   15MOL   H51617344   6.766   3.133   4.266  1.4906 -1.3324 -1.0571
   15MOL   H51717345   6.914   3.216   4.309 -0.7113  0.1831  0.8058
   15MOL   H51817346   6.960   3.064   4.105  2.7711  0.6345 -1.9372
   15MOL   H51917347   6.968   3.233   4.060 -1.3786  1.7296 -0.2008
   15MOL   H52017348   6.818   3.096   3.897 -2.6629 -0.6021 -0.8924
   15MOL   H52117349   6.749   3.239   3.971  0.5300  1.0418 -1.8270
   15MOL   H52217350   6.705   2.940   4.054  2.3120  0.3493 -2.1041
   15MOL   H52317351   6.609   3.082   4.119 -0.0066  1.2163 -0.5823
   15MOL   H52417352   6.555   3.135   3.866 -1.1519 -0.1239  0.3265
   15MOL   H52517353   6.606   2.973   3.830 -1.7022 -1.7709  0.0950
   15MOL   H52617354   6.201   2.835   3.913 -2.9601  0.0479  1.2345
   15MOL   H52717355   6.127   2.981   3.916 -0.6881 -0.8338  2.9262
   15MOL   H52817356   6.305   2.900   4.150 -0.6756 -0.6986 -0.8402
   15MOL   H52917357   6.138   2.863   4.148  0.9184 -0.6931  0.2249
   15MOL   H53017358   6.077   3.091   4.177 -0.4398 -0.1962  0.2254
   15MOL   H53117359   6.231   3.150   4.126 -3.6070  2.2202 -1.0911
   15MOL   H53217360   6.204   2.992   4.368  0.6157  1.1641  2.2911
   15MOL   H53317361   6.205   3.166   4.364  0.4205 -0.4843  1.5976
   15MOL   H53417362   6.458   3.006   4.289 -2.3295 -1.8138  0.7197
   15MOL   H53517363   6.425   3.175   4.251  0.5614  2.5295  1.6868
   15MOL   H53617364   6.560   3.137   4.456 -0.4061 -1.4456  0.6862
   15MOL   H53717365   6.410   3.215   4.491 -0.1395  0.4010 -1.2867
   15MOL   H53817366   6.516   3.010   4.635 -0.8878 -0.3116 -0.1838
   15MOL   H53917367   6.478   2.905   4.505  0.6912  0.2757  0.1462
   15MOL   H54017368   6.227   2.939   4.549  0.7110 -1.2606 -0.2722
   15MOL   H54117369   6.324   2.869   4.673  0.2358  1.1251  0.5543
   15MOL   O54217370   6.338   3.146   4.777  0.5299 -0.0193 -0.0207
   15MOL   C54317371   6.281   3.237   4.876 -0.3147 -0.2350 -0.2008
   15MOL   C54417372   6.398   3.312   4.937 -0.0353  1.2073  0.0674
   15MOL   C54517373   6.469   3.416   4.845 -0.2555 -0.2346  0.5194
   15MOL   C54617374   6.558   3.502   4.925 -0.1299 -0.8124 -0.0445
   15MOL   C54717375   6.623   3.619   4.843 -0.2381  0.1987 -0.0538
   15MOL   C54817376   6.699   3.724   4.934  0.4763 -0.8588 -0.0014
   15MOL   C54917377   6.794   3.824   4.859  0.6908  0.6175  0.4443
   15MOL   C55017378   6.887   3.901   4.960 -0.1145  0.4089 -0.2020
   15MOL   C55117379   6.992   3.996   4.905 -0.1938  0.1325 -0.4643
   15MOL   C55217380   7.077   3.928   4.804  0.0874  0.1997 -0.7891
   15MOL   O55317381   7.180   4.013   4.754 -0.2380  0.3251  0.0469
   15MOL   C55417382   7.307   3.992   4.798  0.6123 -0.4547  0.4237
   15MOL   O55517383   7.341   3.917   4.890  0.9271  0.2636  0.2669
   15MOL   C55617384   7.407   4.076   4.717  0.2310  0.2332 -0.9350
   15MOL   C55717385   7.440   4.212   4.791  0.7808  0.0281 -0.1438
   15MOL   C55817386   7.337   4.321   4.758 -0.3469 -0.0787  0.6045
   15MOL   C55917387   7.351   4.451   4.834  0.0390  0.3046 -0.6999
   15MOL   C56017388   7.238   4.552   4.809 -0.5455 -0.0257  0.6271
   15MOL   C56117389   7.231   4.657   4.920  0.7395  0.0375  0.0033
   15MOL   C56217390   7.145   4.786   4.866 -0.7033  0.5829  0.1016
   15MOL   C56317391   7.215   4.876   4.761 -0.3415  0.2707  0.5504
   15MOL   C56417392   7.118   4.989   4.718 -0.1352 -0.9226 -1.1074
   15MOL   O56517393   7.018   4.964   4.654 -0.3349  0.1713  0.6309
   15MOL   H56617394   6.204   3.300   4.833 -0.3730  0.8844  1.5012
   15MOL   H56717395   6.233   3.176   4.953  0.4652 -2.3660 -1.3538
   15MOL   H56817396   6.376   3.368   5.027 -2.3431  1.2086 -0.4810
   15MOL   H56917397   6.474   3.243   4.975 -1.7606 -1.1329 -0.6039
   15MOL   H57017398   6.526   3.361   4.770 -1.7459  0.2798 -1.0356
   15MOL   H57117399   6.392   3.474   4.795  0.6735  0.2312 -0.3991
   15MOL   H57217400   6.494   3.543   5.003 -0.6893 -0.4586 -0.6910
   15MOL   H57317401   6.635   3.451   4.983 -0.4958  1.8549  2.9252
   15MOL   H57417402   6.537   3.656   4.788  0.0899  1.8817  0.5389
   15MOL   H57517403   6.696   3.582   4.771 -0.7730  2.0018 -1.5446
   15MOL   H57617404   6.754   3.658   5.000 -1.4384 -0.5515  1.9666
   15MOL   H57717405   6.627   3.786   4.987  0.6886 -1.8681  1.4885
   15MOL   H57817406   6.742   3.890   4.790 -0.6488 -0.5693  0.2969
   15MOL   H57917407   6.867   3.766   4.802 -0.2395 -0.4473  0.3250
   15MOL   H58017408   6.926   3.821   5.023 -3.0194 -1.2532 -0.4001
   15MOL   H58117409   6.822   3.960   5.024 -1.4915  1.0004 -2.0905
   15MOL   H58217410   6.937   4.082   4.867 -2.9601 -1.4567 -0.2080
   15MOL   H58317411   7.056   4.027   4.987  1.1735  0.5164 -1.6741
   15MOL   H58417412   7.111   3.828   4.831 -0.5628 -0.4389 -2.2470
   15MOL   H58517413   7.026   3.902   4.711 -0.6731 -1.8398  0.1758
   15MOL   H58617414   7.363   4.098   4.619 -0.3583 -3.2549 -1.5187
   15MOL   H58717415   7.504   4.031   4.696 -0.6015 -1.7229 -0.7032
   15MOL   H58817416   7.535   4.257   4.765  0.3030  1.8011  1.1220
   15MOL   H58917417   7.434   4.198   4.899 -1.0091 -1.3859 -0.3954
   15MOL   H59017418   7.242   4.269   4.768 -1.0376  1.1035  0.2659
   15MOL   H59117419   7.334   4.358   4.655  0.2465 -0.1733  0.5539
   15MOL   H59217420   7.445   4.501   4.810  0.7427 -1.0954 -0.9092
   15MOL   H59317421   7.351   4.437   4.942 -1.6954  0.1298 -0.7087
   15MOL   H59417422   7.261   4.612   4.720 -2.5988 -1.6727 -1.0561
   15MOL   H59517423   7.143   4.502   4.796 -0.6310  0.5665 -1.1426
   15MOL   H59617424   7.191   4.602   5.005 -0.2367  0.6764 -0.0346
   15MOL   H59717425   7.333   4.688   4.944  1.1320 -1.2228  0.0059
   15MOL   H59817426   7.127   4.842   4.957 -2.4214 -0.2677  0.2992
   15MOL   H59917427   7.046   4.758   4.832 -1.2670  1.6223  0.8664
   15MOL   H60017428   7.310   4.918   4.796  0.9080 -0.8659 -1.3824
   15MOL   H60117429   7.242   4.823   4.670  0.1185 -2.5222  2.2517
   15MOL   O60217430   7.154   5.114   4.762  0.1018  0.1535  0.1167
   15MOL   C60317431   7.054   5.222   4.753 -0.0397 -0.4798  0.0375
   15MOL   C60417432   7.097   5.335   4.653 -0.4251 -0.1480  0.2378
   15MOL   C60517433   6.994   5.448   4.648 -0.8155 -0.2861  0.2133
   15MOL   C60617434   7.035   5.567   4.562  0.9022 -0.0720 -0.3313
   15MOL   C60717435   6.921   5.676   4.546 -0.2303 -0.1699 -0.7247
   15MOL   C60817436   6.798   5.627   4.466 -0.0453  0.2697 -0.2875
   15MOL   C60917437   6.687   5.735   4.459  0.0383  0.0823 -0.9715
   15MOL   C61017438   6.568   5.679   4.370 -0.4007 -0.3978  0.0960
   15MOL   C61117439   6.599   5.676   4.224  0.5991  0.0578  0.5828
   15MOL   C61217440   6.478   5.624   4.143 -0.1978 -0.1404 -0.0574
   15MOL   O61317441   6.501   5.642   4.011  0.3388  0.1572  0.3814
   15MOL   C61417442   6.392   5.626   3.923 -0.6674  0.9256  0.0009
   15MOL   O61517443   6.280   5.592   3.954  0.9123 -0.2946  0.2633
   15MOL   C61617444   6.430   5.649   3.775 -0.3657  0.1720  0.2516
   15MOL   C61717445   6.419   5.515   3.696 -0.0864  0.2569  0.7465
   15MOL   C61817446   6.433   5.543   3.545 -0.3517 -0.2578  0.0568
   15MOL   C61917447   6.445   5.416   3.462 -0.0132  0.0816  0.4156
   15MOL   C62017448   6.444   5.447   3.307 -0.0912  0.7143 -0.3467
   15MOL   C62117449   6.490   5.319   3.233  0.2111  0.3445 -0.8682
   15MOL   C62217450   6.515   5.343   3.081 -0.0360 -0.5744  0.0835
   15MOL   C62317451   6.571   5.212   3.021  0.0153 -0.4779 -0.0224
   15MOL   C62417452   6.722   5.207   3.034 -0.2847  0.5089 -0.5857
   15MOL   O62517453   6.794   5.271   2.954 -0.0502  0.3712 -0.1895
   15MOL   H62617454   6.958   5.188   4.713  0.2434  0.0828 -1.1203
   15MOL   H62717455   7.034   5.276   4.846 -2.0469 -0.5744 -0.3113
   15MOL   H62817456   7.197   5.370   4.680 -0.3456 -0.5015  0.4056
   15MOL   H62917457   7.117   5.292   4.554  0.8607 -0.4241  0.5967
   15MOL   H63017458   6.900   5.404   4.612  0.4426 -2.1079 -0.9077
   15MOL   H63117459   6.979   5.480   4.752 -0.8270 -0.0913  0.1529
   15MOL   H63217460   7.125   5.615   4.598  0.3276  0.3419  0.5675
   15MOL   H63317461   7.062   5.531   4.462 -0.0519  0.8332 -0.9238
   15MOL   H63417462   6.948   5.771   4.498  1.9943 -1.1043 -1.3762
   15MOL   H63517463   6.889   5.708   4.646  0.2641  0.0456 -0.6322
   15MOL   H63617464   6.757   5.533   4.504  1.0296  0.7153  2.0846
   15MOL   H63717465   6.828   5.602   4.365 -0.3744 -0.8733 -0.1201
   15MOL   H63817466   6.725   5.830   4.423 -0.2190  0.2995 -0.6676
   15MOL   H63917467   6.643   5.754   4.557 -1.2696 -0.6900 -1.3979
   15MOL   H64017468   6.484   5.749   4.375  0.7319  0.9204  0.9726
   15MOL   H64117469   6.545   5.578   4.405  1.0241 -0.0414  2.1290
   15MOL   H64217470   6.609   5.779   4.192 -0.8940 -0.1965 -0.7438
   15MOL   H64317471   6.685   5.611   4.206 -0.0231 -0.2277 -1.4861
   15MOL   H64417472   6.457   5.522   4.176  1.8495 -0.1225  1.3550
   15MOL   H64517473   6.395   5.685   4.176  0.7581  1.0918  0.0873
   15MOL   H64617474   6.533   5.683   3.766 -0.9359  1.8745 -0.0337
   15MOL   H64717475   6.369   5.725   3.725  1.6117  3.2006  2.3329
   15MOL   H64817476   6.323   5.465   3.710 -0.2064  0.4353  0.5606
   15MOL   H64917477   6.505   5.459   3.731 -0.7003 -0.6094  0.9068
   15MOL   H65017478   6.509   5.619   3.528 -0.8210  0.0321 -0.7930
   15MOL   H65117479   6.346   5.600   3.511 -0.1559  0.7257  1.2178
   15MOL   H65217480   6.363   5.348   3.488  0.8960 -0.2122  2.5925
   15MOL   H65317481   6.537   5.364   3.489  1.1641  0.6913 -2.2864
   15MOL   H65417482   6.341   5.464   3.277  0.4135  1.0502 -1.9180
   15MOL   H65517483   6.504   5.536   3.289  0.4356  0.3498 -0.4022
   15MOL   H65617484   6.586   5.301   3.282 -1.2802 -1.3448  1.5002
   15MOL   H65717485   6.412   5.246   3.253 -0.1872  0.9765 -0.0751
   15MOL   H65817486   6.576   5.432   3.066  0.9517 -0.6476  3.3498
   15MOL   H65917487   6.426   5.354   3.019  0.9011 -0.6384 -1.3056
   15MOL   H66017488   6.537   5.129   3.083  1.5806  0.5156  2.2575
   15MOL   H66117489   6.551   5.203   2.914 -0.0580 -0.8036  0.0169
   15MOL   O66217490   6.759   5.110   3.120  0.1230  0.0714  0.2626
   15MOL   C66317491   6.889   5.058   3.114 -0.5858 -0.2477  1.1308
   15MOL   C66417492   6.971   5.117   3.226 -0.1167  0.3424 -0.4412
   15MOL   C66517493   7.118   5.072   3.265  0.0220 -0.6656  0.1538
   15MOL   C66617494   7.174   5.160   3.384  0.0358 -0.0304 -0.2453
   15MOL   C66717495   7.302   5.104   3.443 -0.8936 -0.1400 -0.1627
   15MOL   C66817496   7.422   5.110   3.339 -0.2782 -0.7701  0.1443
   15MOL   C66917497   7.561   5.065   3.400 -0.4437  0.8012  0.5237
   15MOL   C67017498   7.575   4.915   3.428  0.0707 -0.4040 -0.7184
   15MOL   C67117499   7.586   4.815   3.311  0.6538 -0.0409  0.2551
   15MOL   C67217500   7.630   4.679   3.354 -0.0983 -0.4335 -0.3275
   15MOL   O67317501   7.623   4.602   3.239 -0.2847 -0.4301 -0.1073
   15MOL   C67417502   7.674   4.474   3.223  1.1324  0.6898  0.4809
   15MOL   O67517503   7.723   4.405   3.312  0.2213  0.1401  0.4755
   15MOL   C67617504   7.661   4.414   3.078 -0.1146 -0.5519 -0.0680
   15MOL   C67717505   0.003   4.307   3.048 -0.6874  0.3851  0.2697
   15MOL   C67817506   7.705   4.215   2.939 -0.5111 -0.1249  0.0647
   15MOL   C67917507   0.055   4.108   2.912  0.3962 -0.4007 -0.3933
   15MOL   C68017508   7.755   4.013   2.814 -0.2175 -0.4121  0.5271
   15MOL   C68117509   0.115   3.909   2.769 -0.0781 -0.4112 -0.0759
   15MOL   C68217510   0.088   3.816   2.649 -0.4930 -0.0315 -0.5199
   15MOL   C68317511   0.119   3.876   2.509 -0.8939 -0.1212  0.1221
   15MOL   C68417512   0.265   3.917   2.484 -0.4665 -0.5489  0.1079
   15MOL   O68517513   0.350   3.833   2.455  0.2299 -0.0080  0.1597
   15MOL   H68617514   6.893   4.951   3.131  2.3403 -0.1699  1.1674
   15MOL   H68717515   6.933   5.075   3.015 -0.6077  0.2466  1.2020
   15MOL   H68817516   6.973   5.223   3.201  1.2394  0.2738 -0.6741
   15MOL   H68917517   6.901   5.107   3.309 -0.3591 -2.1917 -0.9060
   15MOL   H69017518   7.117   4.964   3.282 -0.9736 -0.5831  0.6584
   15MOL   H69117519   7.166   5.076   3.168  0.2475  3.8506  0.3873
   15MOL   H69217520   7.181   5.263   3.349 -2.0282  1.0827  2.4238
   15MOL   H69317521   7.100   5.177   3.463  0.5999  0.5288  0.1640
   15MOL   H69417522   7.294   5.005   3.487  1.6865 -0.3846 -0.1493
   15MOL   H69517523   7.328   5.170   3.526  0.1404  0.0925 -0.6583
   15MOL   H69617524   7.439   5.213   3.307  1.5741 -0.6445  1.4273
   15MOL   H69717525   7.389   5.050   3.254 -0.5626  1.5956 -1.4821
   15MOL   H69817526   7.580   5.117   3.495  1.6236  0.2190  0.4648
   15MOL   H69917527   7.639   5.104   3.334  0.3227  2.0900  2.1194
   15MOL   H70017528   7.495   4.887   3.496 -0.5301 -1.0252 -1.6716
   15MOL   H70117529   7.667   4.889   3.481 -1.3480 -1.6953  1.1967
   15MOL   H70217530   7.483   4.806   3.278 -0.5474  1.8122  3.2735
   15MOL   H70317531   7.643   4.853   3.226 -0.0232 -0.3709 -0.3568
   15MOL   H70417532   7.725   4.683   3.407 -0.4693  0.1265  0.2936
   15MOL   H70517533   7.560   4.631   3.422 -0.1281 -0.3033 -0.2670
   15MOL   H70617534   7.679   4.492   3.005 -0.4616  0.2143  0.6620
   15MOL   H70717535   7.557   4.384   3.075  0.0480 -0.9685 -1.8607
   15MOL   H70817536   0.024   4.246   3.136 -1.0780 -0.5329 -0.2649
   15MOL   H70917537   0.100   4.355   3.032 -0.9156  0.8916  0.3938
   15MOL   H71017538   7.695   4.277   2.850 -2.1265  0.9176  0.9648
   15MOL   H71117539   7.608   4.178   2.970 -0.0960 -0.4835  0.9589
   15MOL   H71217540   0.072   4.067   3.012  0.1184  0.6763  0.1027
   15MOL   H71317541   0.143   4.152   2.864 -0.3964  1.4050 -0.2149
   15MOL   H71417542   7.662   3.962   2.841 -0.9676  1.5345  1.6991
   15MOL   H71517543   7.724   4.074   2.730  0.6968 -0.9615 -0.2177
   15MOL   H71617544   0.211   3.954   2.744  0.8128 -1.5373  1.2319
   15MOL   H71717545   0.125   3.835   2.848  1.9167  0.9665  1.0079
   15MOL   H71817546   7.743   3.780   2.658 -0.8766  0.7473 -1.5927
   15MOL   H71917547   0.145   3.724   2.657 -1.4993 -0.5637  0.4543
   15MOL   H72017548   0.096   3.806   2.428  0.2103 -1.3142  0.8134
   15MOL   H72117549   0.056   3.965   2.504 -1.3115 -0.3787  0.7871
   15MOL   O72217550   0.290   4.050   2.481  0.1323 -0.3985 -0.4919
   15MOL   C72317551   0.418   4.098   2.451  0.4704  0.2920  0.5124
   15MOL   C72417552   0.425   4.169   2.311  0.2951 -0.2762 -0.1445
   15MOL   C72517553   0.319   4.282   2.293 -0.6223 -0.4415  0.2345
   15MOL   C72617554   0.339   4.391   2.184  0.4736  0.0597 -0.5440
   15MOL   C72717555   0.244   4.515   2.195  0.4313 -0.0915 -0.4346
   15MOL   C72817556   0.109   4.494   2.124 -0.3765 -0.0256 -0.2724
   15MOL   C72917557   0.006   4.614   2.140 -0.0182  0.0063  0.6623
   15MOL   C73017558   7.623   4.582   2.095 -1.1441 -0.0786 -0.0139
   15MOL   C73117559   7.517   4.686   2.115  0.0639 -0.5013  0.3396
   15MOL   C73217560   7.397   4.651   2.029 -0.0407  0.1351 -0.2315
   15MOL   O73317561   7.357   4.519   2.055 -0.2537  0.3148  0.1268
   15MOL   C73417562   7.270   4.474   2.148 -0.1416  0.2932  0.5738
   15MOL   O73517563   7.193   4.548   2.207  0.5156 -0.4062 -0.2112
   15MOL   C73617564   7.266   4.321   2.155  1.0786 -0.1584 -0.1378
   15MOL   C73717565   7.397   4.252   2.204 -0.3730 -0.3757 -0.1854
   15MOL   C73817566   7.408   4.263   2.357 -0.3126 -0.4499 -0.3634
   15MOL   C73917567   7.527   4.188   2.423 -0.1557 -0.4204  0.1201
   15MOL   C74017568   7.662   4.253   2.417 -0.1505  1.1992  0.3734
   15MOL   C74117569   7.662   4.385   2.511  0.3605  0.3702 -0.8710
   15MOL   C74217570   0.045   4.460   2.523 -0.2940 -0.1532  0.2105
   15MOL   C74317571   0.034   4.572   2.630  0.3494  0.1446 -0.2614
   15MOL   C74417572   7.722   4.694   2.573  0.6751  0.2304 -0.3807
   15MOL   O74517573   0.007   4.755   2.475  0.3685  0.2227  0.2118
   15MOL   H74617574   0.444   4.171   2.527 -1.1164 -0.0199  1.3710
   15MOL   H74717575   0.495   4.021   2.455  1.7563  1.5391  0.2847
   15MOL   H74817576   0.524   4.212   2.306  0.4112 -0.6402 -1.1152
   15MOL   H74917577   0.417   4.088   2.237 -0.5238 -0.4764  0.1551
   15MOL   H75017578   0.229   4.221   2.290 -0.8950 -0.2979  3.4291
   15MOL   H75117579   0.316   4.333   2.389  0.1908 -0.2319  0.1581
   15MOL   H75217580   0.441   4.421   2.211  0.4218  0.8210 -1.1868
   15MOL   H75317581   0.330   4.350   2.084 -0.1315 -1.0416 -0.0497
   15MOL   H75417582   0.300   4.596   2.149  0.5110  0.2338  0.2274
   15MOL   H75517583   0.236   4.550   2.298 -2.2111  2.7649 -1.5435
   15MOL   H75617584   0.060   4.402   2.155 -0.0200 -0.5814 -1.3083
   15MOL   H75717585   0.149   4.483   2.023 -0.2273 -1.2427 -0.0891
   15MOL   H75817586   0.045   4.696   2.080 -0.2926  0.4685  1.1059
   15MOL   H75917587   0.004   4.664   2.237 -4.1639 -0.7067  1.0184
   15MOL   H76017588   7.598   4.495   2.155  0.9825 -1.8433 -1.5659
   15MOL   H76117589   7.634   4.537   1.996 -3.3023 -1.2633  0.2536
   15MOL   H76217590   7.487   4.677   2.219  2.0232 -0.3368  0.9449
   15MOL   H76317591   7.568   4.780   2.096  0.1756 -0.8652 -1.2776
   15MOL   H76417592   7.315   4.718   2.055 -1.0996 -1.1958 -0.0563
   15MOL   H76517593   7.415   4.669   1.923  1.6370  1.7262  0.3069
   15MOL   H76617594   7.227   4.285   2.060  1.9430  0.2701 -0.6629
   15MOL   H76717595   7.189   4.298   2.229  0.6390 -0.6663 -0.7487
   15MOL   H76817596   7.476   4.302   2.148 -1.3145 -0.8110 -1.9455
   15MOL   H76917597   7.409   4.146   2.183  2.7316 -0.1398  0.1567
   15MOL   H77017598   7.316   4.226   2.401 -0.4572  0.3592  0.0285
   15MOL   H77117599   7.404   4.370   2.378  2.3311 -0.3635 -0.1679
   15MOL   H77217600   7.552   4.092   2.379  0.0631  0.4220 -1.6553
   15MOL   H77317601   7.498   4.169   2.526 -0.1261  0.3197  0.2683
   15MOL   H77417602   7.735   4.185   2.461 -0.8031 -0.2440 -0.7293
   15MOL   H77517603   7.685   4.278   2.313  0.1226  0.9008  0.3611
   15MOL   H77617604   7.586   4.451   2.469 -0.8719  0.1834  1.0362
   15MOL   H77717605   7.622   4.352   2.606 -1.9303  0.6788 -1.6866
   15MOL   H77817606   0.075   4.487   2.422  1.9434 -0.5447  0.7492
   15MOL   H77917607   0.116   4.387   2.561  0.7928  0.7972  0.0272
   15MOL   H78017608   7.753   4.529   2.722  1.6789 -1.1506 -0.2977
   15MOL   H78117609   0.139   4.594   2.649  1.3767 -3.0019 -1.8881
   15MOL   O78217610   7.613   4.736   2.645  0.1801 -0.7826  0.1499
   15MOL   C78317611   7.525   4.830   2.592 -0.3068  0.0290 -0.0582
   15MOL   C78417612   7.539   4.956   2.687  0.3576  0.2155 -0.4116
   15MOL   C78517613   7.669   5.042   2.675  0.6576 -0.8521 -0.2608
   15MOL   C78617614   7.661   5.151   2.773 -0.6737  0.3828  0.3721
   15MOL   C78717615   0.019   5.250   2.753  0.6699 -0.2016  0.5509
   15MOL   C78817616   0.007   5.364   2.852 -0.0759  0.1548 -0.0371
   15MOL   C78917617   0.129   5.466   2.856 -0.4167 -0.6521 -0.7381
   15MOL   C79017618   0.133   5.551   2.979 -0.1982  0.1549 -0.2236
   15MOL   C79117619   0.261   5.635   3.009 -0.3416 -0.0737 -0.1808
   15MOL   C79217620   0.245   5.727   3.134  0.5407 -0.0338  0.8042
   15MOL   O79317621   0.224   5.651   3.252  0.0401 -0.3647 -0.3717
   15MOL   C79417622   0.247   5.701   3.368 -0.3338 -0.3614  0.9451
   15MOL   O79517623   0.298   5.805   3.399 -0.1888  0.3767  0.0621
   15MOL   C79617624   0.209   5.606   3.481  0.2915  0.6381 -0.2745
   15MOL   C79717625   0.119   5.653   3.602 -0.0019  0.0997  0.5235
   15MOL   C79817626   0.068   5.528   3.670 -0.1888 -0.4519 -0.4207
   15MOL   C79917627   7.724   5.539   3.792 -0.7352 -0.6345  0.5052
   15MOL   C80017628   7.703   5.395   3.854 -0.0770  0.0020  0.2930
   15MOL   C80117629   7.637   5.410   3.998 -0.5475  0.2427 -0.5213
   15MOL   C80217630   7.503   5.489   4.005 -0.1380  0.0903 -0.5027
   15MOL   C80317631   7.461   5.501   4.160  0.5688  0.3221  0.5842
   15MOL   C80417632   7.316   5.509   4.188  0.4027  0.4508  0.5774
   15MOL   O80517633   7.263   5.428   4.261 -0.3144  0.3503 -0.1516
   15MOL   H80617634   7.547   4.860   2.490  1.9079 -0.7864  0.1467
   15MOL   H80717635   7.431   4.774   2.600 -0.2508 -0.3449 -1.9231
   15MOL   H80817636   7.449   5.014   2.666  0.5797 -0.1187 -2.3326
   15MOL   H80917637   7.529   4.926   2.791 -1.6222  3.2191  0.3236
   15MOL   H81017638   7.750   4.970   2.682 -0.6661 -2.1128  3.1417
   15MOL   H81117639   7.687   5.093   2.581 -0.0122  1.0531  0.6239
   15MOL   H81217640   7.567   5.205   2.756 -0.9417 -0.8630 -2.4422
   15MOL   H81317641   7.666   5.108   2.873 -0.9495  0.4101  0.3976
   15MOL   H81417642   0.012   5.296   2.654  0.3570  0.3106  0.8074
   15MOL   H81517643   0.117   5.205   2.767  1.3207  2.2548  4.6251
   15MOL   H81617644   7.752   5.310   2.946  2.5864  0.3412  0.4196
   15MOL   H81717645   7.673   5.425   2.846 -0.2339  0.0468  1.1090
   15MOL   H81817646   0.131   5.537   2.773  0.7575  2.4754  1.8929
   15MOL   H81917647   0.219   5.404   2.852 -1.6872 -2.6066  0.2271
   15MOL   H82017648   0.118   5.481   3.061  1.2610  0.8367  0.6312
   15MOL   H82117649   0.039   5.607   2.981 -0.8345 -0.8105 -1.8476
   15MOL   H82217650   0.348   5.570   3.022  0.9888  1.7403  0.2408
   15MOL   H82317651   0.288   5.693   2.921 -0.8641 -0.6848 -0.7524
   15MOL   H82417652   0.331   5.789   3.159  1.0397 -0.7066  0.7866
   15MOL   H82517653   0.156   5.789   3.128 -0.5253 -1.6306 -0.1679
   15MOL   H82617654   0.299   5.565   3.525  0.2295  1.0178  0.2167
   15MOL   H82717655   0.159   5.527   3.425  0.2646  0.1545  0.4217
   15MOL   H82817656   0.029   5.703   3.567 -0.5220  0.7240  2.6891
   15MOL   H82917657   0.171   5.709   3.680 -2.6349  1.5743  1.2808
   15MOL   H83017658   0.149   5.476   3.722  0.8675  1.2015 -0.3734
   15MOL   H83117659   0.025   5.456   3.601  0.6377 -0.2608 -1.1326
   15MOL   H83217660   7.625   5.563   3.754 -0.5356  0.5217  0.6843
   15MOL   H83317661   7.749   5.613   3.869 -1.4843  1.7935 -1.5372
   15MOL   H83417662   7.654   5.323   3.788  2.3043  1.0866 -2.8126
   15MOL   H83517663   0.046   5.353   3.870  1.1253  2.6113 -0.0966
   15MOL   H83617664   7.619   5.310   4.038  1.7597  0.4030  1.0102
   15MOL   H83717665   7.699   5.467   4.067  0.2698  1.1011 -1.9445
   15MOL   H83817666   7.423   5.437   3.953 -1.9798  0.8938  1.4566
   15MOL   H83917667   7.509   5.586   3.955  0.4921 -0.2822 -1.1695
   15MOL   H84017668   7.497   5.413   4.214  0.1552  1.6605  3.1203
   15MOL   H84117669   7.519   5.583   4.200 -0.6387  3.4915 -3.8202
   15MOL   O84217670   7.256   5.615   4.132 -0.4389  0.1438 -0.0574
   15MOL   C84317671   7.120   5.648   4.153 -0.0951  0.4965  0.6737
   15MOL   C84417672   7.065   5.697   4.021  0.4043  0.0787 -0.2077
   15MOL   C84517673   6.927   5.762   4.027 -0.2252 -0.3024 -0.6795
   15MOL   C84617674   6.882   5.819   3.897 -0.4241 -0.4711  0.0676
   15MOL   C84717675   6.980   5.934   3.852 -0.4749  0.3255 -0.4685
   15MOL   C84817676   6.922   6.018   3.742 -0.1312 -0.7431 -1.2176
   15MOL   C84917677   7.031   6.107   3.666 -0.2316 -0.7452 -0.9748
   15MOL   C85017678   6.953   6.189   3.560 -0.2540  0.0574  0.4080
   15MOL   C85117679   7.036   6.317   3.515 -0.4477  0.1188  0.0850
   15MOL   C85217680   6.943   6.402   3.415 -0.9923  0.1674 -0.1435
   15MOL   O85317681   6.985   6.531   3.412 -0.3322 -0.1632 -0.1497
   15MOL   C85417682   6.947   6.614   3.312  0.2793 -0.3203  0.3580
   15MOL   O85517683   6.888   6.585   3.212 -0.1305 -0.0524  0.8316
   15MOL   C85617684   6.992   6.751   3.338 -0.1874 -0.3903 -0.3176
   15MOL   C85717685   7.138   6.772   3.309 -0.4182 -0.1702  0.4230
   15MOL   C85817686   7.169   6.799   3.162  0.2006  0.0208 -0.0743
   15MOL   C85917687   7.314   6.809   3.118  0.5931  0.1767  0.2206
   15MOL   C86017688   7.325   6.819   2.962 -0.0984  0.3051  0.2784
   15MOL   C86117689   7.267   6.936   2.889 -0.6736  0.4035 -0.0166
   15MOL   C86217690   7.278   6.924   2.740 -0.0257 -1.2852  0.3630
   15MOL   C86317691   7.424   6.947   2.684 -0.1375 -0.2745 -0.1378
   15MOL   C86417692   7.426   6.995   2.536  1.2109  1.2078  0.4612
   15MOL   O86517693   7.337   7.062   2.481 -0.3237 -0.3675 -0.2210
   15MOL   H86617694   7.066   5.564   4.197 -0.6998  1.9136  2.7583
   15MOL   H86717695   7.112   5.732   4.222  1.1458  0.6669  0.6052
   15MOL   H86817696   7.128   5.785   4.002  1.7606 -0.5313  1.3580
   15MOL   H86917697   7.066   5.622   3.942 -0.2246  1.3383 -1.4490
   15MOL   H87017698   6.858   5.683   4.056 -1.9933  1.2349 -0.5873
   15MOL   H87117699   6.923   5.830   4.112 -0.9320 -0.4852 -0.5630
   15MOL   H87217700   6.885   5.751   3.812 -2.1620 -1.3648  0.6956
   15MOL   H87317701   6.780   5.859   3.899 -0.2573 -0.0662  1.1616
   15MOL   H87417702   7.080   5.899   3.827 -1.2495 -2.0004 -0.3585
   15MOL   H87517703   7.006   6.009   3.927 -0.2147 -1.7250  1.5374
   15MOL   H87617704   6.844   6.080   3.785 -1.5762 -3.0151 -0.4987
   15MOL   H87717705   6.874   5.945   3.677  0.6249 -0.4533 -2.1264
   15MOL   H87817706   7.098   6.039   3.614 -1.2606 -2.3138 -0.3013
   15MOL   H87917707   7.089   6.169   3.735  0.0289  0.7883 -2.5158
   15MOL   H88017708   6.867   6.231   3.613 -1.4483 -1.3510 -0.3617
   15MOL   H88117709   6.926   6.141   3.466  0.4787  2.2405 -0.9546
   15MOL   H88217710   7.059   6.388   3.595 -0.3044 -1.6247  1.6363
   15MOL   H88317711   7.136   6.297   3.478  0.0011  1.6574  0.4431
   15MOL   H88417712   6.947   6.351   3.319 -1.6108 -0.6775  0.2692
   15MOL   H88517713   6.838   6.404   3.441 -0.4004 -0.3532  2.4049
   15MOL   H88617714   6.968   6.782   3.440 -0.8725  2.6873 -1.3643
   15MOL   H88717715   6.935   6.832   3.292  1.5773  0.6007 -0.8171
   15MOL   H88817716   7.194   6.686   3.345  1.3628  0.3582 -0.9773
   15MOL   H88917717   7.171   6.856   3.370 -0.1635  0.0180  0.0279
   15MOL   H89017718   7.114   6.890   3.139  2.7306  1.7024  0.3936
   15MOL   H89117719   7.120   6.721   3.103 -0.5774  0.3832  0.0885
   15MOL   H89217720   7.359   6.717   3.152  0.8598  0.0102 -0.5802
   15MOL   H89317721   7.367   6.889   3.170 -1.0917  2.6156 -1.6514
   15MOL   H89417722   7.430   6.821   2.934 -0.8563  1.0713 -2.6846
   15MOL   H89517723   7.293   6.725   2.917 -0.4512  0.8958 -0.7411
   15MOL   H89617724   7.162   6.928   2.917 -0.7673 -1.5156 -0.8267
   15MOL   H89717725   7.315   7.027   2.925 -1.0423  0.0304  1.4194
   15MOL   H89817726   7.225   7.003   2.686  3.1504 -0.6412 -1.9285
   15MOL   H89917727   7.236   6.828   2.708  0.0453 -1.2457  0.1469
   15MOL   H90017728   7.472   7.030   2.735 -0.7141 -0.5508  0.8529
   15MOL   H90117729   7.489   6.859   2.693  0.8760  0.6318  1.7738
   15MOL   O90217730   7.533   6.960   2.461 -0.2433 -0.4950  0.1730
   15MOL   C90317731   7.537   7.009   2.328  0.5882  0.3206  0.0476
   15MOL   C90417732   7.637   7.127   2.329  0.4074  0.2001  0.1072
   15MOL   C90517733   7.668   7.186   2.194  0.2101 -0.8946 -0.3140
   15MOL   C90617734   0.008   7.309   2.204 -0.4460  0.1773 -0.1483
   15MOL   C90717735   0.100   7.321   2.079 -0.0207 -0.0366  0.1348
   15MOL   C90817736   0.024   7.347   1.949 -0.6535  0.1469  0.3883
   15MOL   C90917737   0.109   7.365   1.819 -0.5065 -0.0863 -0.2609
   15MOL   C91017738   0.180   7.233   1.778 -0.4132 -0.4559 -0.2463
   15MOL   C91117739   0.254   7.251   1.646 -0.6672 -0.4153  0.4823
   15MOL   C91217740   0.357   7.132   1.616  0.5175 -0.8267  0.1697
   15MOL   O91317741   0.268   7.024   1.574 -0.2674 -0.4029  0.0463
   15MOL   C91417742   0.260   6.911   1.647 -0.4353 -0.2779 -0.7483
   15MOL   O91517743   0.302   6.889   1.763  0.2888  0.4221  0.0122
   15MOL   C91617744   0.193   6.792   1.573  0.0599  0.0332 -0.1698
   15MOL   C91717745   0.095   6.828   1.467 -0.0375 -0.2308 -0.1738
   15MOL   C91817746   0.034   6.713   1.379 -0.1702  0.4098  0.2122
   15MOL   C91917747   7.672   6.755   1.292  0.1130 -0.6819 -0.5876
   15MOL   C92017748   7.540   6.699   1.345  0.0375 -0.5044 -0.2855
   15MOL   C92117749   7.413   6.762   1.281  1.0059 -0.2189 -0.2857
   15MOL   C92217750   7.276   6.702   1.332 -0.6459  0.2945  0.3773
   15MOL   C92317751   7.154   6.767   1.262 -0.1859 -0.3862  1.0700
   15MOL   C92417752   7.135   6.708   1.112 -0.5274 -0.6715 -0.0654
   15MOL   O92517753   7.216   6.624   1.066 -0.2010 -0.0263  0.2169
   15MOL   H92617754   7.570   6.933   2.257 -2.0862 -0.1101 -0.7874
   15MOL   H92717755   7.444   7.040   2.281  0.3208 -1.2573 -0.4934
   15MOL   H92817756   7.591   7.203   2.392 -0.3441  0.1651 -0.3869
   15MOL   H92917757   7.729   7.093   2.376 -1.4178 -1.6090  2.5121
   15MOL   H93017758   7.713   7.112   2.128 -2.1048 -0.6903 -2.1773
   15MOL   H93117759   7.582   7.221   2.137  0.6060 -0.0541 -0.4093
   15MOL   H93217760   7.706   7.397   2.229 -0.3516 -0.2195  1.4978
   15MOL   H93317761   0.076   7.294   2.288 -0.3005  0.7872 -0.1560
   15MOL   H93417762   0.148   7.224   2.080 -0.2460 -0.1501  1.8226
   15MOL   H93517763   0.178   7.396   2.095 -2.0341  2.3612 -0.8113
   15MOL   H93617764   7.737   7.444   1.973 -1.8476 -0.2563 -0.1297
   15MOL   H93717765   7.701   7.272   1.949  0.9350 -1.5875 -0.4700
   15MOL   H93817766   0.178   7.450   1.819 -0.9537  0.2940  0.8617
   15MOL   H93917767   0.031   7.401   1.753  0.8398  2.3671 -0.5764
   15MOL   H94017768   0.110   7.152   1.759 -0.0321 -0.4908 -1.4926
   15MOL   H94117769   0.248   7.198   1.856  2.4098  1.8860 -1.5608
   15MOL   H94217770   0.177   7.253   1.569 -0.4383  1.3516  0.2853
   15MOL   H94317771   0.323   7.335   1.640 -1.4594  0.3560  1.8017
   15MOL   H94417772   0.415   7.146   1.525 -1.4913  0.4987 -0.9456
   15MOL   H94517773   0.423   7.101   1.696  0.5740  0.3185  0.5756
   15MOL   H94617774   0.138   6.741   1.652  0.9029  0.1878  0.5166
   15MOL   H94717775   0.274   6.730   1.537  0.3707 -0.2740  1.0371
   15MOL   H94817776   0.133   6.898   1.393 -1.5212 -0.9391 -1.6298
   15MOL   H94917777   0.015   6.881   1.519  2.0016  3.1226 -0.2615
   15MOL   H95017778   0.006   6.630   1.444 -0.5314  0.4818  0.1501
   15MOL   H95117779   0.123   6.690   1.320 -0.5283 -0.1943 -0.0921
   15MOL   H95217780   7.681   6.709   1.193  0.1686  0.6894 -1.2365
   15MOL   H95317781   7.674   6.863   1.275 -0.2013 -0.3626  1.2944
   15MOL   H95417782   7.528   6.593   1.322 -0.9998  0.3107 -3.6963
   15MOL   H95517783   7.531   6.717   1.453  0.8567  3.0523 -0.7510
   15MOL   H95617784   7.423   6.861   1.325  1.5672  0.1072 -1.1252
   15MOL   H95717785   7.424   6.769   1.172  0.7352  0.2616 -0.2841
   15MOL   H95817786   7.269   6.726   1.438 -0.8375  0.0232  0.4265
   15MOL   H95917787   7.274   6.595   1.315 -2.6565  0.3498  0.2415
   15MOL   H96017788   7.062   6.738   1.312  0.4497 -0.0043  2.4955
   15MOL   H96117789   7.159   6.874   1.245  1.9637 -0.8699 -1.7723
   15MOL   O96217790   7.012   6.740   1.060 -0.4743  0.2070 -0.0354
   15MOL   C96317791   6.971   6.665   0.953 -0.0426  0.3343 -0.1823
   15MOL   C96417792   6.896   6.540   1.014  0.1372  0.1467 -0.3622
   15MOL   C96517793   6.818   6.462   0.907  0.6774  0.1849 -0.0069
   15MOL   C96617794   6.764   6.322   0.948 -0.1463  0.0817  0.2090
   15MOL   C96717795   6.661   6.273   0.847  0.2078 -0.4370 -0.1879
   15MOL   C96817796   6.639   6.124   0.858  0.7041 -0.1019 -0.5199
   15MOL   C96917797   6.509   6.075   0.790  0.0502  0.5214  0.2696
   15MOL   C97017798   6.456   5.943   0.858 -0.1774 -0.0280 -0.2681
   15MOL   C97117799   6.356   5.872   0.768  0.0993  0.6115  0.4941
   15MOL   C97217800   6.287   5.757   0.848  0.3780  0.4537  0.0407
   15MOL   O97317801   6.241   5.662   0.751  0.2244  0.1344 -0.6606
   15MOL   C97417802   6.166   5.562   0.797 -0.8421  0.0940 -0.6220
   15MOL   O97517803   6.139   5.544   0.917  0.5395  0.3104 -0.1655
   15MOL   C97617804   6.120   5.459   0.694  0.0855 -0.5139  0.0335
   15MOL   C97717805   6.240   5.363   0.657 -0.2287  0.4835 -0.3310
   15MOL   C97817806   6.205   5.276   0.529  0.6546 -0.4338 -0.4130
   15MOL   C97917807   6.315   5.173   0.493 -0.0865  0.8099  1.8230
   15MOL   C98017808   6.283   5.090   0.368 -1.0344  0.0619  0.1807
   15MOL   C98117809   6.385   4.981   0.339 -0.1493  0.6488  0.1029
   15MOL   C98217810   6.358   4.920   0.200 -0.6509 -0.0277 -0.3554
   15MOL   C98317811   6.210   4.899   0.167 -0.2074 -0.2973 -0.2377
   15MOL   C98417812   6.138   4.776   0.225  0.0616 -0.3738 -0.0435
   15MOL   O98517813   6.200   4.701   0.305  0.3928  0.1864  0.2082
   15MOL   H98617814   6.895   6.719   0.896  0.0746  1.2590  0.5286
   15MOL   H98717815   7.058   6.641   0.893 -1.2421 -3.7451 -0.4669
   15MOL   H98817816   6.952   6.464   1.069 -0.6778  0.7661  1.3505
   15MOL   H98917817   6.823   6.568   1.089  0.4827 -1.5808  0.6546
   15MOL   H99017818   6.731   6.518   0.872 -0.8103 -0.1331  3.0382
   15MOL   H99117819   6.876   6.436   0.818 -2.3719 -0.8711 -1.7515
   15MOL   H99217820   6.834   6.238   0.950 -0.3457 -0.0760  0.7683
   15MOL   H99317821   6.713   6.325   1.045 -0.7653 -2.2061  0.0047
   15MOL   H99417822   6.701   6.296   0.748  0.3366 -0.9057 -0.2438
   15MOL   H99517823   6.572   6.332   0.867 -0.4925 -1.1589 -1.1219
   15MOL   H99617824   6.652   6.084   0.959  0.2173  1.1517  0.0487
   15MOL   H99717825   6.718   6.068   0.809  0.5014 -1.0606  0.2355
   15MOL   H99817826   6.524   6.062   0.683 -2.2546  1.0043 -0.1486
   15MOL   H99917827   6.434   6.154   0.800 -1.0448 -0.5710  0.9647
   15MOL     H117828   6.410   5.957   0.956  2.0511  0.6063  0.7400
   15MOL     H217829   6.538   5.879   0.890 -2.2505 -1.3984  2.5289
   15MOL     H317830   6.289   5.946   0.724  0.2842 -0.0552 -0.9572
   15MOL     H417831   6.416   5.839   0.683  1.0946  1.8476  0.7068
   15MOL     H517832   6.347   5.698   0.917 -1.2424 -1.3733 -0.0674
   15MOL     H617833   6.200   5.804   0.894 -0.6954  1.6876 -3.1150
   15MOL     H717834   6.098   5.511   0.601 -1.1347 -0.0105  0.5987
   15MOL     H817835   6.038   5.397   0.730 -0.3805 -0.0814 -0.2822
   15MOL     H917836   6.263   5.300   0.742  1.0419  1.8586  0.3548
   15MOL    H1017837   6.332   5.417   0.634 -0.0291  0.0342 -0.5911
   15MOL    H1117838   6.192   5.335   0.439 -0.6280  0.5421  0.3897
   15MOL    H1217839   6.111   5.223   0.550 -0.0814  0.6274 -1.0144
   15MOL    H1317840   6.324   5.106   0.579 -1.5752 -1.4500  0.2843
   15MOL    H1417841   6.412   5.222   0.491  1.1145 -1.5070  0.9815
   15MOL    H1517842   6.181   5.052   0.379 -0.8326 -1.1237 -1.9077
   15MOL    H1617843   6.283   5.153   0.279 -1.8911  0.5402  0.5159
   15MOL    H1717844   6.483   5.030   0.336  1.7075 -2.7961  1.3754
   15MOL    H1817845   6.396   4.912   0.423  0.1750  0.3909 -0.1494
   15MOL    H1917846   6.403   4.821   0.192 -1.0656 -0.3353  0.9931
   15MOL    H2017847   6.408   4.984   0.128  1.4020 -1.7171 -0.4828
   15MOL    H2117848   6.143   4.985   0.176 -1.3702 -0.7057 -4.1150
   15MOL    H2217849   6.199   4.896   0.059  0.3722  3.3451 -0.4530
   15MOL    O2317850   6.012   4.758   0.183 -0.1688 -0.6635  0.1639
   15MOL    C2417851   5.937   4.642   0.224  0.9865  0.2878  0.5176
   15MOL    C2517852   5.788   4.658   0.198  0.1288 -0.2729  0.1390
   15MOL    C2617853   5.733   4.775   0.285 -0.2330  0.0291 -0.8062
   15MOL    C2717854   5.579   4.780   0.298 -0.1740 -0.7745 -0.0037
   15MOL    C2817855   5.533   4.889   0.381 -0.1150  0.2956  1.0041
   15MOL    C2917856   5.385   4.906   0.404 -0.3417 -0.1070  0.4508
   15MOL    C3017857   5.307   4.923   0.275  0.0746  0.3687  0.4550
   15MOL    C3117858   5.163   4.974   0.310  0.1793  0.0049  0.3812
   15MOL    C3217859   5.048   4.956   0.203 -0.4708 -0.3188  0.2234
   15MOL    C3317860   4.910   5.009   0.249  0.6028  0.0783 -0.3254
   15MOL    O3417861   4.812   5.006   0.137  0.0968  0.1903  0.5308
   15MOL    C3517862   4.746   4.896   0.107 -0.3071 -0.4501  1.1677
   15MOL    O3617863   4.774   4.789   0.152 -0.6031  0.8091  0.7247
   15MOL    C3717864   4.624   4.928   0.018  0.2144 -0.3166 -0.2392
   15MOL    C3817865   4.493   4.915   0.102 -0.1416 -0.1514 -0.1110
   15MOL    C3917866   4.490   4.995   0.230  0.4539 -0.2086  0.3957
   15MOL    C4017867   4.490   5.149   0.195  1.0197  0.8205 -0.3339
   15MOL    C4117868   4.344   5.187   0.141 -0.2783 -0.4621 -0.4888
   15MOL    C4217869   4.321   5.337   0.152  0.3130 -0.3083  0.1975
   15MOL    C4317870   4.179   5.377   0.093 -0.8619  0.0519  0.9290
   15MOL    C4417871   4.143   5.529   0.122 -0.7235 -0.5365 -0.2084
   15MOL    C4517872   4.074   5.603   0.006  0.1428  0.4421 -0.0456
   15MOL    O4617873   3.987   5.686   0.031 -0.1186  0.2182  0.8278
   15MOL    H4717874   5.978   4.554   0.174 -1.5794  0.5487 -2.1884
   15MOL    H4817875   5.952   4.622   0.330 -1.5021  0.5708  0.9531
   15MOL    H4917876   5.779   4.691   0.094 -0.0289 -0.1601  0.1877
   15MOL    H5017877   5.738   4.565   0.222 -0.3661 -0.1048 -0.2288
   15MOL    H5117878   5.780   4.775   0.383  1.6118  0.9989 -1.6630
   15MOL    H5217879   5.783   4.861   0.241 -0.7950  1.0773  0.5675
   15MOL    H5317880   5.538   4.784   0.197 -0.7541 -0.7057  0.2333
   15MOL    H5417881   5.540   4.690   0.345  0.9890 -1.0561  0.4567
   15MOL    H5517882   5.573   4.982   0.339 -1.3618  0.7711  0.8443
   15MOL    H5617883   5.581   4.880   0.478  2.3462 -2.5918 -0.4089
   15MOL    H5717884   5.372   4.999   0.461  0.4491 -0.6273  1.5106
   15MOL    H5817885   5.335   4.836   0.471 -1.1758 -0.0492 -0.1029
   15MOL    H5917886   5.305   4.825   0.227  0.6198 -1.3664  3.8028
   15MOL    H6017887   5.356   4.999   0.214 -0.7139 -0.0332 -0.6853
   15MOL    H6117888   5.163   5.082   0.324 -1.0093  0.4596 -2.7660
   15MOL    H6217889   5.129   4.926   0.402 -2.4719 -1.8479 -1.4759
   15MOL    H6317890   5.081   5.011   0.115 -0.6430 -0.5574  0.0088
   15MOL    H6417891   5.040   4.853   0.169 -1.7419  0.0533 -0.6309
   15MOL    H6517892   4.885   4.941   0.331 -0.9511  2.6285  1.3939
   15MOL    H6617893   4.920   5.109   0.291 -2.8719  1.0866 -1.7202
   15MOL    H6717894   4.621   4.858   7.691  2.0986 -0.4620 -0.2065
   15MOL    H6817895   4.641   5.030   7.738  1.9399  0.4124  2.4178
   15MOL    H6917896   4.470   4.812   0.131  1.0351 -0.6718 -0.9927
   15MOL    H7017897   4.409   4.956   0.046 -0.8962 -1.4997  0.0081
   15MOL    H7117898   4.570   4.974   0.301  1.9337 -0.0669 -1.1937
   15MOL    H7217899   4.403   4.970   0.290 -0.5839 -0.4762 -1.1748
   15MOL    H7317900   4.575   5.173   0.132  1.0280  1.2137 -0.1728
   15MOL    H7417901   4.501   5.218   0.279 -0.3779  1.4261 -0.6265
   15MOL    H7517902   4.338   5.166   0.034  0.9603  0.1674 -0.7006
   15MOL    H7617903   4.269   5.121   0.186  0.2628 -1.6629 -1.3170
   15MOL    H7717904   4.329   5.371   0.256 -0.7331 -0.7375  0.4268
   15MOL    H7817905   4.396   5.395   0.099  1.2556 -0.1404  1.6902
   15MOL    H7917906   4.099   5.314   0.130 -1.4281  0.7320  0.8830
   15MOL    H8017907   4.177   5.359   7.742  2.7720 -2.5850  1.2064
   15MOL    H8117908   4.085   5.537   0.213 -1.0342 -2.7166 -0.1803
   15MOL    H8217909   4.234   5.588   0.129 -0.9929  0.1417 -2.0502
   15MOL    O8317910   4.130   5.580   7.645 -0.2805  0.4291  0.6666
   15MOL    C8417911   4.082   5.645   7.534 -0.7714 -1.5207  0.0225
   15MOL    C8517912   3.986   5.550   7.459 -0.1101  0.3425  0.7826
   15MOL    C8617913   3.863   5.497   7.533 -0.4758  0.7836 -0.3608
   15MOL    C8717914   3.769   5.422   7.441 -0.1344  0.6132  0.1200
   15MOL    C8817915   3.655   5.361   7.513 -0.6140  0.0115  0.1148
   15MOL    C8917916   3.539   5.320   7.433  0.3822 -0.2702  0.1073
   15MOL    C9017917   3.451   5.427   7.362  0.1144 -0.3059  0.1670
   15MOL    C9117918   3.334   5.351   7.303  0.5013 -0.2371  0.4659
   15MOL    C9217919   3.249   5.430   7.198  0.1708  0.6204 -0.0471
   15MOL    C9317920   3.144   5.337   7.128 -0.3916  0.5040 -0.2797
   15MOL    O9417921   3.018   5.401   7.140 -0.1560 -0.6693  0.0206
   15MOL    C9517922   2.931   5.374   7.242 -0.0177 -0.5948 -0.7079
   15MOL    O9617923   2.948   5.294   7.336 -0.0697  0.1345 -0.0763
   15MOL    C9717924   2.800   5.455   7.225  0.5704  0.2613  0.2353
   15MOL    C9817925   2.716   5.500   7.351 -0.4197 -0.1425  0.2944
   15MOL    C9917926   2.587   5.577   7.320 -0.3065 -0.2501  0.6065
   15MOL   C10017927   2.601   5.725   7.300  0.4931 -0.3471 -0.0070
   15MOL   C10117928   2.473   5.800   7.276  0.3426 -0.1019 -0.1625
   15MOL   C10217929   2.420   5.762   7.135  0.1005  1.3053  0.5980
   15MOL   C10317930   2.281   5.817   7.097  0.1609 -0.0570  0.8322
   15MOL   C10417931   2.215   5.760   6.973  0.1134 -0.5483 -0.6979
   15MOL   C10517932   2.281   5.782   6.834 -1.1691 -0.9908 -0.3757
   15MOL   O10617933   2.258   5.879   6.760 -0.3698 -0.1467  0.3786
   15MOL   H10717934   4.040   5.743   7.554  1.1893 -0.7876  0.6494
   15MOL   H10817935   4.165   5.669   7.469 -1.2022 -0.7440 -0.2489
   15MOL   H10917936   3.943   5.599   7.372  2.7671 -1.3582 -1.6505
   15MOL   H11017937   4.039   5.469   7.409 -0.2568  0.3877  0.5511
   15MOL   H11117938   3.890   5.427   7.612 -1.6075  0.6420 -0.0827
   15MOL   H11217939   3.815   5.582   7.582  0.5708  1.7084 -0.9284
   15MOL   H11317940   3.729   5.505   7.382 -0.1666  0.3453 -0.2402
   15MOL   H11417941   3.797   5.343   7.371 -1.8441 -0.0162  0.1315
   15MOL   H11517942   3.628   5.431   7.592 -1.4590  1.8146 -1.7194
   15MOL   H11617943   3.686   5.266   7.556  2.3383  1.6499  1.7751
   15MOL   H11717944   3.474   5.260   7.496  0.7681 -1.4082 -0.5598
   15MOL   H11817945   3.563   5.244   7.359  0.1090  0.3956 -0.6741
   15MOL   H11917946   3.512   5.474   7.284 -3.0048  1.7942 -1.1059
   15MOL   H12017947   3.417   5.506   7.428 -0.9630 -0.6657  0.0477
   15MOL   H12117948   3.276   5.313   7.387 -2.0855 -1.5713 -1.8694
   15MOL   H12217949   3.366   5.252   7.270  2.2780 -0.2958  2.2519
   15MOL   H12317950   3.212   5.524   7.238  0.5378 -0.1317  2.1392
   15MOL   H12417951   3.321   5.453   7.119 -0.3389  2.6341  0.0433
   15MOL   H12517952   3.173   5.332   7.023 -0.6889  0.1584 -0.3479
   15MOL   H12617953   3.149   5.236   7.169  2.6909  0.5048 -0.4802
   15MOL   H12717954   2.741   5.380   7.172  0.0408  0.7776  0.0886
   15MOL   H12817955   2.805   5.544   7.162 -0.6908  0.4763  0.4331
   15MOL   H12917956   2.769   5.534   7.440 -0.2669  1.3378 -0.3424
   15MOL   H13017957   2.688   5.399   7.380 -0.6831 -0.8066 -2.1422
   15MOL   H13117958   2.523   5.556   7.406  1.0099 -0.6341  1.5050
   15MOL   H13217959   2.536   5.527   7.237 -0.6144  0.4513  0.3696
   15MOL   H13317960   2.680   5.752   7.230 -1.2115  0.8282 -1.5174
   15MOL   H13417961   2.647   5.772   7.388  0.5041  0.2652 -0.3392
   15MOL   H13517962   2.407   5.779   7.361  0.8438  0.2691  0.3258
   15MOL   H13617963   2.487   5.908   7.282  1.4547 -0.2483 -0.0522
   15MOL   H13717964   2.493   5.788   7.058 -1.5400  0.3879 -1.2946
   15MOL   H13817965   2.396   5.656   7.138 -1.4629  1.6413  0.5348
   15MOL   H13917966   2.298   5.925   7.092  1.9002 -0.2624  1.8602
   15MOL   H14017967   2.219   5.794   7.184  0.5129  1.3227  1.4619
   15MOL   H14117968   2.198   5.652   6.975 -1.4159 -0.3148 -0.3717
   15MOL   H14217969   2.118   5.811   6.971  0.2349 -0.2393  1.0321
   15MOL   O14317970   2.348   5.683   6.792 -0.6787  0.0746 -0.0746
   15MOL   C14417971   2.408   5.683   6.663 -0.7327  0.3097 -0.1402
   15MOL   C14517972   2.441   5.534   6.633 -1.4009 -0.0803 -0.2866
   15MOL   C14617973   2.543   5.480   6.735 -0.1073  0.1458  0.3808
   15MOL   C14717974   2.587   5.333   6.695 -0.3573  0.0723  0.9092
   15MOL   C14817975   2.672   5.326   6.564  0.2438  0.7559  0.5714
   15MOL   C14917976   2.797   5.427   6.564  0.0215  0.5911 -0.3177
   15MOL   C15017977   2.907   5.384   6.665 -0.4195  0.0575  0.3282
   15MOL   C15117978   3.024   5.485   6.655  0.6692  0.4838 -0.1021
   15MOL   C15217979   3.144   5.445   6.737  0.0631 -0.2741 -0.2458
   15MOL   C15317980   3.236   5.565   6.747 -0.4406  0.1884 -0.1182
   15MOL   O15417981   3.350   5.520   6.805 -0.0177 -0.0424  0.2031
   15MOL   C15517982   3.447   5.463   6.728 -0.3747 -0.3233  0.9120
   15MOL   O15617983   3.452   5.449   6.607  0.4636  0.2042 -0.3869
   15MOL   C15717984   3.568   5.418   6.810  0.2753  0.2850 -0.3626
   15MOL   C15817985   3.565   5.274   6.836  0.0439 -0.1512  0.0119
   15MOL   C15917986   3.484   5.219   6.956  0.6625 -0.4153 -0.0683
   15MOL   C16017987   3.486   5.069   6.979 -0.4240  0.5854 -0.1848
   15MOL   C16117988   3.396   5.020   7.086 -0.6079 -0.2231 -0.2046
   15MOL   C16217989   3.407   4.868   7.112  0.4331  0.1518 -0.0526
   15MOL   C16317990   3.326   4.814   7.233 -0.1727 -0.0433 -0.5693
   15MOL   C16417991   3.375   4.679   7.284  0.5280 -0.8190  0.1245
   15MOL   C16517992   3.278   4.627   7.389  0.5954  0.1036 -0.2851
   15MOL   O16617993   3.167   4.587   7.359  0.3918 -0.0430  0.4587
   15MOL   H16717994   2.341   5.720   6.585 -0.1106 -0.9167 -1.2742
   15MOL   H16817995   2.497   5.746   6.665 -1.6389  1.5993  0.4613
   15MOL   H16917996   2.350   5.477   6.650 -1.9471  0.9339  0.1997
   15MOL   H17017997   2.476   5.531   6.529 -0.5819  1.1123 -0.0605
   15MOL   H17117998   2.635   5.535   6.753 -1.0217  2.4448 -1.6038
   15MOL   H17217999   2.495   5.469   6.832 -1.3169 -1.8107 -0.4026
   15MOL   H17318000   2.648   5.298   6.778  1.0639 -0.0571 -0.1793
   15MOL   H17418001   2.497   5.273   6.699 -0.5388  0.4269  2.3011
   15MOL   H17518002   2.607   5.350   6.480 -0.0998  0.6707  0.8136
   15MOL   H17618003   2.693   5.219   6.557  0.9596  1.0072 -1.5139
   15MOL   H17718004   2.768   5.531   6.581  1.8365  1.1114 -0.2835
   15MOL   H17818005   2.848   5.429   6.468  0.4778  1.6121 -0.0644
   15MOL   H17918006   2.951   5.287   6.640 -0.1212 -0.4002  2.4808
   15MOL   H18018007   2.870   5.365   6.766 -2.4603 -0.5334 -0.5009
   15MOL   H18118008   2.998   5.588   6.675  0.8146  0.5199 -0.0961
   15MOL   H18218009   3.065   5.497   6.555  0.4555 -2.1009 -0.5469
   15MOL   H18318010   3.115   5.410   6.836  0.7465  2.3512  0.9282
   15MOL   H18418011   3.204   5.366   6.690  0.1129 -0.1508 -0.3933
   15MOL   H18518012   3.253   5.621   6.655 -2.8951  1.2772  0.0319
   15MOL   H18618013   3.192   5.640   6.813 -0.3108  0.5225 -0.4098
   15MOL   H18718014   3.557   5.473   6.903 -2.4353 -0.0889 -0.4085
   15MOL   H18818015   3.656   5.431   6.747 -0.8376 -0.2973 -2.0804
   15MOL   H18918016   3.658   5.230   6.874  1.6825  2.9908 -0.2577
   15MOL   H19018017   3.536   5.226   6.742  3.2568 -0.2946 -0.9491
   15MOL   H19118018   3.380   5.238   6.926  0.4402  0.6758  1.3372
   15MOL   H19218019   3.497   5.279   7.045 -2.1775  2.6496 -1.6080
   15MOL   H19318020   3.585   5.040   7.012  0.4082  2.8123 -0.6423
   15MOL   H19418021   3.473   5.009   6.888 -1.7670 -0.5664  0.7403
   15MOL   H19518022   3.412   5.077   7.177  0.8698 -0.7011 -0.1646
   15MOL   H19618023   3.295   5.047   7.053  0.5162 -0.3025 -3.9687
   15MOL   H19718024   3.363   4.808   7.032 -0.7149 -1.9474  2.1152
   15MOL   H19818025   3.512   4.844   7.127  0.2306  0.0964  1.2780
   15MOL   H19918026   3.223   4.797   7.201 -0.7782  1.6928  0.4311
   15MOL   H20018027   3.310   4.883   7.316 -0.6128 -2.5704  1.5470
   15MOL   H20118028   3.372   4.609   7.200  0.1670  0.8751 -1.3086
   15MOL   H20218029   3.478   4.665   7.319  1.1806  2.8079 -0.1645
   15MOL   H20318030   3.317   4.615   7.490  0.4157  2.4099  0.0742
   16MOL     O118031   0.271   2.049   3.036  0.0945 -0.7185  0.6185
   16MOL     C218032   0.376   1.960   3.004 -0.4609 -0.7104 -1.2776
   16MOL     C318033   0.367   1.903   2.864 -0.3110  0.2354 -0.1349
   16MOL     C418034   0.498   1.818   2.835  0.3128 -0.5686 -0.3304
   16MOL     C518035   0.504   1.735   2.701  0.4146  0.3489  0.5032
   16MOL     C618036   0.637   1.660   2.703 -0.2509  0.1859  0.5735
   16MOL     C718037   0.671   1.576   2.581 -0.2376 -0.0793  0.6170
   16MOL     C818038   0.588   1.457   2.558 -0.3240 -0.2782  0.0129
   16MOL     C918039   0.592   1.412   2.409 -0.4957  0.5722  0.6523
   16MOL    C1018040   0.479   1.481   2.322  0.0085 -0.2777 -0.0365
   16MOL    C1118041   0.534   1.612   2.274 -0.4184  0.6136  0.4358
   16MOL    O1218042   0.458   1.672   2.174  0.5076 -0.0541  0.5785
   16MOL    C1318043   0.492   1.632   2.046 -0.5658  1.1837  0.9772
   16MOL    O1418044   0.567   1.545   2.010  0.2084  0.0059  0.2877
   16MOL    C1518045   0.402   1.696   1.938 -0.1103  0.1815  0.4544
   16MOL    C1618046   0.428   1.851   1.929 -0.3023 -0.1326  0.0266
   16MOL    C1718047   0.349   1.944   2.027  0.4213  0.6567 -0.1097
   16MOL    C1818048   0.428   1.993   2.151  0.1265  0.4102  0.9754
   16MOL    C1918049   0.345   2.067   2.257 -0.9403  0.1988 -0.2551
   16MOL    C2018050   0.242   1.981   2.340 -0.3968 -0.2093  0.0648
   16MOL    C2118051   0.181   2.062   2.461  0.1393 -0.0314  0.2817
   16MOL    C2218052   0.288   2.127   2.558 -0.0633  0.6092 -0.2862
   16MOL    C2318053   0.231   2.231   2.655 -0.0952  0.3585  0.0745
   16MOL    O2418054   0.257   2.236   2.775  0.8317  0.0979  0.3753
   16MOL    H2518055   0.474   2.003   3.027 -1.8031  0.4881  2.7029
   16MOL    H2618056   0.358   1.876   3.071  1.6563  0.2178  0.5130
   16MOL    H2718057   0.274   1.847   2.851  1.3169 -2.3505 -1.1779
   16MOL    H2818058   0.364   1.990   2.798 -0.2338  0.9453  0.7851
   16MOL    H2918059   0.585   1.881   2.855 -0.8346  1.7458 -2.3966
   16MOL    H3018060   0.503   1.741   2.912 -0.1001 -0.4875 -0.2211
   16MOL    H3118061   0.414   1.676   2.692 -0.4994  1.5869  1.3151
   16MOL    H3218062   0.509   1.796   2.611  0.1902  0.2629  0.4334
   16MOL    H3318063   0.628   1.582   2.778  0.9832  0.7966  1.3703
   16MOL    H3418064   0.720   1.721   2.740 -1.1079  3.0939 -2.0812
   16MOL    H3518065   0.770   1.533   2.592  0.6609  0.9214 -2.8403
   16MOL    H3618066   0.704   1.640   2.499  0.9113  0.1916  1.2715
   16MOL    H3718067   0.494   1.459   2.614  0.5626  1.5725  1.4911
   16MOL    H3818068   0.628   1.374   2.618  2.8562  0.6334 -0.7678
   16MOL    H3918069   0.565   1.306   2.406  2.1495 -0.1655  1.4195
   16MOL    H4018070   0.692   1.412   2.367 -1.0098  0.5522 -0.6122
   16MOL    H4118071   0.472   1.414   2.236  2.0825  2.3056 -2.3297
   16MOL    H4218072   0.393   1.491   2.388  0.1762 -0.2430  0.1773
   16MOL    H4318073   0.522   1.679   2.359 -0.7529 -0.6883  1.4427
   16MOL    H4418074   0.637   1.602   2.240 -0.1049  0.9683  1.2775
   16MOL    H4518075   0.303   1.677   1.979  0.2294 -1.4793  0.5223
   16MOL    H4618076   0.422   1.647   1.843  0.2299  2.7825 -0.8777
   16MOL    H4718077   0.382   1.874   1.833 -1.5216 -0.3526  0.5463
   16MOL    H4818078   0.537   1.853   1.918 -0.3605 -0.2547 -0.5525
   16MOL    H4918079   0.257   1.895   2.057 -0.1581  1.4297 -0.6244
   16MOL    H5018080   0.315   2.029   1.968 -1.4158  0.6507  0.9152
   16MOL    H5118081   0.502   2.060   2.109  0.3688 -0.7696 -0.5505
   16MOL    H5218082   0.487   1.912   2.194 -0.9109 -1.5216 -1.0969
   16MOL    H5318083   0.421   2.114   2.319 -1.4505  1.5396 -0.6104
   16MOL    H5418084   0.300   2.154   2.208  0.8831 -0.1325 -2.6123
   16MOL    H5518085   0.164   1.945   2.274 -0.6941 -0.9441  0.8186
   16MOL    H5618086   0.291   1.890   2.374 -2.1298 -0.4329  2.0396
   16MOL    H5718087   0.109   2.002   2.515  1.7036 -0.9807  1.3416
   16MOL    H5818088   0.108   2.135   2.426  0.6237 -0.0251 -0.7662
   16MOL    H5918089   0.343   2.052   2.614 -0.2149  1.4700  1.0432
   16MOL    H6018090   0.367   2.179   2.504  0.1229  0.1811 -0.4290
   16MOL    H6118091   0.255   2.115   2.971 -1.8093 -1.1056  0.6553
   16MOL    O6218092   0.135   2.305   2.589 -0.3227  0.5084 -0.3373
   16MOL    C6318093   0.068   2.409   2.655  0.0781  0.2013 -0.6733
   16MOL    C6418094   0.013   2.500   2.543  0.0105  0.1964 -0.5808
   16MOL    C6518095   7.703   2.624   2.613  0.2017 -0.7029  1.2509
   16MOL    C6618096   7.578   2.604   2.703  0.2607  0.2288  0.2928
   16MOL    C6718097   7.524   2.734   2.765  0.0032  0.8228 -0.4261
   16MOL    C6818098   7.414   2.723   2.874  1.0399 -0.3304  0.2739
   16MOL    C6918099   7.273   2.684   2.812 -0.3391  0.6867 -0.5311
   16MOL    C7018100   7.158   2.676   2.910 -0.2508  0.4092  0.0067
   16MOL    C7118101   7.158   2.554   3.001 -0.1188 -0.7729 -0.2526
   16MOL    C7218102   7.041   2.537   3.096 -1.0474  0.0558  0.8839
   16MOL    O7318103   6.922   2.555   3.021 -0.3122 -0.0274 -0.2152
   16MOL    C7418104   6.804   2.562   3.095  0.0740  0.1653 -0.1620
   16MOL    O7518105   6.794   2.538   3.217  0.3785 -0.0402  0.2455
   16MOL    C7618106   6.679   2.585   3.005  0.2190  0.2529 -0.7725
   16MOL    C7718107   6.677   2.699   2.902  0.4074 -0.3380  0.2330
   16MOL    C7818108   6.692   2.836   2.969 -0.2933 -0.5658  0.0722
   16MOL    C7918109   6.843   2.881   2.976  0.3653  0.1275  0.3571
   16MOL    C8018110   6.860   3.028   2.931 -0.3097 -0.7504  0.4753
   16MOL    C8118111   6.999   3.083   2.972 -0.7043 -0.4498  0.4045
   16MOL    C8218112   7.026   3.220   2.913  0.2299  0.2190  0.4914
   16MOL    C8318113   7.171   3.271   2.926 -0.6533 -0.3832  0.1407
   16MOL    C8418114   7.292   3.187   2.880  0.0227 -0.5408  0.0706
   16MOL    O8518115   7.282   3.086   2.809  0.3927  0.2870 -0.2456
   16MOL    H8618116   7.742   2.370   2.714  1.0679  0.2544  0.7805
   16MOL    H8718117   0.130   2.475   2.715 -1.8272  1.5351 -0.1429
   16MOL    H8818118   0.095   2.540   2.483 -1.0082  3.4456  0.1071
   16MOL    H8918119   7.712   2.452   2.464 -1.7874 -0.9120  1.3383
   16MOL    H9018120   0.031   2.664   2.668 -0.2383  2.7025 -0.4073
   16MOL    H9118121   7.680   2.699   2.538  1.5653  0.7690  2.2934
   16MOL    H9218122   7.500   2.549   2.651 -1.3042  1.8226  0.9004
   16MOL    H9318123   7.613   2.536   2.781  0.9231 -0.3565 -0.5132
   16MOL    H9418124   7.495   2.801   2.684 -1.8283  1.2702  0.5746
   16MOL    H9518125   7.606   2.787   2.815  0.9046 -1.6248  0.7590
   16MOL    H9618126   7.413   2.819   2.925  1.4551 -0.6400  0.8743
   16MOL    H9718127   7.448   2.650   2.948 -0.7595 -0.1340  1.3283
   16MOL    H9818128   7.274   2.585   2.767 -2.1638  0.6385 -0.5086
   16MOL    H9918129   7.241   2.750   2.731  2.8101  1.1419 -1.4686
   16MOL   H10018130   7.067   2.674   2.851 -1.3083 -1.8613  1.6307
   16MOL   H10118131   7.160   2.765   2.973 -0.7698 -0.6053  1.4892
   16MOL   H10218132   7.155   2.464   2.939 -1.5427 -1.0742  0.2453
   16MOL   H10318133   7.242   2.571   3.069  0.8342  1.3213 -1.9045
   16MOL   H10418134   7.030   2.434   3.131 -0.5709 -0.9318 -1.7999
   16MOL   H10518135   7.050   2.615   3.172 -1.0949  1.6581 -0.7341
   16MOL   H10618136   6.591   2.591   3.068  0.1477 -1.1496 -0.7108
   16MOL   H10718137   6.666   2.492   2.948 -1.4704  0.0090 -0.0201
   16MOL   H10818138   6.584   2.687   2.847  0.5998 -1.5677  0.1638
   16MOL   H10918139   6.760   2.684   2.834 -0.3006 -0.3573 -0.6338
   16MOL   H11018140   6.649   2.836   3.069  1.0485  1.9987  0.6973
   16MOL   H11118141   6.637   2.912   2.913 -1.1323 -0.2965  1.2643
   16MOL   H11218142   6.904   2.824   2.905 -1.9644 -1.6433 -0.3147
   16MOL   H11318143   6.888   2.860   3.073  0.6885 -1.7781 -0.1750
   16MOL   H11418144   6.857   3.030   2.822  2.5350  0.4881  0.3660
   16MOL   H11518145   6.783   3.087   2.980 -0.8216 -1.6062  0.6989
   16MOL   H11618146   7.009   3.089   3.080 -0.1471  2.8842  0.2259
   16MOL   H11718147   7.064   3.012   2.920  0.0405 -0.0950  0.8416
   16MOL   H11818148   6.955   3.288   2.959 -2.0112 -1.7674  0.0598
   16MOL   H11918149   7.014   3.220   2.805 -2.0323 -1.2922  0.7052
   16MOL   H12018150   7.167   3.366   2.873 -0.4054 -1.2633 -1.4799
   16MOL   H12118151   7.173   3.303   3.030 -0.0588  1.3589 -0.3948
   16MOL   O12218152   7.410   3.234   2.926  0.2943 -0.0463  0.2050
   16MOL   C12318153   7.533   3.169   2.897  0.5359  0.7167 -0.0683
   16MOL   C12418154   7.563   3.061   2.999 -0.4212  0.1230  0.4341
   16MOL   C12518155   7.633   3.103   3.134 -0.0161  0.5058  0.3358
   16MOL   C12618156   7.553   3.192   3.223 -0.3973 -0.0175 -0.0706
   16MOL   C12718157   7.419   3.154   3.281 -0.0123 -0.6805 -0.3820
   16MOL   C12818158   7.356   3.257   3.380  0.5172  0.0129 -0.5184
   16MOL   C12918159   7.239   3.206   3.466  0.0167  0.1202 -0.2144
   16MOL   C13018160   7.165   3.312   3.548  0.1976  0.0061 -0.2999
   16MOL   C13118161   7.035   3.254   3.600 -0.2511  0.3505 -0.5623
   16MOL   C13218162   6.953   3.358   3.678 -0.2811 -0.6353 -0.5445
   16MOL   O13318163   7.016   3.372   3.805 -0.3988  0.1969 -0.6447
   16MOL   C13418164   7.074   3.487   3.850 -0.3255 -0.3362 -0.1679
   16MOL   O13518165   7.084   3.596   3.787 -0.7915 -0.4172 -0.5583
   16MOL   C13618166   7.134   3.471   3.990 -0.3554 -0.5396 -0.4470
   16MOL   C13718167   7.251   3.367   3.991 -0.0577  0.7494  0.3566
   16MOL   C13818168   7.367   3.397   3.897  0.0161  0.4449 -0.4919
   16MOL   C13918169   7.456   3.269   3.883 -0.6109  0.4323 -0.0077
   16MOL   C14018170   7.566   3.273   3.774  0.1169 -0.0374 -0.3603
   16MOL   C14118171   7.608   3.140   3.706 -0.3896 -0.4093 -0.1680
   16MOL   C14218172   7.700   3.167   3.585 -0.3272 -0.3432  0.7599
   16MOL   C14318173   7.738   3.032   3.526 -0.3993  1.1133  0.5452
   16MOL   C14418174   0.081   3.042   3.411  0.2575 -0.5799  0.1877
   16MOL   O14518175   0.147   3.144   3.386  0.5298  0.1093  0.7267
   16MOL   H14618176   7.536   3.128   2.796  1.1353  1.9152 -0.5502
   16MOL   H14718177   7.613   3.243   2.907 -0.6996  1.9848  0.7238
   16MOL   H14818178   7.471   3.009   3.028 -1.2377  1.2706 -0.0784
   16MOL   H14918179   7.625   2.986   2.950 -2.9326 -1.1649 -0.8747
   16MOL   H15018180   7.656   3.006   3.179 -2.3682 -1.1445 -1.8818
   16MOL   H15118181   7.727   3.152   3.108  0.6964 -2.2073 -2.5549
   16MOL   H15218182   7.626   3.196   3.303  0.2616  2.1610 -0.7496
   16MOL   H15318183   7.541   3.290   3.177 -2.0216 -0.6168 -0.9446
   16MOL   H15418184   7.423   3.065   3.343 -1.4929  0.3221  1.1674
   16MOL   H15518185   7.349   3.150   3.197  1.9234 -0.0701 -2.0923
   16MOL   H15618186   7.324   3.349   3.331 -0.0319 -0.5159 -1.1543
   16MOL   H15718187   7.434   3.286   3.451 -0.0364 -3.4683  1.6214
   16MOL   H15818188   7.259   3.124   3.535  0.1246 -0.1389 -0.5497
   16MOL   H15918189   7.165   3.157   3.402  0.1563 -0.3929  0.0083
   16MOL   H16018190   7.148   3.407   3.497 -2.2299 -0.3505 -0.1950
   16MOL   H16118191   7.230   3.341   3.630  0.6765  1.7764 -1.2715
   16MOL   H16218192   6.974   3.233   3.512 -1.9149 -3.9950  1.4955
   16MOL   H16318193   7.054   3.165   3.661 -0.8054 -0.0996 -1.0394
   16MOL   H16418194   6.947   3.456   3.632 -2.4097 -0.1476  0.6857
   16MOL   H16518195   6.851   3.318   3.674 -0.1960 -1.0461  1.0307
   16MOL   H16618196   7.054   3.443   4.059 -0.1136 -0.2757 -0.0526
   16MOL   H16718197   7.178   3.565   4.024 -2.3641 -0.1749  1.2342
   16MOL   H16818198   7.205   3.276   3.954  0.1047  1.2827 -1.1815
   16MOL   H16918199   7.281   3.346   4.094 -0.8755 -1.1618  0.2268
   16MOL   H17018200   7.431   3.477   3.934  1.5722 -0.0548 -2.0198
   16MOL   H17118201   7.327   3.440   3.805  0.2918  0.1162 -0.7637
   16MOL   H17218202   7.384   3.193   3.850 -0.9724  0.5052  0.6074
   16MOL   H17318203   7.495   3.239   3.980 -0.5888 -0.2077 -0.2058
   16MOL   H17418204   7.523   3.338   3.698  1.3794  2.1407  0.7014
   16MOL   H17518205   7.654   3.327   3.809  0.5804 -0.4860 -0.8374
   16MOL   H17618206   7.666   3.077   3.774  1.9578 -1.1824 -2.7679
   16MOL   H17718207   7.522   3.081   3.676 -2.0009  2.7008 -1.8981
   16MOL   H17818208   0.020   3.232   3.628 -0.0990 -0.3636  0.3813
   16MOL   H17918209   7.658   3.231   3.508  0.3914  0.0159  0.6675
   16MOL   H18018210   0.036   2.975   3.600 -1.9820 -4.7789 -2.5255
   16MOL   H18118211   7.651   2.972   3.497  0.6327 -0.4478  0.6613
   16MOL   O18218212   0.089   2.923   3.344  0.2184  0.3954 -0.0253
   16MOL   C18318213   0.194   2.899   3.255 -0.5275 -0.3055 -0.3369
   16MOL   C18418214   0.163   2.759   3.209  0.2746 -0.6672  0.2917
   16MOL   C18518215   0.043   2.749   3.106 -0.0904  0.5485  0.8008
   16MOL   C18618216   7.754   2.607   3.075 -0.2267  0.1572 -0.0081
   16MOL   C18718217   0.096   2.516   2.989 -0.7971  0.3251 -0.0034
   16MOL   C18818218   0.225   2.455   3.042  0.8656  0.6867  0.6267
   16MOL   C18918219   0.179   2.371   3.166 -0.1073 -0.3330 -0.9667
   16MOL   C19018220   0.304   2.316   3.236  0.3520  0.1041 -0.1664
   16MOL   C19118221   0.268   2.228   3.354 -0.1251 -0.0281  0.0521
   16MOL   C19218222   0.397   2.196   3.433  0.1267 -0.0118 -1.2624
   16MOL   O19318223   0.371   2.125   3.550 -0.1848  0.1030 -0.0522
   16MOL   C19418224   0.350   2.173   3.670 -0.3125 -1.2177 -0.7334
   16MOL   O19518225   0.372   2.290   3.704  0.1914  0.2776  0.3296
   16MOL   C19618226   0.312   2.063   3.777  0.5298 -0.7353 -0.2875
   16MOL   C19718227   0.429   2.041   3.881  0.1028  0.5702 -0.3807
   16MOL   C19818228   0.523   1.929   3.842  1.1539 -1.0331  0.4935
   16MOL   C19918229   0.649   1.933   3.936 -0.6570  0.2443  0.4255
   16MOL   C20018230   0.748   1.823   3.882 -0.5535 -0.4565 -0.6624
   16MOL   C20118231   0.886   1.817   3.957  0.4904 -0.1003 -0.3018
   16MOL   C20218232   0.993   1.739   3.887  0.4851  0.6512  0.4425
   16MOL   C20318233   0.975   1.589   3.896 -0.3883 -0.1241 -0.2725
   16MOL   C20418234   1.094   1.517   3.834  0.0619  0.6502 -0.8489
   16MOL   O20518235   1.168   1.569   3.749 -0.4084 -0.5426 -0.1627
   16MOL   H20618236   0.194   2.969   3.172 -1.7351  0.7991  0.5756
   16MOL   H20718237   0.288   2.896   3.311 -0.7945 -2.0599  0.0272
   16MOL   H20818238   0.253   2.715   3.165 -0.3963 -0.6656 -1.1147
   16MOL   H20918239   0.154   2.698   3.299  1.8445  0.6537  1.3784
   16MOL   H21018240   7.717   2.806   3.149 -0.2246  1.2447 -0.3614
   16MOL   H21118241   0.055   2.806   3.014 -0.0581  2.5238  2.0059
   16MOL   H21218242   7.727   2.555   3.167 -2.1975 -1.0534 -1.2429
   16MOL   H21318243   7.664   2.624   3.017  0.0889 -1.7166 -1.1059
   16MOL   H21418244   0.115   2.560   2.891  3.0841 -0.2320  0.4221
   16MOL   H21518245   0.029   2.432   2.968  1.6621 -1.2403 -1.8185
   16MOL   H21618246   0.291   2.538   3.068  1.6650  0.2097  0.1568
   16MOL   H21718247   0.288   2.397   2.974  0.9077  1.3760  0.0661
   16MOL   H21818248   0.128   2.285   3.125  0.1417  0.0650 -2.1324
   16MOL   H21918249   0.128   2.427   3.245  1.2694 -1.1054  0.5062
   16MOL   H22018250   0.354   2.404   3.277 -2.3530  1.0805  1.1828
   16MOL   H22118251   0.372   2.263   3.169 -1.9435 -2.2108 -0.7733
   16MOL   H22218252   0.196   2.287   3.412 -0.4692  0.9514 -1.3378
   16MOL   H22318253   0.210   2.143   3.320 -1.2183  0.4212  0.7563
   16MOL   H22418254   0.470   2.141   3.374  1.2241 -0.5344  0.5238
   16MOL   H22518255   0.456   2.285   3.452  3.7886 -2.8132  1.2736
   16MOL   H22618256   0.300   1.969   3.723  1.4600 -0.7197 -0.5384
   16MOL   H22718257   0.221   2.089   3.830 -0.1571 -0.8587 -1.3827
   16MOL   H22818258   0.385   2.013   3.977 -2.0163 -1.4419 -1.8907
   16MOL   H22918259   0.485   2.134   3.895  0.0161  0.7061 -0.9469
   16MOL   H23018260   0.539   1.949   3.736 -2.8930  2.4334  0.4004
   16MOL   H23118261   0.481   1.829   3.840 -3.0384  0.6436 -2.4075
   16MOL   H23218262   0.623   1.910   4.040  0.5057 -1.8063  0.2685
   16MOL   H23318263   0.691   2.033   3.925  0.6064 -0.5399 -2.0431
   16MOL   H23418264   0.698   1.729   3.900 -1.9002  0.5918  1.2622
   16MOL   H23518265   0.768   1.820   3.775 -0.5813 -1.5920 -0.6342
   16MOL   H23618266   0.915   1.918   3.984 -2.1392  1.0902 -1.8243
   16MOL   H23718267   0.866   1.767   4.052 -0.3813 -3.0973 -1.9841
   16MOL   H23818268   1.089   1.769   3.929 -0.0888 -0.6148  2.7056
   16MOL   H23918269   0.985   1.771   3.783 -0.4869  2.0131  0.9124
   16MOL   H24018270   0.973   1.582   4.004 -0.4755  0.2595 -0.2502
   16MOL   H24118271   0.880   1.559   3.850 -0.4013 -1.6854  0.7417
   16MOL   O24218272   1.104   1.393   3.884 -0.7597  1.2349  0.1016
   16MOL   C24318273   1.195   1.291   3.831 -0.1332  0.0801 -0.1122
   16MOL   C24418274   1.156   1.160   3.886 -0.2338  0.5063 -0.6350
   16MOL   C24518275   1.252   1.052   3.838 -0.7645  0.4394  0.2909
   16MOL   C24618276   1.238   0.902   3.885  0.0862 -0.0105  0.2823
   16MOL   C24718277   1.367   0.826   3.881  0.7782  0.0464  0.4925
   16MOL   C24818278   1.433   0.824   3.742  0.2404  0.3839 -0.6246
   16MOL   C24918279   1.579   0.785   3.730 -0.0383 -0.3732  0.2119
   16MOL   C25018280   1.668   0.865   3.631 -0.3297  0.4268  0.0379
   16MOL   C25118281   1.805   0.787   3.599  0.1669  0.2592 -0.0070
   16MOL   C25218282   1.910   0.864   3.507  0.1425  0.7202 -0.5022
   16MOL   O25318283   1.957   0.986   3.561  0.2711  0.5391  0.5336
   16MOL   C25418284   1.908   1.102   3.511 -0.3680 -0.8307  1.1309
   16MOL   O25518285   1.829   1.099   3.416 -0.2387  0.2941  0.1493
   16MOL   C25618286   1.945   1.240   3.568 -0.3535 -0.5381 -0.2333
   16MOL   C25718287   2.100   1.262   3.588 -0.3309 -0.1840  0.7142
   16MOL   C25818288   2.131   1.398   3.651 -0.2962 -0.0670  0.1350
   16MOL   C25918289   2.276   1.427   3.671  0.5766 -0.1718 -0.3538
   16MOL   C26018290   2.352   1.446   3.537 -0.2105 -0.5421 -0.3797
   16MOL   C26118291   2.502   1.472   3.560  0.0536  0.0143 -0.6169
   16MOL   C26218292   2.598   1.504   3.442 -0.2169  0.7522  0.3265
   16MOL   C26318293   2.727   1.575   3.490  0.2533  0.1437 -0.4839
   16MOL   C26418294   2.851   1.529   3.411  0.7791 -0.4457  0.4825
   16MOL   O26518295   2.882   1.584   3.305 -0.9682 -0.2093  0.2266
   16MOL   H26618296   1.185   1.301   3.723 -3.3899 -2.5091 -0.1154
   16MOL   H26718297   1.295   1.318   3.864  0.0474  0.5887 -1.0460
   16MOL   H26818298   1.166   1.168   3.994 -1.2605 -2.1431 -0.2822
   16MOL   H26918299   1.060   1.119   3.852  0.5814 -2.0917  0.0656
   16MOL   H27018300   1.240   1.061   3.730 -0.8192  1.5976  0.3814
   16MOL   H27118301   1.354   1.085   3.858 -0.5912  1.4252 -2.0428
   16MOL   H27218302   1.205   0.918   3.988  0.0763  2.4894 -0.0706
   16MOL   H27318303   1.163   0.841   3.834 -0.0104  0.5521 -0.2566
   16MOL   H27418304   1.352   0.720   3.904  0.7096 -0.0435  0.0487
   16MOL   H27518305   1.437   0.856   3.959 -1.5683  0.5826  2.4362
   16MOL   H27618306   1.438   0.926   3.705  2.0916  0.1835 -1.0308
   16MOL   H27718307   1.374   0.757   3.679 -0.9536 -1.0124  1.8971
   16MOL   H27818308   1.573   0.680   3.702  0.5764 -0.7243  1.3703
   16MOL   H27918309   1.619   0.782   3.831 -0.9470 -0.2392  0.5839
   16MOL   H28018310   1.705   0.961   3.667  2.0158 -1.0394  1.6417
   16MOL   H28118311   1.624   0.879   3.532  0.9725 -0.1540 -0.6280
   16MOL   H28218312   1.840   0.743   3.692  0.1091  0.4705  0.1158
   16MOL   H28318313   1.778   0.697   3.543  0.1896  0.2530 -0.0078
   16MOL   H28418314   1.994   0.795   3.497 -3.2843 -3.7775 -0.1683
   16MOL   H28518315   1.881   0.871   3.402 -1.6011  0.1413 -0.0691
   16MOL   H28618316   1.894   1.245   3.665 -2.0614  2.2587 -1.2132
   16MOL   H28718317   1.891   1.311   3.506 -0.9259 -0.6504  0.1328
   16MOL   H28818318   2.141   1.266   3.487  1.1374  0.2675  1.3119
   16MOL   H28918319   2.162   1.192   3.644  1.0857  0.5476  0.1043
   16MOL   H29018320   2.084   1.399   3.749  3.1155 -2.2700  1.9089
   16MOL   H29118321   2.088   1.481   3.595 -2.0219  0.0034  1.5232
   16MOL   H29218322   2.317   1.342   3.727 -0.5442  0.2567  1.1294
   16MOL   H29318323   2.293   1.515   3.732 -0.9879  1.7326 -2.6019
   16MOL   H29418324   2.328   1.366   3.466  1.2645 -1.0461 -0.3207
   16MOL   H29518325   2.323   1.539   3.488  0.2520 -0.8460 -1.2547
   16MOL   H29618326   2.502   1.556   3.629  0.6325 -0.6129  0.1594
   16MOL   H29718327   2.537   1.392   3.624 -2.0629  0.3160  0.9482
   16MOL   H29818328   2.547   1.562   3.364  0.2327  1.4497  0.5478
   16MOL   H29918329   2.613   1.409   3.391  1.4062  1.3883 -0.4097
   16MOL   H30018330   2.727   1.683   3.477 -1.7560  0.3830  1.1911
   16MOL   H30118331   2.730   1.560   3.598  3.3790 -1.1460 -0.6911
   16MOL   O30218332   2.904   1.417   3.456 -0.2671  0.6310  0.2949
   16MOL   C30318333   3.017   1.364   3.379 -0.6085  0.8455  0.1148
   16MOL   C30418334   2.967   1.276   3.269 -0.1117 -0.5441  0.0742
   16MOL   C30518335   2.886   1.144   3.300 -0.5433  0.1093  0.0464
   16MOL   C30618336   2.831   1.082   3.167 -0.3334  0.3641 -0.1373
   16MOL   C30718337   2.942   1.067   3.065 -0.3907 -0.1012 -0.4328
   16MOL   C30818338   2.920   0.976   2.941  0.5760 -0.2221  0.1573
   16MOL   C30918339   3.044   0.966   2.852 -0.1519 -0.1657 -0.1710
   16MOL   C31018340   3.048   0.865   2.736  0.0743 -0.1859 -0.7806
   16MOL   C31118341   3.189   0.867   2.665  0.1312  0.0534  0.0249
   16MOL   C31218342   3.217   0.744   2.579 -0.0756 -0.6763  0.1965
   16MOL   O31318343   3.107   0.717   2.495 -0.3377 -0.2555 -0.2647
   16MOL   C31418344   3.116   0.604   2.418  0.0834  0.2549 -0.2408
   16MOL   O31518345   3.220   0.541   2.406 -0.0430  0.7647 -0.8398
   16MOL   C31618346   2.978   0.565   2.355 -0.1777  0.2001 -1.0679
   16MOL   C31718347   2.872   0.515   2.455  0.0639 -0.1701  0.3734
   16MOL   C31818348   2.805   0.626   2.539 -0.3208  0.0469 -0.0033
   16MOL   C31918349   2.681   0.582   2.632  0.1797  0.0085 -0.9396
   16MOL   C32018350   2.647   0.669   2.749  0.2304  0.4343 -0.3318
   16MOL   C32118351   2.545   0.614   2.848 -0.4504  0.0410  0.8367
   16MOL   C32218352   2.493   0.714   2.952 -0.2764 -0.2683  0.8563
   16MOL   C32318353   2.601   0.779   3.042  0.1166 -0.8550 -0.8228
   16MOL   C32418354   2.679   0.694   3.140 -0.2244 -0.5545  0.2441
   16MOL   O32518355   2.639   0.671   3.257  0.0870 -0.0805 -0.1562
   16MOL   H32618356   3.085   1.441   3.343  0.0929 -0.0716 -0.5527
   16MOL   H32718357   3.094   1.307   3.431  0.3167  1.2960 -0.7380
   16MOL   H32818358   2.912   1.338   3.199  0.5570 -0.3166 -0.2550
   16MOL   H32918359   3.058   1.246   3.217 -1.6885 -0.8153 -2.6218
   16MOL   H33018360   2.946   1.063   3.342  3.8097  2.3968 -1.4787
   16MOL   H33118361   2.799   1.169   3.360  1.1940  2.2323  1.7522
   16MOL   H33218362   2.794   0.985   3.200 -0.7691  0.5369 -0.1148
   16MOL   H33318363   2.747   1.136   3.124 -0.3163 -0.7355 -1.5945
   16MOL   H33418364   3.029   1.039   3.125  0.0251  1.6758 -0.1673
   16MOL   H33518365   2.961   1.169   3.032 -0.4408 -0.0065 -0.1742
   16MOL   H33618366   2.841   1.016   2.877 -0.1571  0.6242  1.5658
   16MOL   H33718367   2.885   0.876   2.967  0.2311 -0.0486  0.3642
   16MOL   H33818368   3.118   0.932   2.924  1.1534  1.3758 -0.7682
   16MOL   H33918369   3.058   1.066   2.812  2.3654  0.1478  1.4269
   16MOL   H34018370   2.968   0.880   2.663 -0.1278  1.4939 -0.2308
   16MOL   H34118371   3.023   0.774   2.792 -1.2668  0.6476  0.0265
   16MOL   H34218372   3.196   0.962   2.612 -1.4469  0.9451  1.3785
   16MOL   H34318373   3.261   0.861   2.746 -0.8348 -1.5965  0.7945
   16MOL   H34418374   3.300   0.760   2.510 -0.2342 -0.9359 -0.0574
   16MOL   H34518375   3.245   0.662   2.645 -2.9963 -0.1690  2.1495
   16MOL   H34618376   3.008   0.494   2.278  1.8497 -0.6603  0.4645
   16MOL   H34718377   2.936   0.650   2.301 -0.8758  1.4639  1.3986
   16MOL   H34818378   2.908   0.446   2.530  0.3179 -1.6498 -1.0954
   16MOL   H34918379   2.797   0.461   2.397 -1.2396  1.3245  0.6023
   16MOL   H35018380   2.770   0.710   2.479 -1.0918  0.4821  1.0287
   16MOL   H35118381   2.879   0.649   2.616  0.4058 -3.7948  0.5432
   16MOL   H35218382   2.713   0.483   2.664  2.7354  0.8993 -0.6730
   16MOL   H35318383   2.593   0.575   2.568  0.9869 -1.7413 -1.8770
   16MOL   H35418384   2.734   0.718   2.791  0.9488  1.8546 -3.3306
   16MOL   H35518385   2.613   0.756   2.693  1.0484  0.7185 -0.3917
   16MOL   H35618386   2.468   0.563   2.791 -0.2239 -2.9481  3.0886
   16MOL   H35718387   2.585   0.524   2.895 -2.0125  0.0284  2.1863
   16MOL   H35818388   2.426   0.649   3.008  0.1130 -1.0067  0.4725
   16MOL   H35918389   2.439   0.800   2.911 -1.3536 -1.3499 -0.0591
   16MOL   H36018390   2.667   0.821   2.967  0.1779 -0.4239 -0.5286
   16MOL   H36118391   2.564   0.869   3.092  1.0497 -0.7989 -0.2215
   16MOL   O36218392   2.801   0.659   3.091  0.1460  0.3917 -0.2357
   16MOL   C36318393   2.900   0.599   3.173  0.2507  0.0407  0.0278
   16MOL   C36418394   3.021   0.561   3.092  0.2170 -0.1597  0.1065
   16MOL   C36518395   2.996   0.446   2.990 -0.3538  0.4148  0.6644
   16MOL   C36618396   3.112   0.437   2.894  0.2597 -1.2286  0.5733
   16MOL   C36718397   3.107   0.318   2.793  0.0127 -0.3667 -0.5810
   16MOL   C36818398   3.228   0.320   2.703 -0.1601  0.1498 -0.0635
   16MOL   C36918399   3.244   0.206   2.601 -0.0677 -0.2395  0.2675
   16MOL   C37018400   3.385   0.216   2.530 -0.3427  0.3531  0.1684
   16MOL   C37118401   3.398   0.131   2.403 -0.0840  0.0543  0.0142
   16MOL   C37218402   3.540   0.118   2.343 -0.5170 -0.0802 -0.2133
   16MOL   O37318403   3.532   0.035   2.224 -0.1148 -0.2578  0.1771
   16MOL   C37418404   3.549   7.662   2.238 -0.6878 -0.0871  0.1962
   16MOL   O37518405   3.535   7.594   2.336  0.1313 -0.0289 -0.4223
   16MOL   C37618406   3.579   7.591   2.111 -0.3050  0.8109 -0.2494
   16MOL   C37718407   3.705   7.649   2.049  0.1903  0.1361  0.1134
   16MOL   C37818408   3.705   7.641   1.892 -0.2688  0.3485  0.0670
   16MOL   C37918409   3.829   7.700   1.826 -0.7325 -0.0387 -1.1328
   16MOL   C38018410   3.804   7.735   1.678  0.2479 -0.0650 -0.4035
   16MOL   C38118411   3.910   0.064   1.605  0.6284  0.1501  0.4972
   16MOL   C38218412   3.880   0.089   1.460 -0.1157  0.2389 -0.2672
   16MOL   C38318413   4.002   0.091   1.369 -1.3218 -0.4147 -0.0581
   16MOL   C38418414   4.076   7.713   1.356 -0.3428  0.2695  0.0637
   16MOL   O38518415   4.032   7.619   1.292 -0.5546 -0.1028  0.0556
   16MOL   H38618416   2.932   0.667   3.252  0.5220  0.6202 -0.5755
   16MOL   H38718417   2.863   0.500   3.200 -1.3622  0.2337 -1.3644
   16MOL   H38818418   3.060   0.648   3.040  1.0860 -0.4466  0.2641
   16MOL   H38918419   3.100   0.527   3.160  1.2169  0.9250 -0.5034
   16MOL   H39018420   2.971   0.347   3.029  3.1207 -0.2548  1.3479
   16MOL   H39118421   2.916   0.474   2.921  1.2743  0.4940 -1.2524
   16MOL   H39218422   3.122   0.531   2.841 -0.4876 -1.0231  0.8023
   16MOL   H39318423   3.203   0.432   2.955  0.9960  1.0992 -0.3157
   16MOL   H39418424   3.011   0.317   2.742  1.0001  3.3640 -2.7466
   16MOL   H39518425   3.117   0.227   2.852 -0.2640  0.0586  0.1236
   16MOL   H39618426   3.321   0.338   2.758 -0.0393 -2.2386  0.5728
   16MOL   H39718427   3.211   0.409   2.642  1.1421  1.0194  0.7981
   16MOL   H39818428   3.163   0.205   2.529  0.7933  0.4238 -0.7282
   16MOL   H39918429   3.244   0.108   2.649 -0.2611 -0.2819  0.1780
   16MOL   H40018430   3.459   0.196   2.607  1.1115 -0.3479 -1.3775
   16MOL   H40118431   3.410   0.315   2.489 -1.0448  0.8534  0.9440
   16MOL   H40218432   3.363   0.031   2.426  0.2779  0.6484  3.4681
   16MOL   H40318433   3.323   0.163   2.330 -0.6991 -0.7672  0.2849
   16MOL   H40418434   3.576   0.216   2.313 -0.0435 -0.1273  0.2028
   16MOL   H40518435   3.612   0.078   2.414 -1.4665  0.3329  0.9886
   16MOL   H40618436   3.490   7.601   2.049  0.3222 -1.2301 -1.5281
   16MOL   H40718437   3.589   7.484   2.132 -1.8547  1.2795  3.3032
   16MOL   H40818438   3.790   7.593   2.089 -1.1700 -0.8724  1.6893
   16MOL   H40918439   3.722   7.755   2.069 -2.4316  0.5635  0.1830
   16MOL   H41018440   3.623   7.704   1.857 -1.0919  0.3967  1.9827
   16MOL   H41118441   3.688   7.539   1.859  0.2919 -0.3097  1.7591
   16MOL   H41218442   3.916   7.635   1.833 -0.5210  0.0523 -2.7019
   16MOL   H41318443   3.855   0.037   1.876 -0.0098  0.2142 -1.9738
   16MOL   H41418444   3.805   7.641   1.622 -0.2834  1.0636 -2.3360
   16MOL   H41518445   3.707   0.016   1.647  0.0096 -0.9377 -0.7464
   16MOL   H41618446   3.927   0.161   1.653  1.5768  0.1705  0.1398
   16MOL   H41718447   4.008   0.017   1.617 -0.0878 -1.6041 -0.3768
   16MOL   H41818448   3.832   0.185   1.446 -0.5981  0.0109 -0.1819
   16MOL   H41918449   3.817   0.011   1.417  0.8554  0.4075 -2.0880
   16MOL   H42018450   3.971   0.124   1.269 -0.2482  3.4130  0.7832
   16MOL   H42118451   4.080   0.160   1.400 -1.0526  0.2921 -2.1727
   16MOL   O42218452   4.189   7.706   1.436 -0.2540 -0.2030  0.4702
   16MOL   C42318453   4.266   7.591   1.427  0.6514  0.5584 -0.6084
   16MOL   C42418454   4.294   7.517   1.566  0.3896  0.3437 -0.2939
   16MOL   C42518455   4.166   7.472   1.632 -1.0774 -0.3823  0.2651
   16MOL   C42618456   4.204   7.385   1.756  0.1485  0.2996 -0.6840
   16MOL   C42718457   4.085   7.347   1.837  0.2115  0.1691  0.8499
   16MOL   C42818458   4.004   7.229   1.777  0.5674  0.1053 -0.0989
   16MOL   C42918459   3.891   7.195   1.865 -0.0761 -0.2629  0.7713
   16MOL   C43018460   3.806   7.069   1.822  0.4996  0.6357 -0.3965
   16MOL   C43118461   3.658   7.084   1.879  0.1627 -0.3280 -0.0094
   16MOL   C43218462   3.570   6.946   1.877  0.5800  0.1568  0.3202
   16MOL   O43318463   3.548   6.896   1.742  0.5541  0.3087 -0.2477
   16MOL   C43418464   3.448   6.937   1.679  0.0760 -0.2383 -0.2117
   16MOL   O43518465   3.356   7.001   1.732 -0.0139 -1.0879  0.5310
   16MOL   C43618466   3.425   6.886   1.535 -0.1152  0.2047 -0.0385
   16MOL   C43718467   3.546   6.873   1.450 -0.2082 -0.4894 -0.0182
   16MOL   C43818468   3.630   7.005   1.440  0.0200  0.2853  0.2032
   16MOL   C43918469   3.727   6.980   1.328 -0.5363 -0.4403 -0.6839
   16MOL   C44018470   3.814   7.110   1.320  0.4619 -0.3382  0.0637
   16MOL   C44118471   3.930   7.081   1.227  0.6292 -0.2317  0.4535
   16MOL   C44218472   4.027   7.194   1.196 -0.3063  0.0375  0.6110
   16MOL   C44318473   4.165   7.148   1.143 -0.4099  0.0927 -0.6768
   16MOL   C44418474   4.163   7.083   1.002  0.3962 -0.3306 -0.7159
   16MOL   O44518475   4.157   6.963   0.989 -0.0380  0.5859 -0.2111
   16MOL   H44618476   4.237   7.512   1.359  0.1413 -0.9386  1.2982
   16MOL   H44718477   4.360   7.616   1.378  1.1559  0.4101  0.2608
   16MOL   H44818478   4.360   7.431   1.561 -1.0567 -1.0173  2.5291
   16MOL   H44918479   4.342   7.584   1.638  0.4729  0.3024 -0.3120
   16MOL   H45018480   4.116   7.557   1.678  1.6304  0.9410  0.8630
   16MOL   H45118481   4.105   7.424   1.556  1.2894 -0.1291 -1.9040
   16MOL   H45218482   4.255   7.295   1.720 -1.0194 -0.8006  0.3416
   16MOL   H45318483   4.257   7.452   1.824 -0.1261  0.4903 -0.6585
   16MOL   H45418484   4.020   7.433   1.854 -1.0364 -0.2990 -1.3770
   16MOL   H45518485   4.112   7.308   1.935 -1.9431 -1.0900  0.9801
   16MOL   H45618486   4.063   7.138   1.772 -0.7527 -0.6967 -1.3168
   16MOL   H45718487   3.965   7.247   1.677 -0.3081 -1.4534 -0.0511
   16MOL   H45818488   3.829   7.285   1.862  0.8310  0.3521 -0.0280
   16MOL   H45918489   3.934   7.199   1.965  1.2518  1.1816  0.1655
   16MOL   H46018490   3.861   6.983   1.861  1.3979  1.5503  0.3696
   16MOL   H46118491   3.803   7.069   1.713  1.3411 -0.4751 -0.4308
   16MOL   H46218492   3.669   7.131   1.977  0.5814 -1.3515  0.4454
   16MOL   H46318493   3.612   7.154   1.809  0.7514 -0.9769 -1.0577
   16MOL   H46418494   3.615   6.866   1.936  0.2509 -0.2096  0.0726
   16MOL   H46518495   3.474   6.971   1.923  1.5640  1.0454  1.9582
   16MOL   H46618496   3.360   6.948   1.473  0.5768 -0.0226 -1.0025
   16MOL   H46718497   3.364   6.796   1.545 -0.6792  0.2082 -3.0537
   16MOL   H46818498   3.519   6.845   1.348 -0.4154  0.3397 -0.1992
   16MOL   H46918499   3.606   6.791   1.489 -1.5578 -1.1131  0.8116
   16MOL   H47018500   3.683   7.015   1.535 -0.9898 -0.7993  0.8890
   16MOL   H47118501   3.571   7.096   1.424 -3.1088 -1.1640  2.8981
   16MOL   H47218502   3.685   6.952   1.231 -0.9683  0.2288 -0.6883
   16MOL   H47318503   3.795   6.902   1.364  1.2682  1.4040 -0.0123
   16MOL   H47418504   3.751   7.193   1.286  0.6521 -0.5393 -0.7886
   16MOL   H47518505   3.861   7.117   1.418  1.0974 -2.3234 -0.0918
   16MOL   H47618506   3.986   7.003   1.280 -0.0718  1.4841  3.9019
   16MOL   H47718507   3.883   7.051   1.134  0.9939 -0.3960  0.3227
   16MOL   H47818508   4.037   7.271   1.272  1.4655  0.1293  0.3164
   16MOL   H47918509   3.988   7.258   1.116  1.5372  1.5190  0.8545
   16MOL   H48018510   4.231   7.235   1.147 -0.8803  0.3368  2.4642
   16MOL   H48118511   4.200   7.071   1.211  0.9101  1.0266 -0.2796
   16MOL   O48218512   4.163   7.176   0.906 -0.0584  0.4101  0.1517
   16MOL   C48318513   4.164   7.137   0.769  0.0478 -0.7524 -0.0290
   16MOL   C48418514   4.020   7.121   0.710  0.2850  0.1107 -0.8144
   16MOL   C48518515   4.011   7.105   0.551  0.2349  0.9994  0.0578
   16MOL   C48618516   4.006   6.960   0.507  0.2536  0.2519  0.3791
   16MOL   C48718517   3.998   6.932   0.359  0.2137 -0.1413  0.5717
   16MOL   C48818518   3.991   6.787   0.314 -0.4682  0.2565 -0.0180
   16MOL   C48918519   4.000   6.761   0.161  0.8573 -0.1131  0.9299
   16MOL   C49018520   3.895   6.837   0.080 -0.0128 -0.2952 -0.6120
   16MOL   C49118521   3.905   6.787   7.688  0.1617 -0.2781 -0.0405
   16MOL   C49218522   3.822   6.876   7.601  0.1578  0.2569  0.7852
   16MOL   O49318523   3.827   6.846   7.466  0.5634  0.1846  0.3359
   16MOL   C49418524   3.743   6.915   7.385  0.2473  0.2760 -0.5172
   16MOL   O49518525   3.653   6.998   7.422 -0.3323  0.6182  0.2627
   16MOL   C49618526   3.760   6.889   7.235  0.3614  0.2746  0.4650
   16MOL   C49718527   3.903   6.927   7.187  0.1548 -0.4402  0.3713
   16MOL   C49818528   3.895   7.069   7.114 -0.3443  0.3059 -0.9171
   16MOL   C49918529   4.035   7.124   7.123 -0.2633 -0.3148 -0.6694
   16MOL   C50018530   4.044   7.262   7.064  0.1411 -0.1565  0.1208
   16MOL   C50118531   4.181   7.323   7.077  0.5507  0.0817 -0.0526
   16MOL   C50218532   4.189   7.469   7.015  0.3758  0.8974  0.3149
   16MOL   C50318533   4.327   7.528   7.017 -0.3363 -0.0090 -0.4720
   16MOL   C50418534   4.367   7.574   7.159  1.1117 -0.0442 -0.6375
   16MOL   O50518535   4.461   7.525   7.221  0.2600 -0.0365  0.2341
   16MOL   H50618536   4.220   7.208   0.708 -0.9137 -1.6448 -2.0120
   16MOL   H50718537   4.227   7.051   0.745  0.9580 -0.5479  1.5728
   16MOL   H50818538   3.971   7.037   0.760  1.2254 -0.8471 -1.4718
   16MOL   H50918539   3.969   7.206   0.754 -1.3585 -1.3633  0.2242
   16MOL   H51018540   3.918   7.153   0.521  0.1988 -0.2128 -1.7990
   16MOL   H51118541   4.098   7.162   0.520 -0.1902  2.3937  1.3446
   16MOL   H51218542   4.101   6.910   0.528  0.9377  1.3236 -0.1428
   16MOL   H51318543   3.925   6.907   0.557  0.1695 -0.3921 -0.4281
   16MOL   H51418544   4.090   6.968   0.312 -0.8074  1.8306  0.0368
   16MOL   H51518545   3.913   6.986   0.319  2.1182  2.8996  0.4509
   16MOL   H51618546   3.905   6.736   0.356 -0.3485  1.0476  1.2047
   16MOL   H51718547   4.080   6.737   0.352  1.8197  3.0614 -1.4430
   16MOL   H51818548   3.997   6.657   0.130 -1.9798 -0.3553  1.9000
   16MOL   H51918549   4.099   6.785   0.122  0.5854 -2.5425 -1.3953
   16MOL   H52018550   3.908   6.945   0.074  0.5303 -0.3996 -1.3564
   16MOL   H52118551   3.795   6.830   0.123  0.8969  0.9233  1.7627
   16MOL   H52218552   4.010   6.796   7.659  0.1651 -0.7615 -0.1881
   16MOL   H52318553   3.871   6.683   7.686 -1.5186  0.2544  0.1022
   16MOL   H52418554   3.718   6.886   7.634  0.3449  0.1301  1.4242
   16MOL   H52518555   3.867   6.972   7.624  0.8186 -0.1543  1.2162
   16MOL   H52618556   3.682   6.950   7.188  0.2952  0.6563  1.0604
   16MOL   H52718557   3.732   6.785   7.221 -1.2326  0.3755  2.5690
   16MOL   H52818558   3.948   6.854   7.120 -2.5170 -1.8802  0.0663
   16MOL   H52918559   3.977   6.924   7.267 -0.4332  1.5867  1.0241
   16MOL   H53018560   3.832   7.139   7.168 -1.9459 -0.6045 -1.5978
   16MOL   H53118561   3.860   7.056   7.012  0.3767 -1.4173 -0.9616
   16MOL   H53218562   4.092   7.055   7.061 -0.4578 -2.3692  1.4081
   16MOL   H53318563   4.061   7.123   7.228 -0.9106  1.2297 -0.4725
   16MOL   H53418564   4.007   7.277   6.962  0.7706  2.9903  0.3027
   16MOL   H53518565   3.975   7.329   7.114 -0.4182 -0.9137  0.3641
   16MOL   H53618566   4.220   7.329   7.179  1.4104  1.2736 -0.4451
   16MOL   H53718567   4.249   7.251   7.031  0.1234  0.1708 -0.8146
   16MOL   H53818568   4.115   7.529   7.068 -1.5419  0.5454 -1.8576
   16MOL   H53918569   4.163   7.468   6.909  0.2634 -0.6851  0.3438
   16MOL   H54018570   4.401   7.460   6.975  0.4491  1.2820 -1.2140
   16MOL   H54118571   4.324   7.611   6.947 -3.7120  2.2501  2.1804
   16MOL   O54218572   4.283   7.666   7.204 -0.0948 -0.1656  0.6706
   16MOL   C54318573   4.282   7.705   7.336  0.0379 -0.0845 -0.8367
   16MOL   C54418574   4.185   7.615   7.415  0.5098 -0.2777  0.7520
   16MOL   C54518575   4.037   7.645   7.376 -0.5544 -0.5578 -0.3373
   16MOL   C54618576   3.934   7.561   7.457 -0.3268  0.3365 -0.5995
   16MOL   C54718577   3.895   7.415   7.419 -0.3587 -0.4110  0.2487
   16MOL   C54818578   3.786   7.353   7.501  0.0602  0.0104 -0.2460
   16MOL   C54918579   3.835   7.283   7.630 -0.2284  0.1911  0.0893
   16MOL   C55018580   3.719   7.252   7.724 -0.0750  0.4217 -0.0489
   16MOL   C55118581   3.763   7.209   0.107  0.5230 -0.2798 -0.0960
   16MOL   C55218582   3.652   7.195   0.214 -0.4973 -0.7875  0.2861
   16MOL   O55318583   3.577   7.078   0.199  0.0087  0.1147  0.2283
   16MOL   C55418584   3.595   6.973   0.281 -0.4913  0.4569 -0.1260
   16MOL   O55518585   3.658   6.977   0.390  0.4258  0.3496 -0.4914
   16MOL   C55618586   3.502   6.859   0.244 -0.6383  0.2606  0.0638
   16MOL   C55718587   3.508   6.809   0.101 -0.9729 -0.4214  0.1269
   16MOL   C55818588   3.431   6.895   7.756 -0.4693  0.2849 -0.6475
   16MOL   C55918589   3.277   6.909   0.019 -0.3075  0.6779 -0.6044
   16MOL   C56018590   3.201   6.939   7.647  0.6073  0.6155 -0.6460
   16MOL   C56118591   3.251   7.049   7.552 -0.5833  0.2245 -0.1588
   16MOL   C56218592   3.243   7.180   7.626 -0.4461 -0.1347 -0.2819
   16MOL   C56318593   3.284   7.300   7.542  0.3110 -0.4283  0.1317
   16MOL   C56418594   3.169   7.326   7.442 -1.6346  0.4830 -0.5047
   16MOL   O56518595   3.065   7.396   7.466  0.1413  0.2183 -0.2099
   16MOL   H56618596   4.380   7.701   7.385  0.7495 -1.3960 -2.3154
   16MOL   H56718597   4.249   0.052   7.337 -2.5737 -0.8468 -2.8045
   16MOL   H56818598   4.204   7.508   7.407  0.0043 -0.3998  1.1777
   16MOL   H56918599   4.202   7.636   7.521 -1.6316 -1.1341  1.2897
   16MOL   H57018600   4.022   7.750   7.399 -2.2888 -0.8663  0.0287
   16MOL   H57118601   4.038   7.633   7.268 -0.0294 -0.6592 -0.3210
   16MOL   H57218602   3.960   7.558   7.563 -0.9663 -2.4786 -0.4695
   16MOL   H57318603   3.843   7.620   7.448 -0.5153 -0.1682 -2.0654
   16MOL   H57418604   3.989   7.360   7.429 -1.4464 -2.2835  0.4552
   16MOL   H57518605   3.866   7.424   7.315 -0.0860 -0.8840  0.1245
   16MOL   H57618606   3.723   7.289   7.439 -0.6908  0.7908 -0.3001
   16MOL   H57718607   3.721   7.434   7.534 -3.1560 -2.4007 -0.5151
   16MOL   H57818608   3.906   7.346   7.684 -0.2438  0.6200 -0.3836
   16MOL   H57918609   3.887   7.188   7.614 -2.7712 -1.1571 -0.3397
   16MOL   H58018610   3.652   7.185   7.670  1.4998 -1.6617  0.5063
   16MOL   H58118611   3.669   7.349   7.724  0.4585  0.7211 -1.9753
   16MOL   H58218612   3.832   7.125   0.106 -0.2899 -0.9752  1.1757
   16MOL   H58318613   3.825   7.287   0.150 -2.1407  1.5439  0.5635
   16MOL   H58418614   3.698   7.208   0.313  0.7214 -1.0570 -0.2331
   16MOL   H58518615   3.579   7.274   0.198  0.1539 -0.6212 -2.0918
   16MOL   H58618616   3.400   6.894   0.260 -1.4129 -2.5394  1.5498
   16MOL   H58718617   3.525   6.780   0.315  0.8600 -0.7060 -1.4406
   16MOL   H58818618   3.458   6.714   0.120 -1.4933  0.2616  2.3182
   16MOL   H58918619   3.610   6.786   0.068 -0.2713  1.3899  0.9975
   16MOL   H59018620   3.439   6.853   7.655  1.7573 -0.2098 -0.2937
   16MOL   H59118621   3.492   6.985   7.745  0.7057 -0.4135  0.1318
   16MOL   H59218622   3.261   6.985   0.096 -2.7218  0.6214 -1.0206
   16MOL   H59318623   3.232   6.822   0.067 -2.1227  1.5490 -0.6953
   16MOL   H59418624   3.204   6.850   7.585 -0.6856 -1.4054  2.1129
   16MOL   H59518625   3.095   6.956   7.665  0.3853  0.0254 -1.4000
   16MOL   H59618626   3.355   7.033   7.525 -0.6879 -1.3724  0.3133
   16MOL   H59718627   3.192   7.056   7.461  0.0865  1.0786 -0.5309
   16MOL   H59818628   3.312   7.162   7.708  0.0895 -0.4399 -0.7940
   16MOL   H59918629   3.147   7.207   7.668  0.3277  0.6894  0.9881
   16MOL   H60018630   3.289   7.386   7.609 -0.4344 -2.2069  2.5720
   16MOL   H60118631   3.381   7.297   7.492  0.1189  0.7702 -0.3251
   16MOL   O60218632   3.194   7.260   7.334  0.0087 -0.4811  0.0479
   16MOL   C60318633   3.113   7.270   7.217 -0.3062 -0.1062 -0.5379
   16MOL   C60418634   3.028   7.142   7.215  0.0903 -0.7121 -0.8975
   16MOL   C60518635   2.900   7.142   7.303 -0.3516  0.3346 -0.1596
   16MOL   C60618636   2.827   7.010   7.314  0.1144 -0.8122  0.1956
   16MOL   C60718637   2.771   6.969   7.179  0.1077  0.7950  0.7217
   16MOL   C60818638   2.690   6.840   7.180 -0.2352 -0.8633  0.1336
   16MOL   C60918639   2.554   6.841   7.254  0.4293  0.5324  0.2993
   16MOL   C61018640   2.458   6.734   7.184 -0.6126  0.4523 -0.0550
   16MOL   C61118641   2.356   6.692   7.283  0.1328  0.3542  0.1806
   16MOL   C61218642   2.232   6.626   7.216  0.9761 -0.3267 -0.2714
   16MOL   O61318643   2.240   6.482   7.192  0.0266 -0.2619  0.3884
   16MOL   C61418644   2.161   6.427   7.097  0.3655 -0.0013  0.3567
   16MOL   O61518645   2.067   6.490   7.042 -0.6838 -0.7370  0.0784
   16MOL   C61618646   2.182   6.280   7.063 -0.6851  0.5484  0.7573
   16MOL   C61718647   2.274   6.265   6.944  0.3037 -0.4977  0.5264
   16MOL   C61818648   2.423   6.295   6.966 -0.0833 -0.2165  0.1109
   16MOL   C61918649   2.496   6.189   7.047  0.5148  0.3357 -0.3137
   16MOL   C62018650   2.649   6.208   7.051 -0.3982  0.7349 -1.2660
   16MOL   C62118651   2.730   6.119   7.149 -0.0346  0.8424  0.3382
   16MOL   C62218652   2.884   6.113   7.121 -0.1912  0.3144 -0.1077
   16MOL   C62318653   2.955   5.983   7.164  0.2377 -0.1188  0.0522
   16MOL   C62418654   2.990   5.962   7.308  0.3626  0.0065  0.0943
   16MOL   O62518655   3.000   6.059   7.380 -0.0058 -0.2321 -0.1189
   16MOL   H62618656   3.052   7.360   7.205 -2.4735 -1.1771  1.9821
   16MOL   H62718657   3.195   7.260   7.145 -0.5369 -1.3988 -0.6274
   16MOL   H62818658   3.008   7.123   7.109 -1.3702 -1.9688 -0.4212
   16MOL   H62918659   3.086   7.052   7.232  2.0901  0.9066  1.1656
   16MOL   H63018660   2.933   7.169   7.403 -1.4465 -0.9382  0.5773
   16MOL   H63118661   2.824   7.215   7.276 -0.0301  1.8632  2.8502
   16MOL   H63218662   2.894   6.936   7.359 -0.3804 -0.5221  1.4265
   16MOL   H63318663   2.742   7.024   7.381  0.3931  1.8588  0.0490
   16MOL   H63418664   2.857   6.933   7.123 -0.8573  2.1069 -1.6870
   16MOL   H63518665   2.710   7.048   7.136  0.5803  0.1809 -1.1420
   16MOL   H63618666   2.751   6.765   7.230  1.0217 -0.7175 -1.1406
   16MOL   H63718667   2.684   6.809   7.076 -0.1682 -0.3057 -0.0367
   16MOL   H63818668   2.494   6.930   7.270 -1.8829 -1.1218  1.0795
   16MOL   H63918669   2.578   6.804   7.354  1.8829  0.2577 -0.1342
   16MOL   H64018670   2.512   6.644   7.156 -0.5105  0.4921  0.0163
   16MOL   H64118671   2.412   6.767   7.091  1.9641 -1.3603 -2.0573
   16MOL   H64218672   2.389   6.621   7.360  0.3846  0.6051  0.3032
   16MOL   H64318673   2.316   6.781   7.330  0.1956 -0.0540  1.0166
   16MOL   H64418674   2.147   6.649   7.279 -0.6383  2.2840 -3.2466
   16MOL   H64518675   2.219   6.683   7.124  1.8740  1.4400  0.6792
   16MOL   H64618676   2.090   6.222   7.050  0.9791 -2.1338  0.5566
   16MOL   H64718677   2.227   6.236   7.151  1.1434 -0.2786 -0.5681
   16MOL   H64818678   2.239   6.330   6.863  0.7207 -3.0375 -1.7630
   16MOL   H64918679   2.267   6.160   6.914  0.9480 -0.6281  0.8433
   16MOL   H65018680   2.424   6.386   7.025 -0.7867  0.4216 -0.8514
   16MOL   H65118681   2.464   6.321   6.868 -0.0583 -0.2805  0.1051
   16MOL   H65218682   2.476   6.093   7.002  1.3930  0.5561 -1.1943
   16MOL   H65318683   2.462   6.196   7.150  1.0934 -1.4187  0.0127
   16MOL   H65418684   2.688   6.179   6.953  1.6500 -2.6426  0.4844
   16MOL   H65518685   2.681   6.309   7.078 -1.2643  0.6049  0.2987
   16MOL   H65618686   2.700   6.157   7.246 -0.2299  2.4600 -0.3440
   16MOL   H65718687   2.697   6.015   7.150  1.1775  0.4374 -1.0435
   16MOL   H65818688   2.935   6.195   7.173 -1.0117 -0.4438  1.9688
   16MOL   H65918689   2.903   6.124   7.015  1.9184  0.9315  0.3147
   16MOL   H66018690   2.894   5.898   7.132 -0.6392  0.5154  0.0144
   16MOL   H66118691   3.052   5.986   7.114 -0.9318  0.2625 -2.2833
   16MOL   O66218692   2.985   5.830   7.340  0.5112 -0.1562  0.7355
   16MOL   C66318693   2.992   5.797   7.483 -0.2395 -0.1614  0.7603
   16MOL   C66418694   3.059   5.665   7.494 -0.7706  0.6618  0.4332
   16MOL   C66518695   3.097   5.621   7.638 -0.8456 -0.1747 -0.2582
   16MOL   C66618696   3.165   5.483   7.638 -0.2435 -0.9667 -0.0778
   16MOL   C66718697   3.164   5.415   0.010  0.1317  1.0187 -0.2217
   16MOL   C66818698   3.242   5.281   7.752  0.0509  0.2889  0.3136
   16MOL   C66918699   3.287   5.219   0.129  0.1490 -0.7884 -0.0696
   16MOL   C67018700   3.211   5.094   0.170  0.4909 -0.4095 -0.0075
   16MOL   C67118701   3.272   5.016   0.292 -0.3571 -0.1645 -0.5199
   16MOL   C67218702   3.204   4.885   0.303  0.2855  0.5120 -0.1929
   16MOL   O67318703   3.067   4.902   0.322  0.1136 -0.4863  0.1960
   16MOL   C67418704   3.001   4.838   0.413  0.5785 -0.2119  0.2399
   16MOL   O67518705   3.048   4.750   0.489  0.1599 -0.2190 -0.2543
   16MOL   C67618706   2.850   4.868   0.419 -0.4008  0.3733  0.2879
   16MOL   C67718707   2.809   5.009   0.469 -0.4862  0.7477  0.3429
   16MOL   C67818708   2.786   5.022   0.626 -1.2344 -0.1805  0.8533
   16MOL   C67918709   2.918   5.005   0.704  0.1228 -0.7172 -0.5823
   16MOL   C68018710   2.902   5.029   0.856  0.1016  0.4673  0.3868
   16MOL   C68118711   3.028   5.029   0.951 -0.3072  0.0153 -0.4762
   16MOL   C68218712   3.007   5.033   1.102  0.8827  0.1762 -0.7920
   16MOL   C68318713   3.137   5.047   1.185  0.6631 -0.2795 -0.7516
   16MOL   C68418714   3.221   4.914   1.209  0.0982  0.0842 -0.0533
   16MOL   O68518715   3.333   4.895   1.166 -0.0460 -0.4978  0.8814
   16MOL   H68618716   3.054   5.859   7.548 -1.1311 -0.7869  2.2466
   16MOL   H68718717   2.890   5.803   7.523  0.5101 -2.0612  3.0641
   16MOL   H68818718   2.988   5.593   7.453  0.5310  0.1644 -0.9906
   16MOL   H68918719   3.138   5.680   7.420 -0.6634 -0.9432  0.2084
   16MOL   H69018720   3.161   5.695   7.684 -1.1827 -1.3214  2.1704
   16MOL   H69118721   3.007   5.607   7.697 -3.0490  1.8313 -2.9919
   16MOL   H69218722   3.113   5.411   7.574 -2.1797  1.1930 -1.0039
   16MOL   H69318723   3.264   5.506   7.600 -0.3739  0.7703  0.5756
   16MOL   H69418724   3.066   5.388   0.049  0.0916  2.1433  0.4692
   16MOL   H69518725   3.211   5.483   0.080  0.6789 -1.2681  1.6707
   16MOL   H69618726   3.331   5.292   7.691  0.7592 -0.7143  1.1531
   16MOL   H69718727   3.179   5.214   7.694  2.4263 -2.4796  0.8361
   16MOL   H69818728   3.266   5.300   0.200  0.1383  0.1003 -1.0717
   16MOL   H69918729   3.393   5.192   0.128 -0.0312 -1.5508  0.7462
   16MOL   H70018730   3.218   5.028   0.083  0.7243  1.7385 -1.6469
   16MOL   H70118731   3.108   5.116   0.197  1.0455  1.0115  0.9936
   16MOL   H70218732   3.376   4.988   0.274 -0.4576  0.2736 -1.8357
   16MOL   H70318733   3.278   5.076   0.382  0.3297  0.6804 -1.1203
   16MOL   H70418734   3.214   4.824   0.213 -0.5733 -0.1730  0.1662
   16MOL   H70518735   3.251   4.834   0.387 -0.2949  0.8499  0.3404
   16MOL   H70618736   2.802   4.786   0.472 -0.8916  0.5623  0.1360
   16MOL   H70718737   2.826   4.851   0.315 -1.8172  0.3221  0.6086
   16MOL   H70818738   2.716   5.027   0.414 -1.2447 -1.5197  0.8052
   16MOL   H70918739   2.884   5.082   0.440 -0.6867  1.7364  2.2059
   16MOL   H71018740   2.707   4.952   0.652 -1.3515 -0.5107 -0.3607
   16MOL   H71118741   2.739   5.117   0.653 -1.8491 -0.4813  0.8454
   16MOL   H71218742   2.994   5.068   0.658 -2.8958  1.3949 -2.8326
   16MOL   H71318743   2.954   4.903   0.690  4.0990  0.3331  1.1753
   16MOL   H71418744   2.850   5.123   0.873 -1.4997 -0.1583 -0.9288
   16MOL   H71518745   2.834   4.952   0.892 -2.2145  1.3860 -1.8666
   16MOL   H71618746   3.102   4.949   0.945 -0.8350 -0.6428  1.3687
   16MOL   H71718747   3.077   5.121   0.920 -0.8797  0.1766 -0.9181
   16MOL   H71818748   2.953   4.945   1.135 -0.8152  1.1372 -0.9338
   16MOL   H71918749   2.948   5.124   1.115 -2.1549 -1.6898 -1.2201
   16MOL   H72018750   3.200   5.121   1.137  0.6736  0.5484  0.5157
   16MOL   H72118751   3.111   5.094   1.280  1.6476 -0.0789 -0.5724
   16MOL   O72218752   3.152   4.836   1.292  0.5018  0.4600  0.8629
   16MOL   C72318753   3.214   4.726   1.357  0.2512  0.4990  0.3167
   16MOL   C72418754   3.293   4.751   1.487 -0.4768  0.9796 -0.6687
   16MOL   C72518755   3.433   4.810   1.472 -0.5071  0.1166 -0.3385
   16MOL   C72618756   3.501   4.834   1.609  0.6564 -0.2894 -0.4195
   16MOL   C72718757   3.650   4.869   1.594 -0.2480 -0.4659 -0.0216
   16MOL   C72818758   3.692   4.979   1.503  0.2873 -0.0550 -0.0110
   16MOL   C72918759   3.843   5.003   1.515 -0.4271 -0.3990 -0.2943
   16MOL   C73018760   3.907   5.080   1.395 -0.0078  0.3202  0.5429
   16MOL   C73118761   4.054   5.117   1.411 -0.1616 -0.4809 -0.2263
   16MOL   C73218762   4.122   5.188   1.288 -0.0230 -0.2402  0.5249
   16MOL   O73318763   4.263   5.150   1.270  0.2216  0.4581  0.3265
   16MOL   C73418764   4.312   5.176   1.153  0.0871  0.6626 -0.1400
   16MOL   O73518765   4.257   5.227   1.055  0.0374  0.0080 -0.1713
   16MOL   C73618766   4.459   5.140   1.154  0.9668 -0.0649  0.2026
   16MOL   C73718767   4.528   5.200   1.033  0.0785  0.2549  0.3505
   16MOL   C73818768   4.685   5.206   1.045  0.3964 -0.1032 -0.1183
   16MOL   C73918769   4.751   5.064   1.071 -0.7826 -0.3832  0.4514
   16MOL   C74018770   4.900   5.064   1.030  0.0025  0.4011  0.4977
   16MOL   C74118771   4.980   4.941   1.071 -0.0572 -0.4226  0.1916
   16MOL   C74218772   5.129   4.951   1.025 -0.1619 -0.4681 -0.1207
   16MOL   C74318773   5.152   4.938   0.874 -0.2604  0.6931 -0.1143
   16MOL   C74418774   5.299   4.924   0.831  0.2941 -0.6041 -0.2065
   16MOL   O74518775   5.338   4.979   0.731 -0.0254 -0.3520 -0.2063
   16MOL   H74618776   3.131   4.656   1.362 -0.3514  0.8305 -3.4286
   16MOL   H74718777   3.282   4.676   1.288 -0.1660 -0.6638  0.7271
   16MOL   H74818778   3.245   4.837   1.534  2.7130  2.9716 -0.8573
   16MOL   H74918779   3.292   4.662   1.550  4.1373  1.0954 -0.2672
   16MOL   H75018780   3.499   4.758   1.402 -1.4130  0.5881 -1.5609
   16MOL   H75118781   3.419   4.907   1.425 -1.7490  0.1823  0.1552
   16MOL   H75218782   3.462   4.918   1.667  0.7263 -0.1334 -0.5962
   16MOL   H75318783   3.488   4.744   1.668  1.6798 -0.9762 -1.2196
   16MOL   H75418784   3.696   4.774   1.571  3.3385  1.2626 -0.3641
   16MOL   H75518785   3.682   4.897   1.695  1.6296 -0.1268 -0.6979
   16MOL   H75618786   3.641   5.072   1.525  1.4635  1.5906 -3.8830
   16MOL   H75718787   3.660   4.949   1.403  0.4929  2.5308 -0.8900
   16MOL   H75818788   3.893   4.906   1.511 -0.8541 -0.5876 -1.1229
   16MOL   H75918789   3.869   5.056   1.607 -2.3287 -0.8438  0.5265
   16MOL   H76018790   3.855   5.174   1.382 -0.4782 -0.0327 -0.1288
   16MOL   H76118791   3.885   5.018   1.308 -0.3255 -0.7410  1.3653
   16MOL   H76218792   4.059   5.185   1.496  1.0166 -0.5162 -0.2701
   16MOL   H76318793   4.110   5.027   1.437 -0.9369 -1.2221 -1.0831
   16MOL   H76418794   4.071   5.154   1.198  0.1675  2.1777 -0.5528
   16MOL   H76518795   4.106   5.296   1.298 -0.8638 -0.4746  1.8406
   16MOL   H76618796   4.478   5.033   1.156 -2.3269 -0.7414 -1.5800
   16MOL   H76718797   4.505   5.194   1.237 -1.4614  2.3032  0.0648
   16MOL   H76818798   4.502   5.304   1.010 -2.3522  0.0607  1.9573
   16MOL   H76918799   4.505   5.144   0.943  1.5823  0.7107 -0.3321
   16MOL   H77018800   4.701   5.267   1.134 -1.1581  1.3018 -0.7661
   16MOL   H77118801   4.722   5.253   0.954  0.5731  2.1668  1.0846
   16MOL   H77218802   4.699   4.994   1.006 -0.7745 -0.9797  1.0791
   16MOL   H77318803   4.737   5.036   1.175  2.5027  0.7295  1.2573
   16MOL   H77418804   4.914   5.083   0.923  1.9756 -0.9209  0.5037
   16MOL   H77518805   4.934   5.151   1.086  1.0807 -0.4096  1.1323
   16MOL   H77618806   4.980   4.912   1.176  2.7059  0.2152  0.4169
   16MOL   H77718807   4.945   4.850   1.022  1.2462 -1.1386  0.5577
   16MOL   H77818808   5.184   4.872   1.076  0.8453  2.1498  3.0577
   16MOL   H77918809   5.165   5.043   1.073 -0.2110 -1.1191  1.1952
   16MOL   H78018810   5.097   4.851   0.837  0.6169 -0.2277  0.7195
   16MOL   H78118811   5.113   5.028   0.826  1.2971  2.8280  2.5057
   16MOL   O78218812   5.384   4.864   0.921 -0.3622 -0.3131  0.0415
   16MOL   C78318813   5.525   4.855   0.902 -0.1775  0.3331 -0.2787
   16MOL   C78418814   5.589   4.757   1.009 -0.4515 -0.4664  0.6562
   16MOL   C78518815   5.528   4.626   0.997 -0.1531  0.2713 -0.3208
   16MOL   C78618816   5.625   4.516   1.065 -0.5659  0.2706  0.2097
   16MOL   C78718817   5.619   4.505   1.216 -0.6127 -0.1821 -0.4940
   16MOL   C78818818   5.724   4.418   1.285  1.0285  0.3608  0.4912
   16MOL   C78918819   5.728   4.435   1.436 -0.3144  0.1130 -0.8030
   16MOL   C79018820   5.828   4.339   1.496 -0.5638  0.7041 -0.2357
   16MOL   C79118821   5.888   4.385   1.636  0.2558  0.2097  0.7752
   16MOL   C79218822   5.996   4.289   1.690 -0.2074 -0.5541  0.5705
   16MOL   O79318823   6.074   4.339   1.790 -0.1573 -0.5720  0.4259
   16MOL   C79418824   6.168   4.267   1.848 -0.4211  0.8190 -0.2934
   16MOL   O79518825   6.196   4.148   1.828  0.1399  1.0448 -0.3571
   16MOL   C79618826   6.240   4.355   1.948  0.1616 -0.6477 -0.1088
   16MOL   C79718827   6.358   4.288   2.026 -0.0357  0.0450 -0.2113
   16MOL   C79818828   6.416   4.364   2.148 -0.4904  0.7511 -0.5074
   16MOL   C79918829   6.471   4.500   2.108 -0.6041  0.4668 -0.1938
   16MOL   C80018830   6.560   4.566   2.218  0.8313 -0.2112 -0.5086
   16MOL   C80118831   6.641   4.676   2.165  0.5640  0.1340  0.1396
   16MOL   C80218832   6.690   4.761   2.288  0.8341  0.4258 -0.2876
   16MOL   C80318833   6.804   4.860   2.260 -1.0018  0.0402 -0.3594
   16MOL   C80418834   6.767   4.997   2.205 -0.3783  0.4420  0.1422
   16MOL   O80518835   6.836   5.098   2.227  0.0931 -0.6597  0.4234
   16MOL   H80618836   5.527   4.816   0.800 -0.8751  0.8080 -0.4716
   16MOL   H80718837   5.563   4.957   0.899  2.5589 -0.6388 -0.3547
   16MOL   H80818838   5.696   4.753   0.991 -0.5033 -2.2554  0.7272
   16MOL   H80918839   5.572   4.805   1.105  0.8481  0.3086  0.5092
   16MOL   H81018840   5.428   4.621   1.041 -0.2018 -0.3638 -0.5033
   16MOL   H81118841   5.495   4.610   0.894 -3.8206  0.4617  0.7217
   16MOL   H81218842   5.600   4.426   1.009 -3.0879  2.1734 -1.8830
   16MOL   H81318843   5.727   4.541   1.035 -0.0866  0.1517  1.7101
   16MOL   H81418844   5.517   4.484   1.248 -1.1998  1.3181 -1.3165
   16MOL   H81518845   5.645   4.605   1.250 -1.5524  0.9617 -3.0499
   16MOL   H81618846   5.817   4.431   1.229  1.0031  1.3649  0.6707
   16MOL   H81718847   5.700   4.314   1.266 -0.7811  0.4844  1.9640
   16MOL   H81818848   5.623   4.426   1.467 -0.9691 -2.8093 -3.6638
   16MOL   H81918849   5.767   4.536   1.449  0.1836 -0.1729  0.0134
   16MOL   H82018850   5.915   4.325   1.431 -1.1070  0.6281 -0.9530
   16MOL   H82118851   5.798   4.235   1.491  0.4822  0.3838 -0.0602
   16MOL   H82218852   5.933   4.484   1.624 -0.1789  0.1927 -1.3008
   16MOL   H82318853   5.814   4.383   1.716  0.8262 -3.8660  1.2929
   16MOL   H82418854   5.958   4.189   1.710 -0.3442 -0.5852  0.1762
   16MOL   H82518855   6.065   4.272   1.607  0.5095  2.9551  0.3384
   16MOL   H82618856   6.156   4.385   2.010 -0.8236 -1.1096 -1.2053
   16MOL   H82718857   6.277   4.448   1.904 -0.5911 -0.5803 -0.6164
   16MOL   H82818858   6.432   4.256   1.952  0.3491  1.5960 -0.5125
   16MOL   H82918859   6.318   4.192   2.058  1.7752 -0.4634  0.6229
   16MOL   H83018860   6.498   4.310   2.195  0.8768  1.6005 -1.8836
   16MOL   H83118861   6.339   4.370   2.225  0.1885  1.0654  0.1541
   16MOL   H83218862   6.389   4.566   2.079 -0.5113  1.8262  2.4959
   16MOL   H83318863   6.528   4.481   2.017 -0.2091  1.2613 -0.1116
   16MOL   H83418864   6.497   4.592   2.303  1.3124  0.4468 -0.3538
   16MOL   H83518865   6.622   4.482   2.250 -0.5068 -1.1451 -0.3098
   16MOL   H83618866   6.721   4.630   2.107 -1.1690 -2.7483 -0.0515
   16MOL   H83718867   6.577   4.739   2.103  1.8349  3.1747  1.8090
   16MOL   H83818868   6.723   4.695   2.368  1.6289 -2.8448 -3.1684
   16MOL   H83918869   6.611   4.828   2.322  0.2370 -0.1110 -0.5958
   16MOL   H84018870   6.872   4.861   2.345 -0.4002 -0.1925 -0.8291
   16MOL   H84118871   6.865   4.812   2.182 -0.4383 -0.8071  0.5916
   16MOL   O84218872   6.650   4.996   2.131  0.6287 -0.1521  0.0854
   16MOL   C84318873   6.573   5.114   2.095 -0.1711 -0.5005  0.4036
   16MOL   C84418874   6.649   5.192   1.984 -0.6725  0.1925 -1.4721
   16MOL   C84518875   6.669   5.107   1.858 -0.0907  0.0825 -0.3330
   16MOL   C84618876   6.726   5.186   1.741 -0.4846  0.3343 -0.2582
   16MOL   C84718877   6.871   5.230   1.757 -0.2942  0.6582  0.5265
   16MOL   C84818878   6.909   5.340   1.658 -0.7504 -0.4807 -0.2151
   16MOL   C84918879   7.058   5.350   1.639 -0.6578 -0.1156  0.0319
   16MOL   C85018880   7.118   5.456   1.546 -0.1931 -0.4199 -0.3734
   16MOL   C85118881   7.265   5.475   1.565 -0.0964  0.3181  0.0800
   16MOL   C85218882   7.318   5.593   1.495  0.7578  0.0773  0.1974
   16MOL   O85318883   7.459   5.586   1.492  0.0588  0.3300  0.2777
   16MOL   C85418884   7.526   5.692   1.444  0.1792 -0.1451  0.5599
   16MOL   O85518885   7.472   5.790   1.398  0.5084  0.0371 -0.7751
   16MOL   C85618886   7.679   5.678   1.472  0.2034 -0.4872  0.8913
   16MOL   C85718887   7.744   5.809   1.441 -0.7322  0.0623 -0.6257
   16MOL   C85818888   0.136   5.812   1.488  0.0256  0.4826  0.5438
   16MOL   C85918889   0.224   5.713   1.411 -0.1085  0.6216 -0.0512
   16MOL   C86018890   0.366   5.733   1.442  0.7697 -0.5486 -0.5220
   16MOL   C86118891   0.400   5.702   1.591 -0.1930 -0.3087  1.2873
   16MOL   C86218892   0.549   5.735   1.619  0.1215 -0.7424  0.2733
   16MOL   C86318893   0.657   5.673   1.533 -0.1259 -0.6460  0.0922
   16MOL   C86418894   0.803   5.709   1.566 -0.9426  0.5857  0.2978
   16MOL   O86518895   0.827   5.777   1.668 -0.7418 -0.6478 -0.2567
   16MOL   H86618896   6.473   5.076   2.074 -0.6670  0.6343  0.6361
   16MOL   H86718897   6.575   5.187   2.176 -2.2945 -0.1574  0.1800
   16MOL   H86818898   6.597   5.286   1.968 -1.1117 -0.3582 -3.3956
   16MOL   H86918899   6.745   5.221   2.026 -0.8423  0.7032 -1.4330
   16MOL   H87018900   6.730   5.017   1.871  2.0102  1.6662  0.9609
   16MOL   H87118901   6.572   5.079   1.816 -0.6809  3.4436 -1.3440
   16MOL   H87218902   6.713   5.116   1.658  0.6044  0.8282 -0.8612
   16MOL   H87318903   6.662   5.274   1.729  0.0815  0.7916  0.0744
   16MOL   H87418904   6.946   5.154   1.734  1.0410  2.2480 -0.4793
   16MOL   H87518905   6.894   5.253   1.861 -0.6438 -1.7116  1.1719
   16MOL   H87618906   6.858   5.433   1.681 -0.0439  0.8618 -3.7931
   16MOL   H87718907   6.855   5.321   1.565 -1.0532 -0.5347 -0.0299
   16MOL   H87818908   7.095   5.253   1.607 -0.5120 -0.2675  0.6610
   16MOL   H87918909   7.098   5.378   1.737  2.2092 -1.8669 -0.5989
   16MOL   H88018910   7.068   5.552   1.562  2.6199  1.0918 -0.3814
   16MOL   H88118911   7.088   5.432   1.444  0.7975  0.6910 -0.9411
   16MOL   H88218912   7.288   5.474   1.672  1.3069  2.0419 -0.1794
   16MOL   H88318913   7.317   5.385   1.534  1.1093  0.2902  2.0494
   16MOL   H88418914   7.280   5.592   1.393 -0.8188  2.5003  0.7354
   16MOL   H88518915   7.289   5.686   1.544 -1.9692 -0.3220 -0.5917
   16MOL   H88618916   7.706   5.595   1.407  1.3619  1.2624 -0.8682
   16MOL   H88718917   7.695   5.642   1.574 -0.6361 -2.2002  0.4432
   16MOL   H88818918   7.704   5.900   1.487  0.1063  0.3625 -0.4842
   16MOL   H88918919   7.751   5.831   1.335  1.3784  0.0575 -0.5129
   16MOL   H89018920   0.134   5.772   1.589 -2.2362 -1.8954 -0.3907
   16MOL   H89118921   0.173   5.914   1.502  1.6495  0.1518 -1.0768
   16MOL   H89218922   0.225   5.730   1.304  0.1374  0.2221 -0.1148
   16MOL   H89318923   0.201   5.609   1.435  1.3021  0.8739  2.6123
   16MOL   H89418924   0.427   5.669   1.378  0.0127 -1.7531 -0.0683
   16MOL   H89518925   0.401   5.834   1.425 -0.6787  0.0028 -0.3382
   16MOL   H89618926   0.346   5.764   1.663  1.9360 -0.3488  2.9776
   16MOL   H89718927   0.372   5.601   1.621 -3.2086  0.4000  0.9344
   16MOL   H89818928   0.563   5.704   1.722  1.5124 -1.2503 -0.0628
   16MOL   H89918929   0.552   5.844   1.632  0.3973 -0.6145 -0.7607
   16MOL   H90018930   0.641   5.566   1.542 -0.8537 -0.5299  0.2003
   16MOL   H90118931   0.647   5.686   1.425 -0.9870 -2.4346 -0.0534
   16MOL   O90218932   0.899   5.674   1.470 -0.2172 -0.6965  0.2016
   16MOL   C90318933   1.040   5.706   1.488 -0.1995  0.6740  0.5421
   16MOL   C90418934   1.120   5.650   1.369  0.2271  0.6024 -0.0122
   16MOL   C90518935   1.103   5.505   1.343 -0.2459  0.4292  0.3425
   16MOL   C90618936   1.203   5.463   1.231  0.0560  0.2816  0.5260
   16MOL   C90718937   1.174   5.326   1.166  0.3550 -0.3534 -0.1403
   16MOL   C90818938   1.294   5.277   1.081  0.1329  0.0015  0.6113
   16MOL   C90918939   1.281   5.315   0.935 -0.5824  0.0279  0.2040
   16MOL   C91018940   1.182   5.227   0.859 -0.5315 -0.0180  0.1255
   16MOL   C91118941   1.238   5.089   0.830 -0.0958 -0.1441 -0.5054
   16MOL   C91218942   1.142   5.009   0.739 -0.1306  1.0279  0.6720
   16MOL   O91318943   1.018   4.987   0.793 -0.5227  0.0917 -0.1869
   16MOL   C91418944   0.906   4.980   0.719 -0.1880  0.2206  0.9029
   16MOL   O91518945   0.903   4.930   0.608  0.0046  0.1108  0.2438
   16MOL   C91618946   0.792   5.036   0.798  0.3511 -0.2513  0.1121
   16MOL   C91718947   0.673   5.055   0.709 -0.3017  0.2658  0.2197
   16MOL   C91818948   0.549   5.094   0.794  0.0502 -0.5308 -0.6017
   16MOL   C91918949   0.427   5.119   0.706 -0.5335  0.4367 -0.3864
   16MOL   C92018950   0.407   5.268   0.691  0.0080  0.1014 -0.0211
   16MOL   C92118951   0.305   5.306   0.593 -0.2120  0.3302 -0.3689
   16MOL   C92218952   0.292   5.460   0.594 -0.6912 -0.0542 -0.3175
   16MOL   C92318953   0.235   5.513   0.472 -0.2902  0.0150  0.8927
   16MOL   C92418954   0.276   5.654   0.449 -0.9303 -0.3490  0.0237
   16MOL   O92518955   0.216   5.745   0.489 -0.5981 -0.1077 -0.3649
   16MOL   H92618956   1.053   5.814   1.493 -0.8663  0.7223  1.2795
   16MOL   H92718957   1.086   5.655   1.572 -1.5477  1.3680  1.7269
   16MOL   H92818958   1.087   5.706   1.282  0.0578 -0.3145 -0.5453
   16MOL   H92918959   1.225   5.679   1.368 -0.2341  2.3893  0.8615
   16MOL   H93018960   1.128   5.450   1.434 -0.2327  0.5334  0.4007
   16MOL   H93118961   0.999   5.485   1.316  0.5770  0.1085 -2.8218
   16MOL   H93218962   1.192   5.533   1.149  0.4850  0.1001  0.3090
   16MOL   H93318963   1.306   5.467   1.268  0.3281 -1.3767  0.0238
   16MOL   H93418964   1.080   5.324   1.109  0.9551  1.9787 -1.3198
   16MOL   H93518965   1.155   5.254   1.245  0.5688  0.0504  0.2817
   16MOL   H93618966   1.299   5.169   1.094 -1.1072 -0.0868  0.4384
   16MOL   H93718967   1.390   5.313   1.117  0.6320 -1.7804  1.1399
   16MOL   H93818968   1.373   5.325   0.878 -0.4698 -0.4338  0.3065
   16MOL   H93918969   1.239   5.416   0.936  2.0615  1.1440  0.3049
   16MOL   H94018970   1.157   5.269   0.762 -0.3608  0.1745  0.1647
   16MOL   H94118971   1.086   5.218   0.910 -1.6191 -1.2078 -2.0739
   16MOL   H94218972   1.338   5.102   0.790  0.5655 -0.6374  0.9470
   16MOL   H94318973   1.266   5.030   0.918  0.4056  1.4726  0.4260
   16MOL   H94418974   1.124   5.070   0.650 -1.0357  0.1129  0.2216
   16MOL   H94518975   1.166   4.907   0.710 -1.7649  1.2778 -1.7258
   16MOL   H94618976   0.830   5.128   0.843 -1.9659 -0.8223  3.5009
   16MOL   H94718977   0.773   4.967   0.881  0.3929 -1.0579 -0.5418
   16MOL   H94818978   0.655   4.983   0.630 -0.4924 -0.3277  0.7940
   16MOL   H94918979   0.696   5.143   0.650  1.2522 -0.9142 -0.9790
   16MOL   H95018980   0.573   5.170   0.868  1.0451 -0.6841 -0.7562
   16MOL   H95118981   0.536   5.000   0.846 -0.1717 -1.3110 -2.0321
   16MOL   H95218982   0.333   5.078   0.742  0.1811 -1.4982 -0.6587
   16MOL   H95318983   0.433   5.078   0.605  0.9512  0.5918 -0.3779
   16MOL   H95418984   0.382   5.312   0.787 -0.9928  0.6341 -0.5247
   16MOL   H95518985   0.499   5.311   0.650  0.1228 -0.4723 -0.3707
   16MOL   H95618986   0.324   5.281   0.489 -0.2410  0.4413 -0.4010
   16MOL   H95718987   0.204   5.271   0.612 -1.1176  2.2650 -1.4065
   16MOL   H95818988   0.387   5.506   0.622 -0.2723 -1.8194  1.2892
   16MOL   H95918989   0.230   5.489   0.679 -0.3295 -0.2375  0.0158
   16MOL   H96018990   0.274   5.458   0.386 -2.5218  1.4325 -1.0973
   16MOL   H96118991   0.127   5.496   0.476 -0.4398 -0.4915 -3.2364
   16MOL   O96218992   0.398   5.660   0.387  0.2603 -0.5259  0.3388
   16MOL   C96318993   0.447   5.791   0.354  0.4527  0.2556 -0.0325
   16MOL   C96418994   0.577   5.777   0.288 -0.8942  0.1325  0.4331
   16MOL   C96518995   0.644   5.914   0.286  0.3545 -0.2269  0.6660
   16MOL   C96618996   0.687   5.985   0.413 -0.0025 -0.0261  0.8612
   16MOL   C96718997   0.783   6.102   0.412  0.7403  0.1813  0.3884
   16MOL   C96818998   0.790   6.172   0.545  0.5618 -0.0860  0.5600
   16MOL   C96918999   0.901   6.282   0.533  0.4249  0.4204 -0.1926
   16MOL   C97019000   1.040   6.239   0.580  0.4787 -0.5846  0.1022
   16MOL   C97119001   1.152   6.343   0.552 -0.0479  0.0823 -0.1583
   16MOL   C97219002   1.296   6.300   0.597 -0.2390 -0.0693 -1.2331
   16MOL   O97319003   1.352   6.188   0.523  0.3781 -0.2089 -0.5031
   16MOL   C97419004   1.418   6.211   0.410  0.3771 -0.0488  0.3066
   16MOL   O97519005   1.423   6.320   0.345  0.1039 -0.1295  0.7527
   16MOL   C97619006   1.482   6.077   0.359 -0.5625 -0.6833 -0.5862
   16MOL   C97719007   1.421   6.037   0.224  0.3085  0.2678 -0.4302
   16MOL   C97819008   1.274   5.995   0.239  0.3494  0.0629  0.6729
   16MOL   C97919009   1.243   5.865   0.325  0.5017  0.1342  0.0584
   16MOL   C98019010   1.099   5.819   0.321 -0.2692 -1.3958  0.3127
   16MOL   C98119011   1.072   5.672   0.348  0.1704 -0.1869 -0.3333
   16MOL   C98219012   0.919   5.633   0.348 -0.8194 -0.0920  0.0130
   16MOL   C98319013   0.901   5.489   0.384  0.0013 -0.2418  0.0586
   16MOL   C98419014   0.749   5.456   0.395  0.3167 -0.4582  0.1453
   16MOL   O98519015   0.683   5.485   0.492  0.5498 -0.3968  0.5458
   16MOL   H98619016   0.377   5.845   0.290 -0.4281 -0.3248  0.4406
   16MOL   H98719017   0.453   5.854   0.443  0.2592  0.7050 -0.3346
   16MOL   H98819018   0.631   5.700   0.343  2.3794  2.4918  0.6636
   16MOL   H98919019   0.575   5.747   0.183  2.0608 -1.5610  0.7995
   16MOL   H99019020   0.729   5.917   0.218  0.5530  0.0629  0.9270
   16MOL   H99119021   0.571   5.988   0.254  0.4596 -0.3520  0.1310
   16MOL   H99219022   0.601   6.006   0.476 -1.2826  1.7033 -1.4321
   16MOL   H99319023   0.744   5.903   0.457  0.5773 -0.1938 -0.1889
   16MOL   H99419024   0.747   6.180   0.345 -0.8846  1.3315  2.5421
   16MOL   H99519025   0.883   6.085   0.372  0.7215  0.3377  0.2742
   16MOL   H99619026   0.802   6.098   0.624 -0.1841 -0.7531  0.0603
   16MOL   H99719027   0.696   6.225   0.558 -0.3029 -1.7120  1.0898
   16MOL   H99819028   0.862   6.365   0.592  1.3174  0.7071 -0.0002
   16MOL   H99919029   0.908   6.323   0.433  0.6800 -0.3479 -0.4900
   16MOL     H119030   1.065   6.142   0.539 -1.8893 -1.3407  0.3775
   16MOL     H219031   1.044   6.232   0.689  0.6357 -1.1686  0.0583
   16MOL     H319032   1.162   6.388   0.454  1.2766 -1.4090 -0.7239
   16MOL     H419033   1.124   6.432   0.608 -1.6658 -1.0997  0.9713
   16MOL     H519034   1.363   6.386   0.593  0.3426 -0.4919 -0.6714
   16MOL     H619035   1.285   6.275   0.702  0.3012 -0.4263 -1.2621
   16MOL     H719036   1.475   6.007   0.442  0.6459  1.2032  1.1742
   16MOL     H819037   1.586   6.110   0.353 -1.1232  0.8265 -2.6286
   16MOL     H919038   1.484   5.967   0.168  2.6301  1.9420  0.0249
   16MOL    H1019039   1.421   6.118   0.151 -1.3051 -0.0337 -0.8026
   16MOL    H1119040   1.230   5.980   0.140  1.9226 -4.3695  0.5594
   16MOL    H1219041   1.211   6.077   0.274 -1.5014 -1.1684  0.3019
   16MOL    H1319042   1.284   5.871   0.426 -1.0682 -1.7050  0.8375
   16MOL    H1419043   1.301   5.788   0.274 -0.5661 -1.1796  0.8065
   16MOL    H1519044   1.044   5.863   0.404 -1.2307 -0.6072 -0.7223
   16MOL    H1619045   1.054   5.852   0.227  0.3347 -3.0952 -0.5978
   16MOL    H1719046   1.124   5.624   0.265  1.5594  1.7754 -0.6297
   16MOL    H1819047   1.107   5.633   0.443 -1.6351 -1.3261 -0.1183
   16MOL    H1919048   0.870   5.660   0.254  0.7026  1.0020 -0.4936
   16MOL    H2019049   0.880   5.690   0.432  0.4263  0.9816 -0.1224
   16MOL    H2119050   0.949   5.420   0.315 -1.5690  0.3583 -1.6900
   16MOL    H2219051   0.942   5.470   0.483 -1.8976  1.2852  1.1872
   16MOL    O2319052   0.699   5.387   0.285  0.0282  0.3680 -0.5150
   16MOL    C2419053   0.564   5.335   0.272 -0.3806 -0.5369  0.0612
   16MOL    C2519054   0.560   5.196   0.325 -0.6491 -0.9408 -0.1975
   16MOL    C2619055   0.633   5.092   0.239  0.2133  0.8148 -0.0057
   16MOL    C2719056   0.617   4.950   0.285  0.2655  0.1198 -0.0588
   16MOL    C2819057   0.711   4.851   0.214  0.2159 -0.1924  0.0665
   16MOL    C2919058   0.694   4.704   0.259 -0.0503 -0.1572 -0.1868
   16MOL    C3019059   0.740   4.681   0.406  0.6550  0.0698 -0.8154
   16MOL    C3119060   0.616   4.686   0.503  0.1928  0.2197  0.6056
   16MOL    C3219061   0.636   4.627   0.650  0.0003  0.0715  0.4903
   16MOL    C3319062   0.503   4.630   0.718  0.3017 -0.3880  0.5322
   16MOL    O3419063   0.523   4.587   0.850 -0.1965  0.2981 -0.1323
   16MOL    C3519064   0.446   4.622   0.946 -0.0020 -0.1415  0.4071
   16MOL    O3619065   0.332   4.677   0.926 -0.4474  0.0044 -0.0948
   16MOL    C3719066   0.512   4.600   1.085  0.3130 -0.3192 -0.2798
   16MOL    C3819067   0.623   4.706   1.110  0.3063  1.1430  0.4392
   16MOL    C3919068   0.577   4.854   1.124 -0.2837 -0.0722 -0.3544
   16MOL    C4019069   0.693   4.945   1.153 -0.4671  0.6243  0.2476
   16MOL    C4119070   0.663   5.096   1.155  0.0710 -0.4265 -0.2688
   16MOL    C4219071   0.790   5.176   1.191 -0.2724 -0.4194  0.5454
   16MOL    C4319072   0.783   5.325   1.171 -0.0093 -0.2126  1.0448
   16MOL    C4419073   0.725   5.400   1.294  0.3603  0.7167  0.3620
   16MOL    C4519074   0.572   5.391   1.324  0.2728 -0.6101 -0.4697
   16MOL    O4619075   0.540   5.373   1.443  0.1830  0.0021 -0.3012
   16MOL    H4719076   0.501   5.394   0.338  1.3563  0.1646  1.1163
   16MOL    H4819077   0.536   5.355   0.168 -1.5115  1.1945  0.6828
   16MOL    H4919078   0.593   5.199   0.428 -0.1074 -1.0458 -0.3682
   16MOL    H5019079   0.455   5.167   0.318 -0.8444  0.2568 -2.8400
   16MOL    H5119080   0.606   5.091   0.133  1.0690 -1.0553 -0.2382
   16MOL    H5219081   0.741   5.105   0.248  0.7539 -3.4358  0.8822
   16MOL    H5319082   0.624   4.946   0.393  0.5558  0.1752 -0.0746
   16MOL    H5419083   0.512   4.924   0.268 -0.3858  2.9937 -0.6770
   16MOL    H5519084   0.816   4.881   0.207 -0.0843  0.7141 -0.5083
   16MOL    H5619085   0.678   4.855   0.110 -3.4104  1.4182  1.2217
   16MOL    H5719086   0.774   4.662   0.198 -0.1531 -0.3638 -0.1792
   16MOL    H5819087   0.599   4.657   0.238 -0.7963  0.7014  1.1580
   16MOL    H5919088   0.822   4.751   0.425  2.1908 -2.2117  1.2790
   16MOL    H6019089   0.795   4.588   0.416 -1.2378 -1.0420 -0.6288
   16MOL    H6119090   0.540   4.625   0.454  1.7111 -1.9080  0.8430
   16MOL    H6219091   0.563   4.781   0.510  0.1438  0.2886 -0.6689
   16MOL    H6319092   0.670   4.524   0.634 -0.9649 -0.2923  0.7399
   16MOL    H6419093   0.702   4.687   0.713  0.1408  1.8445 -1.2933
   16MOL    H6519094   0.457   4.729   0.715 -1.1191 -1.0629 -0.2382
   16MOL    H6619095   0.429   4.569   0.666 -0.5978  1.9762 -1.0086
   16MOL    H6719096   0.556   4.501   1.080  0.4063 -0.3272  0.5329
   16MOL    H6819097   0.436   4.608   1.164  1.7194 -3.2949  1.4465
   16MOL    H6919098   0.691   4.699   1.025  0.2430  0.8686  0.4118
   16MOL    H7019099   0.680   4.663   1.192  0.3430  1.1941  0.4404
   16MOL    H7119100   0.494   4.863   1.195 -1.7348 -1.5999 -1.8132
   16MOL    H7219101   0.525   4.880   1.032 -0.6021 -4.4303 -1.5301
   16MOL    H7319102   0.766   4.921   1.075  0.0879  0.0799  0.9275
   16MOL    H7419103   0.749   4.912   1.241 -0.2994  0.5374  0.1093
   16MOL    H7519104   0.630   5.133   1.058  0.4518  1.4155  0.2880
   16MOL    H7619105   0.582   5.109   1.227  0.4063 -0.4050  0.1041
   16MOL    H7719106   0.828   5.151   1.290  0.6958 -0.3252  0.1990
   16MOL    H7819107   0.868   5.147   1.120 -1.4926  0.4196 -1.1931
   16MOL    H7919108   0.725   5.344   1.080  0.5052 -0.9272  0.5648
   16MOL    H8019109   0.877   5.378   1.153 -0.6281  0.9929  1.2739
   16MOL    H8119110   0.772   5.385   1.391 -0.3315  2.6117  1.0235
   16MOL    H8219111   0.744   5.504   1.267 -0.3183  0.1524 -2.4492
   16MOL    O8319112   0.488   5.400   1.215  0.2210 -0.2495 -0.2361
   16MOL    C8419113   0.345   5.409   1.232 -0.8098  0.3827 -0.4187
   16MOL    C8519114   0.282   5.271   1.220  0.1974 -0.8970 -0.3082
   16MOL    C8619115   0.312   5.201   1.092 -0.3282  0.4285 -0.5595
   16MOL    C8719116   0.260   5.049   1.091  0.3900 -0.6320  0.1260
   16MOL    C8819117   0.105   5.051   1.074 -0.1627 -0.4100  0.3685
   16MOL    C8919118   0.048   4.909   1.072 -0.0797  0.3057  0.0903
   16MOL    C9019119   7.650   4.906   1.045  0.0687 -0.1342  0.6637
   16MOL    C9119120   7.579   4.800   1.126  0.2696  0.6176 -0.2482
   16MOL    C9219121   7.633   4.665   1.096  0.3257 -0.4744 -0.3537
   16MOL    C9319122   7.543   4.549   1.160 -0.5448 -0.2700 -0.0072
   16MOL    O9419123   7.411   4.554   1.103 -0.1155  0.0197 -0.2107
   16MOL    C9519124   7.304   4.610   1.176 -0.1101  0.9401  0.3835
   16MOL    O9619125   7.309   4.635   1.297  0.2524 -0.1966  0.0392
   16MOL    C9719126   7.182   4.630   1.081 -0.4133 -0.2295 -0.5382
   16MOL    C9819127   7.123   4.489   1.044  0.1203 -0.1252 -0.0995
   16MOL    C9919128   6.997   4.503   0.951  0.1115 -0.3486 -0.3300
   16MOL   C10019129   6.966   4.373   0.876  0.4237 -0.1331 -0.3715
   16MOL   C10119130   6.856   4.387   0.771  0.5033 -0.0863  0.0725
   16MOL   C10219131   6.835   4.268   0.685 -0.3142  0.0201  0.4570
   16MOL   C10319132   6.937   4.247   0.568 -0.7630  0.2484  0.0178
   16MOL   C10419133   6.919   4.112   0.501  0.3225 -0.0216  0.0273
   16MOL   C10519134   6.781   4.102   0.427  0.2310  0.9140 -0.1445
   16MOL   O10619135   6.716   3.999   0.439 -0.0495 -0.1959  0.1717
   16MOL   H10719136   0.317   5.459   1.325 -0.0682 -1.7617  0.9890
   16MOL   H10819137   0.301   5.468   1.151 -0.5160  1.4775  0.2066
   16MOL   H10919138   0.299   5.209   1.308 -1.6116 -2.7064 -1.1868
   16MOL   H11019139   0.174   5.286   1.215  0.2067  0.9205  2.8797
   16MOL   H11119140   0.265   5.253   1.009  1.2799  2.4699 -0.2083
   16MOL   H11219141   0.417   5.215   1.069 -0.4035  1.9770 -0.0155
   16MOL   H11319142   0.315   4.988   1.020  3.2427  0.3099  1.4563
   16MOL   H11419143   0.286   5.005   1.187  0.7424  0.5193  0.5666
   16MOL   H11519144   0.069   5.082   0.976  1.9474 -1.0337 -0.6418
   16MOL   H11619145   0.049   5.113   1.144 -1.1347 -0.6951 -0.1451
   16MOL   H11719146   0.066   4.863   1.169 -2.5081 -2.0771 -0.5314
   16MOL   H11819147   0.103   4.847   1.002  1.1603  2.1625 -0.6177
   16MOL   H11919148   7.627   4.892   0.940  0.6444  4.0867 -0.1470
   16MOL   H12019149   7.593   4.996   1.072 -1.4911 -0.7578 -0.4855
   16MOL   H12119150   7.476   4.805   1.090  0.2770  1.0413 -0.2061
   16MOL   H12219151   7.575   4.818   1.234  0.5158  1.5834 -0.3976
   16MOL   H12319152   7.644   4.636   0.991 -0.4048  2.0379 -1.1695
   16MOL   H12419153   7.734   4.653   1.136 -0.9029 -1.5826  2.5521
   16MOL   H12519154   7.591   4.455   1.134 -0.9549 -1.1420  2.2310
   16MOL   H12619155   7.550   4.547   1.269 -3.0786  0.3458  0.2062
   16MOL   H12719156   7.222   4.685   0.996  0.1482  0.6698  0.2827
   16MOL   H12819157   7.118   4.707   1.124  0.4962  0.5714 -0.5849
   16MOL   H12919158   7.095   4.438   1.136 -0.9731  2.1606  0.8723
   16MOL   H13019159   7.209   4.440   0.997 -0.3541 -0.4847 -0.6091
   16MOL   H13119160   7.018   4.573   0.871  0.1447 -1.8076 -1.6174
   16MOL   H13219161   6.915   4.531   1.017 -0.1877 -1.5345 -0.1831
   16MOL   H13319162   6.953   4.299   0.955  1.0350 -0.6539 -0.7558
   16MOL   H13419163   7.051   4.329   0.825  1.0266  0.7208 -0.1177
   16MOL   H13519164   6.766   4.426   0.819  1.0788  1.4368 -0.0476
   16MOL   H13619165   6.869   4.478   0.713 -0.5306  1.3366  1.9987
   16MOL   H13719166   6.824   4.178   0.745 -0.9736 -0.3074 -0.1541
   16MOL   H13819167   6.737   4.273   0.639 -1.0126  0.1588  1.9424
   16MOL   H13919168   7.040   4.256   0.602 -0.4697  0.2036 -0.8616
   16MOL   H14019169   6.939   4.325   0.492 -0.4415 -0.2362 -0.4676
   16MOL   H14119170   7.000   4.094   0.431  0.1643  1.7843 -0.6532
   16MOL   H14219171   6.926   4.037   0.580  2.1731  0.3247  0.2018
   16MOL   O14319172   6.757   4.201   0.348  0.4365 -0.0930 -0.0142
   16MOL   C14419173   6.656   4.198   0.248  0.4050  0.8874  0.0609
   16MOL   C14519174   6.724   4.146   0.121 -0.5544 -0.1077 -0.9587
   16MOL   C14619175   6.814   4.248   0.060 -0.3792  0.3268 -0.0995
   16MOL   C14719176   6.873   4.199   7.676 -0.2207 -0.1653  0.5948
   16MOL   C14819177   6.942   4.316   7.602 -0.4851  0.3244 -0.5430
   16MOL   C14919178   7.048   4.384   7.693 -0.3339 -0.3264 -0.7428
   16MOL   C15019179   7.127   4.490   7.615  0.6222  0.3220  0.6099
   16MOL   C15119180   7.202   4.588   7.699  0.0140 -0.1084 -0.2708
   16MOL   C15219181   7.326   4.534   0.012 -0.1114  0.3953 -0.5335
   16MOL   C15319182   7.440   4.491   7.681  0.7600  0.4965 -0.1576
   16MOL   O15419183   7.556   4.463   7.752 -0.5595  0.5625 -0.0194
   16MOL   C15519184   7.580   4.335   0.030 -0.6146 -0.5696  0.4041
   16MOL   O15619185   7.517   4.236   0.009 -0.2816  0.2505  0.2114
   16MOL   C15719186   7.711   4.317   0.110  0.1904 -0.2570  0.4369
   16MOL   C15819187   7.695   4.362   0.254  0.3877 -0.1929 -0.0175
   16MOL   C15919188   0.058   4.318   0.336 -0.6798 -0.3413 -0.3979
   16MOL   C16019189   0.178   4.421   0.332  0.1098 -0.8994 -0.0841
   16MOL   C16119190   0.150   4.552   0.397  0.5959  0.4316  0.1016
   16MOL   C16219191   0.105   4.543   0.541 -0.8397  0.6023 -0.6526
   16MOL   C16319192   0.049   4.679   0.596  0.3180  0.2192  0.0341
   16MOL   C16419193   0.147   4.791   0.618 -0.1356  0.4252  0.4404
   16MOL   C16519194   0.080   4.910   0.686  0.1875 -0.4564  0.1763
   16MOL   O16619195   0.057   5.015   0.628 -0.3184  0.0405  0.9114
   16MOL   H16719196   6.575   4.133   0.281  3.2719 -2.8708  0.0434
   16MOL   H16819197   6.611   4.297   0.242  0.1525  0.8364  1.1499
   16MOL   H16919198   6.771   4.051   0.144 -0.6871 -0.0269 -0.3423
   16MOL   H17019199   6.653   4.112   0.045 -0.6385 -1.0014 -0.4836
   16MOL   H17119200   6.760   4.342   0.046  1.7632  1.9407  1.9388
   16MOL   H17219201   6.896   4.272   0.128 -0.5319  0.5879 -0.0077
   16MOL   H17319202   6.950   4.124   7.694 -0.3301  0.2245  2.7756
   16MOL   H17419203   6.800   4.165   7.603 -0.5033  0.0834  0.7610
   16MOL   H17519204   6.859   4.378   7.568 -0.9084 -1.1987 -2.4228
   16MOL   H17619205   7.003   4.282   7.518 -0.1509 -0.3240 -0.0495
   16MOL   H17719206   7.123   4.310   7.723 -2.1265 -1.6603  0.5285
   16MOL   H17819207   7.013   4.426   0.031  1.6765  0.3815 -0.2802
   16MOL   H17919208   7.062   4.562   7.565  1.1685  1.1778  1.1272
   16MOL   H18019209   7.190   4.438   7.542  1.9170  3.2006 -0.3860
   16MOL   H18119210   7.138   4.615   0.027  2.6142 -0.1062  1.7761
   16MOL   H18219211   7.228   4.675   7.639 -2.3426  0.4584 -0.5268
   16MOL   H18319212   7.355   4.613   0.082  1.8936 -1.1258  0.3966
   16MOL   H18419213   7.296   4.449   0.073 -0.5518  0.3807 -0.7695
   16MOL   H18519214   7.409   4.405   7.622  1.4095 -1.1495  1.8247
   16MOL   H18619215   7.449   4.568   7.605  1.0870  0.5588 -0.0565
   16MOL   H18719216   0.031   4.374   0.056  1.2856 -0.8371  1.3634
   16MOL   H18819217   7.747   4.214   0.112  0.3760 -0.1728  1.6314
   16MOL   H18919218   7.609   4.303   0.287  0.0448 -2.8039 -5.0746
   16MOL   H19019219   7.669   4.467   0.260 -0.2341 -0.0266 -4.2014
   16MOL   H19119220   0.098   4.221   0.309  0.4297  0.2315 -0.8566
   16MOL   H19219221   0.028   4.302   0.440 -1.2068  2.4074 -0.0756
   16MOL   H19319222   0.201   4.425   0.226 -1.0059 -1.7921 -0.3791
   16MOL   H19419223   0.263   4.383   0.388  1.0770 -0.8319 -1.4946
   16MOL   H19519224   0.246   4.603   0.404  0.1454  1.0923  1.7281
   16MOL   H19619225   0.097   4.625   0.335  0.9900 -1.0520 -2.0639
   16MOL   H19719226   0.027   4.467   0.548 -0.0990 -0.0912  0.1659
   16MOL   H19819227   0.188   4.505   0.600 -0.3887 -0.0966 -1.7211
   16MOL   H19919228   7.755   4.668   0.691  1.3956  4.2783  1.1723
   16MOL   H20019229   7.730   4.724   0.531 -1.6744 -0.2596  1.9889
   16MOL   H20119230   0.229   4.743   0.673  0.4564 -1.7393 -2.2128
   16MOL   H20219231   0.198   4.825   0.528 -0.0310 -0.2908  0.2238
   16MOL   H20319232   0.053   4.905   0.791 -0.6122  2.5403  0.1439
   17MOL     O119233   6.160   5.619   7.744  0.2142  0.6547  0.4966
   17MOL     C219234   6.055   5.519   0.008  0.3565  0.3412  0.4758
   17MOL     C319235   6.106   5.383   0.038  0.8228 -0.4782 -0.4579
   17MOL     C419236   6.179   5.315   7.684 -0.1962  0.4435  0.1147
   17MOL     C519237   6.256   5.190   7.733  0.7675 -0.0816  0.3342
   17MOL     C619238   6.294   5.102   7.612 -0.2225 -0.0787  0.1143
   17MOL     C719239   6.406   5.152   7.523  0.1490 -0.2717  0.2945
   17MOL     C819240   6.358   5.229   7.399 -0.2227  0.3262 -0.5397
   17MOL     C919241   6.477   5.270   7.311 -0.3231 -0.0849 -0.0494
   17MOL    C1019242   6.435   5.380   7.212 -0.1030 -0.4939 -0.0918
   17MOL    C1119243   6.349   5.335   7.098  0.0213 -0.0136  0.3448
   17MOL    O1219244   6.331   5.443   7.011 -0.0349  0.2502 -0.1406
   17MOL    C1319245   6.234   5.421   6.911 -0.3280  0.6489 -0.3488
   17MOL    O1419246   6.169   5.322   6.880 -0.4529  0.3467 -0.2295
   17MOL    C1519247   6.215   5.554   6.840  0.6586 -0.0742  0.8092
   17MOL    C1619248   6.112   5.557   6.732 -0.2714  0.2563 -0.3261
   17MOL    C1719249   6.084   5.692   6.674  0.4336 -0.0160 -0.0521
   17MOL    C1819250   6.050   5.696   6.528  0.1433  0.6809  0.3775
   17MOL    C1919251   5.925   5.613   6.504 -0.5529  0.4098  0.1604
   17MOL    C2019252   5.897   5.583   6.353 -0.6753 -0.1924  0.5246
   17MOL    C2119253   5.801   5.472   6.335 -0.1453 -0.1841  0.1427
   17MOL    C2219254   5.770   5.424   6.197 -0.6275 -0.4030  0.0109
   17MOL    C2319255   5.707   5.529   6.110 -0.0104  0.1654 -0.2385
   17MOL    O2419256   5.583   5.545   6.115  0.3902  0.5424 -0.5747
   17MOL    H2519257   5.991   5.551   0.089 -0.6468 -0.9795  0.2185
   17MOL    H2619258   5.993   5.518   7.675  2.2102  2.5319 -0.8882
   17MOL    H2719259   6.169   5.379   0.127  1.0235  1.3839 -0.4857
   17MOL    H2819260   6.021   5.324   0.072 -0.0522  1.9304  1.7734
   17MOL    H2919261   6.105   5.287   7.610 -1.8133  2.3519  0.9724
   17MOL    H3019262   6.239   5.391   7.633  2.2947 -1.0997  0.6784
   17MOL    H3119263   6.349   5.215   0.027  0.7814 -1.3090  0.9245
   17MOL    H3219264   6.191   5.131   0.041  1.4629 -0.1363  0.9852
   17MOL    H3319265   6.205   5.089   7.550 -0.9248  0.7490  0.9455
   17MOL    H3419266   6.318   5.004   7.654 -0.6558 -0.3497 -0.2597
   17MOL    H3519267   6.452   5.061   7.482  1.8218  0.0790  1.3263
   17MOL    H3619268   6.478   5.200   7.589 -0.1741  0.0475  0.4157
   17MOL    H3719269   6.300   5.319   7.419  2.3520  1.9051  0.0369
   17MOL    H3819270   6.278   5.174   7.349  0.9103 -2.4174  0.5704
   17MOL    H3919271   6.518   5.186   7.255 -2.1706  0.6711 -2.6063
   17MOL    H4019272   6.561   5.314   7.365 -1.3738  1.6860  0.1689
   17MOL    H4119273   6.404   5.474   7.258  0.0928  1.2581 -3.4215
   17MOL    H4219274   6.528   5.402   7.160  0.8014 -0.0895  1.6625
   17MOL    H4319275   6.402   5.259   7.041  1.0435  0.0681  1.1726
   17MOL    H4419276   6.252   5.299   7.129 -1.0564  2.9483  0.5991
   17MOL    H4519277   6.314   5.582   6.802  0.4869  0.1676  0.5320
   17MOL    H4619278   6.194   5.634   6.911 -0.9570 -0.7454  1.0936
   17MOL    H4719279   6.018   5.514   6.765 -0.2552  0.2783 -0.2502
   17MOL    H4819280   6.151   5.492   6.654  1.3719 -2.5477  2.7046
   17MOL    H4919281   6.159   5.768   6.699 -0.0215  0.5572 -0.4247
   17MOL    H5019282   6.003   5.729   6.737 -0.7893 -3.0409  0.2246
   17MOL    H5119283   6.135   5.675   6.464  0.0457  1.0783  0.1155
   17MOL    H5219284   6.020   5.798   6.502  0.4522 -0.1502 -3.5153
   17MOL    H5319285   5.937   5.518   6.556 -0.5380  0.4829  0.2886
   17MOL    H5419286   5.840   5.652   6.559 -1.3975 -1.5428  0.2843
   17MOL    H5519287   5.857   5.669   6.300 -0.4467  0.2807  1.1208
   17MOL    H5619288   5.996   5.565   6.311 -0.5662  0.4638  0.4967
   17MOL    H5719289   5.711   5.515   6.379 -0.6609 -1.0381 -0.0839
   17MOL    H5819290   5.814   5.394   6.410 -0.5435 -0.1870  0.2059
   17MOL    H5919291   5.855   5.374   6.149 -2.3761 -1.1140 -2.3940
   17MOL    H6019292   5.694   5.346   6.196 -1.5522  0.5012 -0.4812
   17MOL    H6119293   6.161   5.617   7.649  0.8297 -2.5045  0.4842
   17MOL    O6219294   5.797   5.596   6.027  0.6784  0.0515  0.6574
   17MOL    C6319295   5.762   5.712   5.955  0.1652 -0.1188  0.1173
   17MOL    C6419296   5.793   5.832   6.042  0.5699 -0.0174 -0.2561
   17MOL    C6519297   5.762   5.963   5.966  0.4973 -0.0445  0.0574
   17MOL    C6619298   5.768   6.090   6.044  0.6640 -0.1012  0.4053
   17MOL    C6719299   5.656   6.123   6.152  0.1138 -0.4298  0.7402
   17MOL    C6819300   5.689   6.234   6.241 -0.0195  0.2194 -0.3912
   17MOL    C6919301   5.693   6.370   6.170  0.2928 -0.0518 -0.0290
   17MOL    C7019302   5.740   6.487   6.250  0.1893  1.1542 -0.4891
   17MOL    C7119303   5.694   6.618   6.190  0.2453 -0.1111  0.2440
   17MOL    C7219304   5.783   6.735   6.241  0.4329 -0.1884 -0.2304
   17MOL    O7319305   5.778   6.763   6.381 -0.1560 -0.3756  0.3827
   17MOL    C7419306   5.685   6.854   6.426 -0.1629  0.7572 -0.8283
   17MOL    O7519307   5.603   6.915   6.358  0.6942  0.1800  0.1281
   17MOL    C7619308   5.690   6.871   6.572  0.1362  0.2863 -0.1930
   17MOL    C7719309   5.831   6.902   6.629 -0.0460 -0.8008 -0.0169
   17MOL    C7819310   5.813   6.966   6.772  0.4318 -0.0177 -0.2681
   17MOL    C7919311   5.949   7.010   6.836 -0.3152 -0.1580  0.0609
   17MOL    C8019312   5.945   7.057   6.979  0.3760 -0.1574  0.4474
   17MOL    C8119313   6.073   7.030   7.066  0.0113 -0.0053  0.2705
   17MOL    C8219314   6.047   7.065   7.214 -0.1858  0.3855  0.1527
   17MOL    C8319315   6.181   7.076   7.299 -0.6074  0.6204  0.2270
   17MOL    C8419316   6.235   6.940   7.359 -0.2390 -0.0412  0.1697
   17MOL    O8519317   6.280   6.844   7.302 -0.0455 -0.4058 -0.2605
   17MOL    H8619318   5.826   5.718   5.867 -0.9940 -0.3927 -0.7583
   17MOL    H8719319   5.663   5.708   5.912  0.2860  2.3995 -0.4526
   17MOL    H8819320   5.735   5.831   6.134 -1.6554 -2.0645 -1.6194
   17MOL    H8919321   5.897   5.842   6.073  1.0009 -0.1885 -1.6156
   17MOL    H9019322   5.836   5.966   5.885  0.7407 -2.3492  0.1517
   17MOL    H9119323   5.663   5.947   5.924 -0.0891  2.0829  0.5898
   17MOL    H9219324   5.870   6.094   6.084  0.6669 -2.0986  0.6620
   17MOL    H9319325   5.780   6.174   5.975  2.5818 -1.6467 -1.1991
   17MOL    H9419326   5.642   6.033   6.212  1.2971 -0.4926  0.9375
   17MOL    H9519327   5.569   6.138   6.089 -0.0134 -0.0974  0.9944
   17MOL    H9619328   5.777   6.207   6.300 -0.6181 -0.9929 -0.0302
   17MOL    H9719329   5.605   6.243   6.309  0.1862  1.2313 -0.2576
   17MOL    H9819330   5.595   6.376   6.124 -0.0765 -1.0627  0.6145
   17MOL    H9919331   5.746   6.365   6.074 -0.5939 -1.0256 -0.4806
   17MOL   H10019332   5.848   6.478   6.253  0.0538 -0.5424  0.3340
   17MOL   H10119333   5.721   6.495   6.357 -1.6728  0.5450 -0.7465
   17MOL   H10219334   5.710   6.614   6.082  0.6487  0.1783  0.2945
   17MOL   H10319335   5.589   6.639   6.213 -0.3188  2.3033 -3.9976
   17MOL   H10419336   5.884   6.704   6.214 -0.6889 -1.2466 -3.5068
   17MOL   H10519337   5.753   6.822   6.183  1.5223 -0.2634 -0.9171
   17MOL   H10619338   5.673   6.774   6.619  0.2615  1.0672  1.4922
   17MOL   H10719339   5.620   6.947   6.606 -0.3550 -0.3705  0.2559
   17MOL   H10819340   5.889   6.970   6.567  0.7527 -1.7103 -0.2793
   17MOL   H10919341   5.901   6.819   6.635  1.4782  0.3671 -1.1752
   17MOL   H11019342   5.758   6.897   6.836  1.7109 -0.1078  0.7267
   17MOL   H11119343   5.743   7.050   6.769  0.2140 -0.1856  0.1818
   17MOL   H11219344   5.982   7.096   6.777 -0.6003 -1.2333 -1.7024
   17MOL   H11319345   6.024   6.932   6.819 -0.6849 -0.6343  0.6086
   17MOL   H11419346   5.909   7.160   6.975 -2.6222 -1.2145 -1.6121
   17MOL   H11519347   5.862   6.995   7.015 -0.2664  0.5439  0.1992
   17MOL   H11619348   6.106   6.927   7.051  1.0886  0.6019 -1.7333
   17MOL   H11719349   6.145   7.094   7.014  0.8042 -0.9562  0.1869
   17MOL   H11819350   5.974   6.996   7.256  0.8805 -0.1120  1.2304
   17MOL   H11919351   6.009   7.167   7.214 -1.6762 -0.1038 -3.0141
   17MOL   H12019352   6.249   7.098   7.217 -0.8409  1.3095  0.2184
   17MOL   H12119353   6.180   7.156   7.372  1.0492  2.0195 -1.2185
   17MOL   O12219354   6.215   6.934   7.492 -0.1606 -0.5641  0.3359
   17MOL   C12319355   6.229   6.811   7.565  0.0233  0.4088  0.0013
   17MOL   C12419356   6.362   6.815   7.637 -0.2216 -0.6138  0.7752
   17MOL   C12519357   6.395   6.681   7.705  0.5200 -0.2691  0.9656
   17MOL   C12619358   6.508   6.684   0.051  0.5790  0.2078 -1.3060
   17MOL   C12719359   6.512   6.553   0.137 -0.1934 -0.1724 -0.2096
   17MOL   C12819360   6.551   6.418   0.063 -0.3427 -0.0184  0.2666
   17MOL   C12919361   6.695   6.422   0.003 -0.0292 -0.2307 -0.5446
   17MOL   C13019362   6.728   6.275   7.734 -0.3427  0.5355  0.3393
   17MOL   C13119363   6.856   6.274   7.642  1.0063  0.1395  0.3952
   17MOL   C13219364   6.911   6.141   7.596  0.3836  0.1697 -0.0122
   17MOL   O13319365   7.012   6.180   7.506  0.1524 -0.4124  0.2061
   17MOL   C13419366   7.144   6.175   7.551  0.5779  0.0420  0.1452
   17MOL   O13519367   7.177   6.142   7.663 -0.4344 -0.1236 -0.5926
   17MOL   C13619368   7.240   6.218   7.448  0.4749  0.0618  0.3559
   17MOL   C13719369   7.315   6.100   7.379 -0.3915  0.6340  0.0590
   17MOL   C13819370   7.418   6.151   7.272 -0.0333 -0.0096  0.6338
   17MOL   C13919371   7.492   6.035   7.209 -0.3195 -0.1465  0.2501
   17MOL   C14019372   7.605   6.081   7.119 -0.1656 -0.2169  0.0373
   17MOL   C14119373   7.653   5.976   7.022  0.0722  0.5931 -0.2334
   17MOL   C14219374   7.726   5.858   7.085  0.2634  0.6554  0.3725
   17MOL   C14319375   0.004   5.742   6.992 -0.0218  0.0723 -0.4344
   17MOL   C14419376   0.124   5.784   6.907 -0.4107 -0.2329  0.0879
   17MOL   O14519377   0.109   5.862   6.810 -0.5550  0.0703 -0.8067
   17MOL   H14619378   6.144   6.804   7.634  1.2729  2.9818  1.8763
   17MOL   H14719379   6.219   6.721   7.504 -1.6892 -0.3562  1.3555
   17MOL   H14819380   6.444   6.827   7.566  0.5445  2.5826  2.1319
   17MOL   H14919381   6.355   6.901   7.703  0.8767 -0.0427  0.1543
   17MOL   H15019382   6.303   6.649   7.755  0.7978  1.3350  2.5774
   17MOL   H15119383   6.416   6.605   7.630 -2.1398  0.3446 -0.5059
   17MOL   H15219384   6.603   6.712   0.006  0.3377  1.4566 -1.0483
   17MOL   H15319385   6.484   6.755   0.129 -0.8150 -2.4233  0.7578
   17MOL   H15419386   6.419   6.543   0.193  0.4181  2.4374  1.3836
   17MOL   H15519387   6.590   6.568   0.212  0.0522  0.3078 -0.5576
   17MOL   H15619388   6.473   6.406   7.745  2.0972 -1.8052 -2.0822
   17MOL   H15719389   6.550   6.332   0.130 -2.6011 -0.4739 -0.3129
   17MOL   H15819390   6.768   6.466   0.070  0.1219 -1.2056 -0.0542
   17MOL   H15919391   6.688   6.477   7.666 -0.1560 -0.0861 -0.4509
   17MOL   H16019392   6.644   6.221   7.690  1.3161 -1.8609  0.0278
   17MOL   H16119393   6.752   6.226   0.072 -1.4898 -0.9762 -0.1230
   17MOL   H16219394   6.827   6.326   7.551  1.0627 -0.3206  0.1143
   17MOL   H16319395   6.943   6.326   7.683  1.5623 -0.2665 -0.2824
   17MOL   H16419396   6.939   6.094   7.690 -0.4967 -2.5021 -1.0359
   17MOL   H16519397   6.834   6.082   7.545  0.0275 -0.9036  1.7159
   17MOL   H16619398   7.315   6.274   7.504  0.9224 -0.5741  0.4072
   17MOL   H16719399   7.192   6.278   7.371  1.3568  0.0550 -0.2157
   17MOL   H16819400   7.237   6.042   7.330 -0.3848  0.8673 -0.2313
   17MOL   H16919401   7.364   6.035   7.450  1.6668  1.5817 -0.4603
   17MOL   H17019402   7.470   6.240   7.307  1.7478 -1.6260  2.2162
   17MOL   H17119403   7.354   6.195   7.196 -0.5633 -0.6618  0.6943
   17MOL   H17219404   7.415   5.980   7.153 -0.2158 -0.3026  0.2626
   17MOL   H17319405   7.522   5.974   7.293 -1.1346  1.3040  1.6256
   17MOL   H17419406   7.583   6.172   7.063  2.5512  0.5616  0.1374
   17MOL   H17519407   7.691   6.111   7.180  1.1404  1.5252 -2.6082
   17MOL   H17619408   7.573   5.917   6.977  1.0068 -1.3090  0.5328
   17MOL   H17719409   7.713   6.020   6.942 -1.8104  0.3802 -1.8178
   17MOL   H17819410   7.664   5.825   7.168 -0.0415  0.7690  0.1903
   17MOL   H17919411   0.053   5.882   7.150 -0.4460 -0.8161  1.8796
   17MOL   H18019412   0.040   5.654   7.044  1.1927  1.4298  1.0809
   17MOL   H18119413   7.675   5.710   6.933 -1.3263  0.6429  1.1177
   17MOL   O18219414   0.248   5.744   6.960  0.4172 -0.3016  0.1736
   17MOL   C18319415   0.368   5.791   6.891  1.3494 -0.5175  0.7210
   17MOL   C18419416   0.478   5.800   6.993 -0.2968  0.1122  0.1757
   17MOL   C18519417   0.605   5.860   6.938 -0.3525 -0.1985 -0.4388
   17MOL   C18619418   0.681   5.771   6.837 -0.2349 -0.4696  0.1369
   17MOL   C18719419   0.810   5.840   6.784  0.3476 -0.3040 -0.2767
   17MOL   C18819420   0.879   5.744   6.675 -0.6389 -0.0905  0.2780
   17MOL   C18919421   1.027   5.786   6.640  0.2396  0.3896 -0.3440
   17MOL   C19019422   1.031   5.886   6.525  0.3627  0.2822  0.0185
   17MOL   C19119423   1.170   5.941   6.506 -0.0707 -0.5777  0.8304
   17MOL   C19219424   1.172   6.047   6.389  0.0633 -0.4536 -0.1938
   17MOL   O19319425   1.300   6.099   6.379 -0.1367 -0.1271 -0.3284
   17MOL   C19419426   1.323   6.201   6.300  0.3295 -0.1602  0.4883
   17MOL   O19519427   1.241   6.283   6.256 -0.4020  0.5248  0.0402
   17MOL   C19619428   1.468   6.216   6.267 -0.0427  0.1956 -0.3948
   17MOL   C19719429   1.564   6.239   6.390 -0.1299  0.3420  0.3933
   17MOL   C19819430   1.589   6.117   6.483 -0.0444 -0.4995 -0.3544
   17MOL   C19919431   1.526   6.137   6.620 -1.0703  0.3368 -0.3474
   17MOL   C20019432   1.486   6.003   6.683  0.0271 -0.2087  0.2362
   17MOL   C20119433   1.412   6.005   6.816  0.2260  0.0998 -0.5030
   17MOL   C20219434   1.388   5.866   6.884 -0.5017 -0.5676 -0.8280
   17MOL   C20319435   1.278   5.868   6.987  0.1549 -0.3812 -0.2364
   17MOL   C20419436   1.245   5.732   7.053  0.5304 -0.0301  0.0148
   17MOL   O20519437   1.209   5.636   6.981 -0.1738 -0.1764 -0.0265
   17MOL   H20619438   0.391   5.721   6.810  0.1513  1.2154 -1.1739
   17MOL   H20719439   0.357   5.890   6.847  2.1579 -0.7029  0.0747
   17MOL   H20819440   0.444   5.864   7.074  0.5282 -1.3828  1.7369
   17MOL   H20919441   0.487   5.705   7.045 -0.6209  0.2481  0.4765
   17MOL   H21019442   0.578   5.958   6.899 -0.8231  0.3769  1.2623
   17MOL   H21119443   0.669   5.870   7.026 -0.1020  0.1152 -0.6577
   17MOL   H21219444   0.695   5.673   6.882  1.8821  0.3749  1.3755
   17MOL   H21319445   0.613   5.765   6.752 -0.7216 -0.8821  0.5577
   17MOL   H21419446   0.877   5.849   6.869  1.0011 -0.3619 -0.7761
   17MOL   H21519447   0.790   5.939   6.744 -1.3725  0.4600  2.3906
   17MOL   H21619448   0.823   5.740   6.582  1.0372 -1.1711 -0.7188
   17MOL   H21719449   0.884   5.642   6.713  0.8011 -0.4688 -0.8601
   17MOL   H21819450   1.077   5.696   6.603  1.3056  0.2482  1.3933
   17MOL   H21919451   1.077   5.826   6.728 -1.3069  1.4933  0.0491
   17MOL   H22019452   0.957   5.964   6.545  0.2018  0.2695 -0.5252
   17MOL   H22119453   1.002   5.837   6.432  0.8843  0.0793 -0.0394
   17MOL   H22219454   1.202   5.978   6.604  0.3910 -2.5516  1.4466
   17MOL   H22319455   1.243   5.865   6.478 -1.3603 -1.3100 -0.5923
   17MOL   H22419456   1.126   6.018   6.295 -1.4133  2.9652 -0.6197
   17MOL   H22519457   1.114   6.131   6.429  1.9098  0.7390  0.0438
   17MOL   H22619458   1.485   6.309   6.212 -0.7789  0.6469  0.1273
   17MOL   H22719459   1.500   6.136   6.199 -0.0036  0.3650 -0.5776
   17MOL   H22819460   1.532   6.320   6.456  0.9121  0.7234  0.4464
   17MOL   H22919461   1.661   6.264   6.348  1.2515 -1.5498  2.3388
   17MOL   H23019462   1.696   6.095   6.484 -0.6777 -3.9248  0.0448
   17MOL   H23119463   1.545   6.027   6.437  1.1603 -2.2814  1.8957
   17MOL   H23219464   1.436   6.199   6.615 -0.6145  0.8626 -2.0933
   17MOL   H23319465   1.590   6.203   6.679 -1.7259  0.4474  0.2607
   17MOL   H23419466   1.427   5.957   6.604 -0.4470  1.1211 -0.2027
   17MOL   H23519467   1.574   5.940   6.694 -0.6631 -1.1715  0.3782
   17MOL   H23619468   1.480   6.058   6.883  0.0067  1.5458 -1.4171
   17MOL   H23719469   1.320   6.063   6.808 -0.3251 -1.0523 -2.8576
   17MOL   H23819470   1.480   5.833   6.931 -1.0464 -1.3715 -0.3090
   17MOL   H23919471   1.364   5.777   6.825  0.2110 -0.1042 -1.8176
   17MOL   H24019472   1.299   5.945   7.062  0.6035  0.5007 -1.2496
   17MOL   H24119473   1.183   5.901   6.945  0.4359 -0.3015 -0.8063
   17MOL   O24219474   1.251   5.737   7.184  0.0939  0.1816  0.1447
   17MOL   C24319475   1.212   5.628   7.266  0.2699  0.7843  0.6130
   17MOL   C24419476   1.060   5.603   7.271 -0.1799 -0.1144 -0.4221
   17MOL   C24519477   0.962   5.727   7.305 -0.5586 -0.1801  0.5067
   17MOL   C24619478   0.820   5.696   7.300 -0.0834 -0.1932 -0.5442
   17MOL   C24719479   0.758   5.642   7.429  0.4004  0.2680 -0.5778
   17MOL   C24819480   0.606   5.628   7.431 -0.4728 -0.6445  0.2965
   17MOL   C24919481   0.553   5.598   7.575 -0.2589  0.4449 -0.0869
   17MOL   C25019482   0.407   5.587   7.595 -0.1615 -0.2310  0.7066
   17MOL   C25119483   0.380   5.584   7.745 -0.3677  0.3530  0.1442
   17MOL   C25219484   0.235   5.564   0.045 -0.2890  1.0769  0.6275
   17MOL   O25319485   0.175   5.461   7.728 -0.7040 -0.1576  0.1221
   17MOL   C25419486   0.214   5.333   0.001  0.1299  0.2808  0.0625
   17MOL   O25519487   0.292   5.300   0.090 -0.9190 -0.2655 -0.3588
   17MOL   C25619488   0.143   5.237   7.667 -0.5879  0.1979 -1.3914
   17MOL   C25719489   0.208   5.219   7.526 -0.6259 -0.2707 -0.0559
   17MOL   C25819490   0.363   5.210   7.530  0.6759 -0.7417 -0.4670
   17MOL   C25919491   0.406   5.088   7.611 -0.1036  0.2296  0.7196
   17MOL   C26019492   0.547   5.041   7.582  0.0804 -0.0994 -0.7382
   17MOL   C26119493   0.666   5.150   7.580  0.0557  0.6199 -0.6801
   17MOL   C26219494   0.800   5.082   7.554  0.3170  0.1039  0.3022
   17MOL   C26319495   0.918   5.178   7.543  0.6898 -0.2490 -0.1011
   17MOL   C26419496   0.948   5.246   7.670 -0.5643  0.2972  0.3226
   17MOL   O26519497   0.952   5.193   0.026  0.1681  0.1850 -0.1453
   17MOL   H26619498   1.257   5.531   7.243 -1.0527  0.7540 -1.9872
   17MOL   H26719499   1.249   5.650   7.366 -0.8347  0.0282  1.2104
   17MOL   H26819500   1.023   5.563   7.176 -2.0395 -0.5767  0.4592
   17MOL   H26919501   1.034   5.528   7.346  1.1263  0.1286  0.2770
   17MOL   H27019502   0.996   5.776   7.396  0.5352  1.9971 -1.0270
   17MOL   H27119503   0.988   5.800   7.228  0.2889 -2.2045 -1.1644
   17MOL   H27219504   0.772   5.793   7.284 -1.7307 -1.0832 -1.0692
   17MOL   H27319505   0.797   5.629   7.217  0.1243 -0.1760 -0.6149
   17MOL   H27419506   0.794   5.708   7.509  0.7564  0.8484 -1.2059
   17MOL   H27519507   0.798   5.544   7.454  0.4824  0.0052 -1.7308
   17MOL   H27619508   0.569   5.561   7.353  0.2724  1.1743 -1.6646
   17MOL   H27719509   0.559   5.715   7.385  0.2154 -0.5702 -0.2694
   17MOL   H27819510   0.604   5.671   7.638 -1.2386  0.7127  0.4059
   17MOL   H27919511   0.581   5.497   7.605 -0.1301 -0.0911 -1.9753
   17MOL   H28019512   0.355   5.510   7.537  0.2005  0.5786 -0.7268
   17MOL   H28119513   0.371   5.686   7.566  1.3462  0.0954 -0.1069
   17MOL   H28219514   0.439   5.510   0.042 -0.8183  0.1257  0.3310
   17MOL   H28319515   0.419   5.672   0.040  0.3398  0.4435 -0.5497
   17MOL   H28419516   0.220   5.551   0.152 -1.8349 -0.2866  0.2613
   17MOL   H28519517   0.184   5.656   0.016 -1.4396  1.4720  3.7882
   17MOL   H28619518   0.038   5.266   7.668  0.0404  2.5932 -0.7016
   17MOL   H28719519   0.134   5.140   7.715 -0.2182  1.0206  0.3692
   17MOL   H28819520   0.170   5.299   7.463 -2.1020 -0.4202  0.6290
   17MOL   H28919521   0.173   5.124   7.488 -2.3007 -0.4253  1.7649
   17MOL   H29019522   0.406   5.306   7.560 -0.4392  0.2743 -2.0046
   17MOL   H29119523   0.386   5.185   7.427 -2.4574 -1.3599 -1.0675
   17MOL   H29219524   0.346   4.998   7.598  1.5737 -0.6725 -1.0805
   17MOL   H29319525   0.383   5.114   7.714 -0.2213  0.7081  0.5778
   17MOL   H29419526   0.565   4.959   7.652  0.4395  0.1131 -0.5795
   17MOL   H29519527   0.550   4.994   7.484 -0.0734 -0.7187 -0.4485
   17MOL   H29619528   0.653   5.232   7.509  1.7310 -0.2551 -2.0534
   17MOL   H29719529   0.670   5.193   7.680 -0.1330  0.0777 -0.4367
   17MOL   H29819530   0.800   5.019   7.465  1.4757 -0.8816  0.9760
   17MOL   H29919531   0.821   5.011   7.634 -0.7493  1.1962  1.5681
   17MOL   H30019532   1.010   5.123   7.523  1.0774  0.9739 -1.7344
   17MOL   H30119533   0.909   5.237   7.452 -4.4046  1.5534  1.3965
   17MOL   O30219534   0.971   5.378   7.646 -0.8291  0.4215 -0.1775
   17MOL   C30319535   0.983   5.464   0.000 -0.4677  0.3526 -0.4739
   17MOL   C30419536   1.033   5.600   7.692  0.1962  0.1519 -0.0759
   17MOL   C30519537   1.183   5.595   7.661  0.0326  0.1179  0.1320
   17MOL   C30619538   1.275   5.588   0.028  0.3169  0.9878 -0.1750
   17MOL   C30719539   1.422   5.562   7.751  0.5128  0.4050 -0.1381
   17MOL   C30819540   1.517   5.556   0.114 -0.1757  0.1317 -0.0105
   17MOL   C30919541   1.660   5.546   0.069  0.0291 -0.1196 -1.0430
   17MOL   C31019542   1.759   5.568   0.182 -0.1713 -0.4559  0.4471
   17MOL   C31119543   1.904   5.567   0.125 -0.8144  0.0606  0.5932
   17MOL   C31219544   2.004   5.613   0.224 -0.3752 -1.0890  0.1847
   17MOL   O31319545   2.010   5.755   0.228 -0.1091  0.3361  0.0091
   17MOL   C31419546   2.071   5.806   0.333 -0.2686 -0.5488  0.3375
   17MOL   O31519547   2.148   5.754   0.410  0.1878  0.0792 -0.1794
   17MOL   C31619548   2.047   5.960   0.333 -0.0097 -0.4153  0.6723
   17MOL   C31719549   1.917   6.008   0.256  0.0800  0.6120 -0.6828
   17MOL   C31819550   1.931   6.022   0.102 -0.8713  0.2511 -0.8491
   17MOL   C31919551   1.818   6.105   0.047 -1.1216 -0.1275  0.2093
   17MOL   C32019552   1.837   6.146   7.654  0.4911  0.1533 -0.7897
   17MOL   C32119553   1.850   6.035   7.556 -0.0496  0.2562 -0.2232
   17MOL   C32219554   1.854   6.067   7.403  0.0180  0.1316 -0.3191
   17MOL   C32319555   1.951   6.177   7.364  1.0534 -0.1259  0.4922
   17MOL   C32419556   2.101   6.131   7.374  0.3762 -0.6347  0.0779
   17MOL   O32519557   2.143   6.021   7.340  0.2322 -0.4977  0.2477
   17MOL   H32619558   0.883   5.479   0.042 -0.7432 -1.4284 -0.4727
   17MOL   H32719559   1.042   5.420   0.080 -0.9600 -0.0359 -0.3196
   17MOL   H32819560   0.973   5.618   7.603 -0.8176 -0.0731  0.5426
   17MOL   H32919561   1.011   5.680   0.005 -3.1879 -0.6810 -0.0841
   17MOL   H33019562   1.201   5.512   7.593 -0.5282  0.0539  0.0667
   17MOL   H33119563   1.206   5.685   7.605 -1.9661  0.0894 -0.7696
   17MOL   H33219564   1.260   5.687   0.072 -1.1419 -1.0994  4.3685
   17MOL   H33319565   1.247   5.501   0.088 -1.9070 -0.0369 -2.5974
   17MOL   H33419566   1.460   5.633   7.677 -0.8390 -1.5936 -2.8381
   17MOL   H33519567   1.419   5.469   7.694  0.6103  1.2648 -1.5790
   17MOL   H33619568   1.498   5.472   0.180 -0.8283 -0.6555 -1.1930
   17MOL   H33719569   1.510   5.634   0.190  1.0612  0.8687 -0.6294
   17MOL   H33819570   1.673   5.623   7.749  1.8170  1.1005  0.4545
   17MOL   H33919571   1.684   5.457   0.011 -1.2642 -0.1222 -1.6063
   17MOL   H34019572   1.754   5.488   0.256 -2.0484 -2.1936 -1.4811
   17MOL   H34119573   1.741   5.665   0.229  2.3132  0.6266 -0.7581
   17MOL   H34219574   1.934   5.474   0.076 -2.5032  0.6683 -1.6678
   17MOL   H34319575   1.909   5.642   0.046 -0.1014 -0.3687  0.2098
   17MOL   H34419576   1.970   5.579   0.322 -2.6140 -0.2257 -0.2426
   17MOL   H34519577   2.105   5.579   0.204  0.7825  0.5023  3.0401
   17MOL   H34619578   2.134   6.017   0.301  0.2677 -1.9366 -1.3765
   17MOL   H34719579   2.038   5.986   0.439 -3.1062 -0.8353  0.5700
   17MOL   H34819580   1.892   6.105   0.300  0.2269  0.6095 -0.5942
   17MOL   H34919581   1.843   5.935   0.288  1.0059  0.5043  1.3177
   17MOL   H35019582   1.931   5.922   0.059 -1.6701 -0.7096  1.2796
   17MOL   H35119583   2.028   6.071   0.093  0.2793 -1.5341  1.2964
   17MOL   H35219584   1.800   6.194   0.107  0.7402 -0.0439  0.6832
   17MOL   H35319585   1.725   6.051   0.064 -1.0253 -0.6884 -1.0151
   17MOL   H35419586   1.753   6.214   7.638  1.2513  1.5465  0.9661
   17MOL   H35519587   1.928   6.206   7.646  0.6037  0.1799  0.6641
   17MOL   H35619588   1.947   5.988   7.574 -0.9396 -0.8321  2.0398
   17MOL   H35719589   1.783   5.955   7.588  1.6616 -1.7385 -1.4207
   17MOL   H35819590   1.748   6.084   7.382 -0.2661 -0.8221  0.3300
   17MOL   H35919591   1.855   5.974   7.346 -1.9772 -0.8961  1.2576
   17MOL   H36019592   1.935   6.206   7.260 -0.4022  0.3052  0.8236
   17MOL   H36119593   1.942   6.273   7.416 -1.6700  0.0560 -0.2235
   17MOL   O36219594   2.173   6.222   7.430 -0.4298  0.4166  0.6002
   17MOL   C36319595   2.311   6.229   7.431  0.1630 -0.2302  0.0546
   17MOL   C36419596   2.363   6.129   7.540 -0.3943 -0.3213  0.8080
   17MOL   C36519597   2.515   6.138   7.553 -0.2821 -0.0372  0.0123
   17MOL   C36619598   2.573   6.276   7.601  0.0307 -0.3468  0.1446
   17MOL   C36719599   2.724   6.273   7.604 -0.7149  0.6838 -0.3401
   17MOL   C36819600   2.784   6.160   7.696 -0.1559 -0.3795 -0.1189
   17MOL   C36919601   2.929   6.189   7.708 -1.2383  0.4215 -0.0421
   17MOL   C37019602   3.000   6.076   0.026 -0.3610  0.3429 -0.1343
   17MOL   C37119603   3.140   6.100   0.085  0.1802  0.2722 -0.3575
   17MOL   C37219604   3.206   5.965   0.117  0.1124 -0.4166 -0.2462
   17MOL   O37319605   3.139   5.891   0.213  0.1003 -0.3068  0.3963
   17MOL   C37419606   3.194   5.777   0.256 -0.2060  0.0300  1.0159
   17MOL   O37519607   3.301   5.727   0.212 -0.6835 -0.0183  0.0414
   17MOL   C37619608   3.115   5.712   0.373  0.8406 -0.8546 -0.1986
   17MOL   C37719609   3.154   5.570   0.405 -0.6741  0.3506  0.0378
   17MOL   C37819610   3.074   5.500   0.512 -0.3865 -0.2718  0.2354
   17MOL   C37919611   3.095   5.570   0.646  0.4578  0.0170 -1.2912
   17MOL   C38019612   3.002   5.498   0.752 -0.2321 -0.3821  0.0605
   17MOL   C38119613   2.858   5.562   0.740  0.0004 -0.4147  0.7171
   17MOL   C38219614   2.746   5.470   0.786 -0.4604 -0.3401  0.2243
   17MOL   C38319615   2.759   5.431   0.931 -0.2082 -0.1244 -0.0244
   17MOL   C38419616   2.649   5.335   0.975 -0.0301 -0.1046 -0.3200
   17MOL   O38519617   2.546   5.338   0.912  0.0432 -0.3169  0.0158
   17MOL   H38619618   2.356   6.194   7.338 -1.5886  0.2856 -1.0147
   17MOL   H38719619   2.350   6.330   7.449  0.5211 -0.4872  0.7333
   17MOL   H38819620   2.320   6.141   7.640 -1.1259  0.7674  0.3696
   17MOL   H38919621   2.334   6.028   7.512  0.7609  0.0445 -1.8623
   17MOL   H39019622   2.525   6.066   7.634  1.2123  0.7593  0.5510
   17MOL   H39119623   2.554   6.097   7.460 -3.7414 -0.3647 -1.3615
   17MOL   H39219624   2.554   6.360   7.534 -0.0500 -0.6560 -0.2223
   17MOL   H39319625   2.535   6.291   7.702  1.5644 -1.6397  0.9389
   17MOL   H39419626   2.754   6.371   7.643  1.5166  0.2919 -1.0150
   17MOL   H39519627   2.768   6.271   7.505  2.4444  1.3332  1.0092
   17MOL   H39619628   2.780   6.058   7.658  3.3222 -0.4699 -0.4201
   17MOL   H39719629   2.738   6.162   0.038 -1.5763  1.6129 -0.7867
   17MOL   H39819630   2.945   6.288   7.752 -0.6983  1.8316 -3.2708
   17MOL   H39919631   2.979   6.192   7.612 -2.3400 -0.9590 -0.6805
   17MOL   H40019632   3.007   5.987   7.720 -1.5961 -0.4137  0.7802
   17MOL   H40119633   2.933   6.035   0.101  0.1415 -1.8732 -0.8580
   17MOL   H40219634   3.202   6.166   0.024  1.7546 -0.2588  0.6174
   17MOL   H40319635   3.129   6.155   0.178  1.2854  0.2996 -0.2310
   17MOL   H40419636   3.217   5.917   0.020 -1.8975  0.3669 -0.8848
   17MOL   H40519637   3.303   5.986   0.162 -0.2599  1.6164 -0.3465
   17MOL   H40619638   3.010   5.720   0.345  0.7923  0.5019  0.3192
   17MOL   H40719639   3.118   5.776   0.461  1.3708 -1.5612  0.3043
   17MOL   H40819640   3.259   5.574   0.433 -1.1400  1.1385  1.7361
   17MOL   H40919641   3.143   5.510   0.315 -3.7065  1.1216 -0.1594
   17MOL   H41019642   3.110   5.397   0.518  2.1951  0.5873 -0.0438
   17MOL   H41119643   2.969   5.502   0.481  0.0683  3.2284 -1.2478
   17MOL   H41219644   3.073   5.677   0.647 -1.9773 -0.4459  0.4564
   17MOL   H41319645   3.199   5.560   0.677  0.1213  1.1709  0.2507
   17MOL   H41419646   2.989   5.391   0.737  0.4231 -0.3801 -0.5554
   17MOL   H41519647   3.038   5.511   0.855  0.8736 -0.3282 -0.3237
   17MOL   H41619648   2.861   5.658   0.793  0.2763 -0.1198  0.1801
   17MOL   H41719649   2.838   5.599   0.640 -0.9645 -1.4373  0.5275
   17MOL   H41819650   2.736   5.373   0.736  0.3008 -0.4913  0.3504
   17MOL   H41919651   2.646   5.510   0.773 -0.2862  0.0778  0.1507
   17MOL   H42019652   2.855   5.380   0.946  1.4187  1.8300 -3.3306
   17MOL   H42119653   2.757   5.514   1.001 -0.0125  2.2819 -2.8026
   17MOL   O42219654   2.671   5.261   1.088 -0.7517 -0.1678 -0.1066
   17MOL   C42319655   2.573   5.179   1.138  0.7838  0.0387  0.8606
   17MOL   C42419656   2.619   5.082   1.253  0.1461 -0.2180 -0.2874
   17MOL   C42519657   2.629   5.151   1.390 -0.0596 -0.1163  1.1499
   17MOL   C42619658   2.645   5.043   1.494 -0.0290  0.3410 -0.2016
   17MOL   C42719659   2.791   4.992   1.507 -0.1242  0.6633 -0.4154
   17MOL   C42819660   2.881   5.105   1.555  0.1807  0.4552 -0.3638
   17MOL   C42919661   2.848   5.152   1.704 -0.1632  0.7059  0.1808
   17MOL   C43019662   2.936   5.260   1.766 -0.0876  0.1089  0.4923
   17MOL   C43119663   2.890   5.280   1.909 -0.0384 -0.9036 -0.9873
   17MOL   C43219664   2.980   5.386   1.974  0.3142 -0.0259 -0.1408
   17MOL   O43319665   2.924   5.402   2.102  0.0355  0.1825  0.2311
   17MOL   C43419666   3.007   5.437   2.208  0.7778 -0.3823  0.2142
   17MOL   O43519667   3.121   5.482   2.198  0.2022  0.1729 -0.3314
   17MOL   C43619668   2.929   5.433   2.339  0.2749  0.0835  0.2871
   17MOL   C43719669   2.948   5.294   2.401 -0.1075  0.5781  0.2215
   17MOL   C43819670   3.081   5.265   2.464 -0.3771 -0.0551 -0.7015
   17MOL   C43919671   3.085   5.127   2.530  0.1998  0.1962 -0.3809
   17MOL   C44019672   3.225   5.105   2.590  0.1257 -0.9401  0.0700
   17MOL   C44119673   3.258   4.963   2.622  0.6702 -0.3121  0.3811
   17MOL   C44219674   3.185   4.907   2.751  0.0043  0.4998 -1.0844
   17MOL   C44319675   3.218   4.762   2.791 -0.5650 -0.2058  0.5177
   17MOL   C44419676   3.124   4.661   2.724  0.1634 -0.7586 -0.1852
   17MOL   O44519677   3.062   4.570   2.791  0.4184 -0.1084  0.0041
   17MOL   H44619678   2.491   5.242   1.173  0.9091  1.2477 -0.9464
   17MOL   H44719679   2.537   5.116   1.058  0.3463 -0.3163  1.3342
   17MOL   H44819680   2.553   4.996   1.263 -0.6313  0.5719  1.5194
   17MOL   H44919681   2.715   5.038   1.225 -0.4872 -1.0351 -1.2443
   17MOL   H45019682   2.698   5.235   1.385 -1.2371  0.8016 -0.6902
   17MOL   H45119683   2.538   5.210   1.402  0.0192  0.2982 -0.1337
   17MOL   H45219684   2.618   5.069   1.596  0.2856 -1.3546  0.3281
   17MOL   H45319685   2.589   4.955   1.463  1.3495 -1.0516  1.2137
   17MOL   H45419686   2.827   4.944   1.417  2.0009  0.1576  0.6786
   17MOL   H45519687   2.794   4.921   1.589  1.9517 -1.1789 -2.0309
   17MOL   H45619688   2.903   5.185   1.484 -1.9624  0.2695 -1.2937
   17MOL   H45719689   2.976   5.054   1.568  0.5731  1.1039 -0.6382
   17MOL   H45819690   2.853   5.061   1.765 -2.1554  1.0386  0.8739
   17MOL   H45919691   2.748   5.194   1.704 -0.5244 -0.1369  0.5314
   17MOL   H46019692   2.927   5.344   1.698  0.0714  0.4400  0.8761
   17MOL   H46119693   3.036   5.216   1.773 -0.1226  0.1134  1.1085
   17MOL   H46219694   2.783   5.302   1.912 -0.0007 -0.6402 -1.4485
   17MOL   H46319695   2.899   5.184   1.959 -1.7430 -1.5519 -1.8729
   17MOL   H46419696   3.080   5.344   1.974  0.1941 -0.3590  1.6025
   17MOL   H46519697   2.977   5.478   1.916 -0.6190 -0.7302 -1.2309
   17MOL   H46619698   2.826   5.457   2.310 -0.6640 -3.0781  0.8455
   17MOL   H46719699   2.969   5.513   2.402  0.7026 -0.4339  0.6730
   17MOL   H46819700   2.925   5.222   2.322  2.1762 -0.0155  0.0718
   17MOL   H46919701   2.883   5.287   2.488  0.0035 -2.8723  0.0921
   17MOL   H47019702   3.110   5.340   2.537 -0.9091 -1.0596  0.5550
   17MOL   H47119703   3.160   5.262   2.390 -0.2576  0.4557 -0.5977
   17MOL   H47219704   3.064   5.057   2.449  0.5166  1.5467 -1.6604
   17MOL   H47319705   3.006   5.104   2.602  0.7972 -0.1233  0.1803
   17MOL   H47419706   3.302   5.136   2.519  0.2224 -1.3170  0.0077
   17MOL   H47519707   3.220   5.158   2.685  0.3119 -0.9490  0.0863
   17MOL   H47619708   3.230   4.897   2.539 -1.7790  0.3201  0.6531
   17MOL   H47719709   3.366   4.955   2.637  0.6233  0.7138  1.2495
   17MOL   H47819710   3.080   4.932   2.736  0.9419  3.6742 -2.8073
   17MOL   H47919711   3.215   4.976   2.829 -3.5057 -0.0556  0.8381
   17MOL   H48019712   3.326   4.745   2.791 -0.5815 -0.4301 -1.6969
   17MOL   H48119713   3.194   4.769   2.897  0.0113 -0.0225  0.6403
   17MOL   O48219714   3.125   4.673   2.589  0.4681  0.1010  0.0442
   17MOL   C48319715   3.054   4.584   2.505 -0.0201 -0.2337 -0.2259
   17MOL   C48419716   2.992   4.655   2.380  0.1221 -0.0414 -0.2761
   17MOL   C48519717   2.863   4.594   2.326  0.9286 -0.6524  0.3010
   17MOL   C48619718   2.815   4.668   2.196 -0.3148  0.3492  0.3212
   17MOL   C48719719   2.753   4.811   2.218 -0.2716 -0.6513  0.6497
   17MOL   C48819720   2.677   4.868   2.100  0.4685 -0.5203 -0.2018
   17MOL   C48919721   2.621   5.008   2.131  0.1463 -0.0108  0.0994
   17MOL   C49019722   2.539   5.052   2.015 -0.6444 -0.1081 -0.1189
   17MOL   C49119723   2.480   5.193   2.047  0.4064 -0.0525 -0.3391
   17MOL   C49219724   2.380   5.237   1.932  0.0563 -0.0492 -0.6712
   17MOL   O49319725   2.451   5.272   1.815  0.6041 -0.0106 -0.4079
   17MOL   C49419726   2.497   5.399   1.805  0.5120 -0.9596  0.2410
   17MOL   O49519727   2.484   5.491   1.883 -0.8689 -0.2255 -0.1308
   17MOL   C49619728   2.581   5.424   1.679 -0.2360  1.1131 -0.4498
   17MOL   C49719729   2.518   5.535   1.595 -0.3091 -0.4421  0.2556
   17MOL   C49819730   2.535   5.516   1.441  0.0918 -0.2881 -0.7499
   17MOL   C49919731   2.480   5.630   1.357  0.5140 -0.2635 -0.6230
   17MOL   C50019732   2.509   5.611   1.212  0.1276 -0.6372 -0.5842
   17MOL   C50119733   2.479   5.738   1.129 -0.5133 -0.0835 -0.0534
   17MOL   C50219734   2.532   5.748   0.990 -0.0552 -0.1589  0.0564
   17MOL   C50319735   2.494   5.879   0.921  0.0396  0.6043  0.0767
   17MOL   C50419736   2.534   5.888   0.781 -0.7140 -0.7212 -0.6834
   17MOL   O50519737   2.621   5.815   0.729 -0.5145  0.3435 -0.7010
   17MOL   H50619738   3.122   4.502   2.482  0.6743  0.4962 -0.8005
   17MOL   H50719739   2.976   4.526   2.554 -3.2545  2.4344 -2.0082
   17MOL   H50819740   2.975   4.758   2.414  4.4006  0.3863  0.9409
   17MOL   H50919741   3.066   4.666   2.301 -1.0544  0.9267 -1.2648
   17MOL   H51019742   2.880   4.490   2.298  1.0696 -0.9327  1.3871
   17MOL   H51119743   2.779   4.602   2.396 -0.2664  2.9011 -1.3773
   17MOL   H51219744   2.889   4.676   2.117 -0.7281 -1.6031 -0.2924
   17MOL   H51319745   2.731   4.612   2.155  1.4755 -1.0131 -1.6179
   17MOL   H51419746   2.841   4.873   2.231  0.3492 -1.1155 -1.1624
   17MOL   H51519747   2.695   4.811   2.310 -1.8553  0.7295 -0.3268
   17MOL   H51619748   2.602   4.795   2.069 -0.3692 -0.6639  2.0432
   17MOL   H51719749   2.746   4.857   2.016  2.4290 -3.6567  1.7249
   17MOL   H51819750   2.697   5.084   2.152 -0.3400  0.0069  1.8680
   17MOL   H51919751   2.565   5.009   2.224  0.3078  0.2205  0.1947
   17MOL   H52019752   2.452   4.988   2.001  0.3763 -1.2605 -1.3278
   17MOL   H52119753   2.592   5.040   1.920 -1.4614 -2.9197 -0.2624
   17MOL   H52219754   2.432   5.186   2.145 -1.1369  1.6151 -0.9487
   17MOL   H52319755   2.560   5.264   2.063 -0.1002  0.7801 -1.4225
   17MOL   H52419756   2.306   5.160   1.908 -1.2168  0.7059  0.6980
   17MOL   H52519757   2.318   5.317   1.973  0.4636  1.0616 -2.1692
   17MOL   H52619758   2.584   5.330   1.626  0.1973  1.4193 -0.9743
   17MOL   H52719759   2.686   5.438   1.708 -0.0541 -1.9678  0.5692
   17MOL   H52819760   2.585   5.620   1.609 -0.9053  0.4009 -1.8826
   17MOL   H52919761   2.416   5.559   1.623 -0.6033 -0.4355 -0.8042
   17MOL   H53019762   2.483   5.431   1.398 -1.1535  1.5454 -2.9360
   17MOL   H53119763   2.638   5.494   1.413 -0.1517 -2.6017  0.0548
   17MOL   H53219764   2.518   5.723   1.399  0.6368 -1.2151  1.4386
   17MOL   H53319765   2.372   5.631   1.371  0.8964 -0.5252  2.6876
   17MOL   H53419766   2.609   5.577   1.189  0.6660  0.3384  0.2494
   17MOL   H53519767   2.448   5.528   1.179  1.6830 -2.0826  0.1216
   17MOL   H53619768   2.372   5.759   1.128 -0.5251  0.2985  3.5335
   17MOL   H53719769   2.514   5.831   1.175  2.0014 -0.1943 -1.6800
   17MOL   H53819770   2.482   5.668   0.935  0.4743  0.1477 -0.8863
   17MOL   H53919771   2.640   5.731   0.989  0.2804  1.9209  0.5361
   17MOL   H54019772   2.385   5.883   0.914  0.0935  0.3934 -0.9986
   17MOL   H54119773   2.536   5.953   0.988 -1.3192  0.3350  1.2530
   17MOL   O54219774   2.462   5.977   0.714  0.0473 -0.8850 -0.4066
   17MOL   C54319775   2.502   6.007   0.582  0.5584  0.7360  0.1453
   17MOL   C54419776   2.411   6.121   0.522  0.6041 -0.4831  0.0383
   17MOL   C54519777   2.413   6.133   0.367  0.3864  0.9523  0.3304
   17MOL   C54619778   2.313   6.237   0.318 -0.2484 -0.7910  0.3232
   17MOL   C54719779   2.290   6.253   0.164  0.4426 -0.8130 -0.8470
   17MOL   C54819780   2.196   6.367   0.123 -0.0157 -0.6339  0.4135
   17MOL   C54919781   2.199   6.400   7.733 -0.1915  0.2453  0.2777
   17MOL   C55019782   2.140   6.536   7.702  0.1429 -0.3292  0.2823
   17MOL   C55119783   2.143   6.595   7.565 -0.3195 -0.1731  0.5442
   17MOL   C55219784   2.086   6.739   7.566 -0.7430  0.5629 -0.3322
   17MOL   O55319785   1.948   6.751   7.598 -0.5640  0.1439 -0.0285
   17MOL   C55419786   1.893   6.874   7.635 -0.7277 -0.1780  0.5320
   17MOL   O55519787   1.947   6.984   7.614  0.0542  0.2859  0.1074
   17MOL   C55619788   1.746   6.864   7.683  0.0417  0.4532 -0.2448
   17MOL   C55719789   1.655   6.794   7.582  0.2387  0.5998 -0.3916
   17MOL   C55819790   1.504   6.803   7.600  0.8184  0.3679  0.3085
   17MOL   C55919791   1.426   6.728   7.493 -0.1912  0.2890  0.0857
   17MOL   C56019792   1.282   6.758   7.510 -0.2185 -0.3133  0.1597
   17MOL   C56119793   1.201   6.680   7.405  0.0503 -0.5281  0.3281
   17MOL   C56219794   1.168   6.538   7.443  0.5903 -0.3406 -0.2121
   17MOL   C56319795   1.113   6.444   7.333 -0.5621  0.7334  0.8628
   17MOL   C56419796   0.984   6.489   7.268 -0.7793 -0.5134 -0.5957
   17MOL   O56519797   0.882   6.426   7.284 -0.1936 -0.2427  0.0991
   17MOL   H56619798   2.607   6.035   0.569  0.7938  0.0523  0.5637
   17MOL   H56719799   2.485   5.921   0.517  0.9070  1.0212 -0.3359
   17MOL   H56819800   2.312   6.083   0.546  0.1264  0.2172 -0.7610
   17MOL   H56919801   2.430   6.220   0.564 -1.0810 -0.2669  0.3549
   17MOL   H57019802   2.512   6.154   0.326  0.3384 -1.4001 -1.0883
   17MOL   H57119803   2.385   6.034   0.332  1.9582 -0.5291  3.1180
   17MOL   H57219804   2.214   6.236   0.365  0.2225  1.2795  1.4460
   17MOL   H57319805   2.355   6.330   0.358  0.9635 -0.9717 -0.4989
   17MOL   H57419806   2.248   6.162   0.122 -1.0651 -0.2450 -0.6263
   17MOL   H57519807   2.389   6.268   0.121  0.4869 -1.1380 -0.8565
   17MOL   H57619808   2.221   6.460   0.173  0.5453 -0.6717  0.2062
   17MOL   H57719809   2.091   6.346   0.142 -0.5534  0.0922 -1.5377
   17MOL   H57819810   2.136   6.332   7.675 -0.3664  2.0679 -1.7313
   17MOL   H57919811   2.303   6.397   7.698  0.1323 -1.5381  1.3616
   17MOL   H58019812   2.187   6.593   0.026  0.4878 -1.1795  0.6899
   17MOL   H58119813   2.035   6.536   7.729  0.3461 -3.5205  1.2913
   17MOL   H58219814   2.247   6.592   7.531 -0.6221  0.3998 -0.4547
   17MOL   H58319815   2.079   6.536   7.499  1.3292 -0.3670 -0.9155
   17MOL   H58419816   2.127   6.793   7.651 -0.8842 -0.2706  0.2743
   17MOL   H58519817   2.101   6.796   7.475 -2.1918  0.8510 -0.4159
   17MOL   H58619818   1.703   6.963   7.699  1.4639  0.8457  1.2166
   17MOL   H58719819   1.748   6.821   0.026 -1.0628 -0.5822 -0.6586
   17MOL   H58819820   1.671   6.686   7.586 -1.5137  0.3729  0.9886
   17MOL   H58919821   1.678   6.819   7.479 -2.4568  1.0230 -0.9118
   17MOL   H59019822   1.485   6.910   7.601  0.2092  0.2835 -1.1494
   17MOL   H59119823   1.481   6.764   7.699  0.4312 -2.0337 -0.7011
   17MOL   H59219824   1.451   6.622   7.485  0.4433  0.1754  2.9713
   17MOL   H59319825   1.455   6.768   7.396 -2.6348  0.6621 -0.5060
   17MOL   H59419826   1.247   6.732   7.610 -1.0602  0.0691 -0.0244
   17MOL   H59519827   1.254   6.862   7.493 -1.4097 -0.9134 -1.7756
   17MOL   H59619828   1.105   6.727   7.382 -0.5148 -1.3414  0.9623
   17MOL   H59719829   1.240   6.683   7.303 -0.4840  0.3198  0.1387
   17MOL   H59819830   1.102   6.531   7.530  0.5689  1.8123 -0.0372
   17MOL   H59919831   1.259   6.485   7.473  0.1393 -0.6822  0.5610
   17MOL   H60019832   1.188   6.436   7.254  1.3150 -0.0654  2.6586
   17MOL   H60119833   1.114   6.340   7.366  5.3446  0.3187  0.0232
   17MOL   O60219834   1.000   6.596   7.186 -0.0924  0.2369  0.1758
   17MOL   C60319835   0.888   6.662   7.124  0.2668 -0.9000 -0.2009
   17MOL   C60419836   0.931   6.729   6.991 -0.5078 -0.1839  0.0711
   17MOL   C60519837   1.019   6.851   7.007 -0.0193  0.5287 -0.8872
   17MOL   C60619838   1.080   6.918   6.880 -0.2323  0.3619 -0.5023
   17MOL   C60719839   0.972   6.973   6.780  0.1580 -0.0927 -0.2725
   17MOL   C60819840   0.883   7.088   6.830 -1.1120  0.6434 -1.3154
   17MOL   C60919841   0.949   7.224   6.884 -0.2966  0.4793  0.2175
   17MOL   C61019842   0.860   7.321   6.963  0.5666 -0.4282 -0.0454
   17MOL   C61119843   0.921   7.453   7.006 -0.6883  0.1320  0.1559
   17MOL   C61219844   0.828   7.526   7.104 -0.1070 -0.6942 -0.3520
   17MOL   O61319845   0.698   7.533   7.047 -0.5699  0.2267 -0.3459
   17MOL   C61419846   0.591   7.519   7.128  0.0372 -0.1772 -0.6981
   17MOL   O61519847   0.594   7.484   7.243  0.2745 -0.3056 -0.5427
   17MOL   C61619848   0.454   7.531   7.059 -0.0322 -0.0542  0.1447
   17MOL   C61719849   0.352   7.416   7.084  0.2271  0.1140  0.3279
   17MOL   C61819850   0.209   7.442   7.035  0.6203  0.3585  0.1411
   17MOL   C61919851   0.140   7.569   7.111  0.1022 -0.1863 -0.0869
   17MOL   C62019852   7.744   7.580   7.111  0.1291  0.5163  0.0855
   17MOL   C62119853   7.685   7.712   7.161 -0.2291  0.6813  0.1647
   17MOL   C62219854   7.530   7.722   7.167  0.0855  0.1324  0.5359
   17MOL   C62319855   7.481   0.092   7.236  0.5217  0.0824 -0.1127
   17MOL   C62419856   7.441   0.075   7.385 -0.1212  0.1982 -0.1553
   17MOL   O62519857   7.484   0.157   7.468  0.2842  0.0131  0.1763
   17MOL   H62619858   0.816   6.582   7.105  1.5117 -2.1758  0.3886
   17MOL   H62719859   0.841   6.742   7.182  0.5535 -0.6538 -0.3103
   17MOL   H62819860   0.990   6.654   6.938  1.0782 -0.3372  1.9939
   17MOL   H62919861   0.847   6.766   6.932 -1.8298 -0.4593  1.7294
   17MOL   H63019862   0.969   6.915   7.080 -0.3711  1.6822 -2.1203
   17MOL   H63119863   1.101   6.807   7.063 -0.4121 -2.2089 -2.3641
   17MOL   H63219864   1.139   7.004   6.910  1.1794 -0.1343 -1.7304
   17MOL   H63319865   1.143   6.856   6.815 -1.1256 -1.2414  0.1175
   17MOL   H63419866   0.907   6.900   6.732 -0.3802  0.6379 -0.6811
   17MOL   H63519867   1.027   6.998   6.689  1.1646 -0.3382  0.2713
   17MOL   H63619868   0.817   7.059   6.912 -0.2888 -0.4164 -1.0147
   17MOL   H63719869   0.826   7.115   6.741 -0.7225 -2.2757 -2.4958
   17MOL   H63819870   0.996   7.285   6.807  0.6416  0.9779  1.1774
   17MOL   H63919871   1.029   7.194   6.952  0.0954 -0.1993 -0.5375
   17MOL   H64019872   0.806   7.268   7.042 -0.6580 -0.0681 -0.6255
   17MOL   H64119873   0.784   7.353   6.892  1.1152 -0.0638 -0.4671
   17MOL   H64219874   1.020   7.437   7.050 -1.2035  1.3047  1.7629
   17MOL   H64319875   0.931   7.516   6.917 -1.2274  0.6011  0.4238
   17MOL   H64419876   0.831   7.479   7.203 -2.7770  0.6407  0.4008
   17MOL   H64519877   0.855   7.628   7.130 -0.6050 -0.6739  0.0934
   17MOL   H64619878   0.479   7.534   6.953 -0.0229  0.8188  0.1670
   17MOL   H64719879   0.401   7.625   7.076 -2.1969 -1.4693  1.5927
   17MOL   H64819880   0.354   7.398   7.192  1.2392  1.8006  0.6198
   17MOL   H64919881   0.399   7.325   7.047  2.3087  0.8671  1.0322
   17MOL   H65019882   0.164   7.345   7.057 -1.4606  0.9437 -1.4581
   17MOL   H65119883   0.200   7.451   6.927  0.4586  0.0963  0.1323
   17MOL   H65219884   0.182   7.660   7.068 -1.2683  0.0585 -0.9686
   17MOL   H65319885   0.179   7.551   7.211  0.4839 -0.7051 -0.3269
   17MOL   H65419886   7.713   7.566   7.007  0.7990 -0.5081  0.0081
   17MOL   H65519887   7.705   7.497   7.170  1.6754 -0.0855  0.2850
   17MOL   H65619888   7.717   7.733   7.263  1.2067 -0.6101 -0.0015
   17MOL   H65719889   7.738   0.032   7.105  1.8940 -2.0027 -1.6912
   17MOL   H65819890   7.489   7.630   7.207  0.5198  0.0484  0.7852
   17MOL   H65919891   7.479   7.724   7.071  0.7206  0.1362  0.1981
   17MOL   H66019892   7.558   0.170   7.237  0.7788 -0.1745  0.2807
   17MOL   H66119893   7.391   0.130   7.190  1.9600  3.1488 -0.5442
   17MOL   O66219894   7.361   7.725   7.401  0.1627 -0.6928  0.2881
   17MOL   C66319895   7.310   7.694   7.530  0.6275  0.3472 -0.9926
   17MOL   C66419896   7.283   7.544   7.530  0.2130 -0.4377 -0.7822
   17MOL   C66519897   7.278   7.480   7.663 -0.1268 -0.2476  0.4022
   17MOL   C66619898   7.212   7.335   7.670 -0.2986  0.0844  0.4649
   17MOL   C66719899   7.222   7.285   0.062  0.4050  0.2386  0.2165
   17MOL   C66819900   7.164   7.140   0.089  0.3050 -0.2716  0.5452
   17MOL   C66919901   7.215   7.073   0.217 -0.5121  0.0644 -0.0960
   17MOL   C67019902   7.149   7.136   0.339 -0.2938 -0.5873  0.0144
   17MOL   C67119903   7.218   7.100   0.469  0.0382 -0.0335 -0.0897
   17MOL   C67219904   7.165   7.174   0.589 -0.6452 -0.2640  0.2803
   17MOL   O67319905   7.213   7.307   0.579  0.6273  0.2122  0.1702
   17MOL   C67419906   7.171   7.395   0.665  0.2962  0.0274  0.1740
   17MOL   O67519907   7.089   7.368   0.752  0.0454 -0.0448  0.2238
   17MOL   C67619908   7.237   7.531   0.657  0.1730  0.1243 -0.1321
   17MOL   C67719909   7.290   7.568   0.519 -0.0532  0.2034  0.5796
   17MOL   C67819910   7.431   7.521   0.497  1.1197  0.4605 -0.4522
   17MOL   C67919911   7.453   7.510   0.348 -0.3124  0.2643 -0.2569
   17MOL   C68019912   7.594   7.472   0.302 -0.1621  0.7520 -0.4585
   17MOL   C68119913   7.612   7.319   0.295  0.0196  0.7329 -0.1933
   17MOL   C68219914   7.752   7.264   0.260 -0.0787  0.2579  0.3844
   17MOL   C68319915   0.052   7.289   0.112  0.3424  0.4148 -0.3601
   17MOL   C68419916   0.199   7.248   0.085  0.0616 -0.1455 -0.3281
   17MOL   O68519917   0.268   7.188   0.167  0.1653  0.3172  0.1158
   17MOL   H68619918   7.380   7.727   7.608  2.1320 -1.5154 -1.5321
   17MOL   H68719919   7.222   7.754   7.553  0.3067 -0.5890  0.3026
   17MOL   H68819920   7.189   7.533   7.476  0.3399 -1.9432 -0.6945
   17MOL   H68919921   7.353   7.490   7.467 -0.3325 -1.8976 -0.1546
   17MOL   H69019922   7.381   7.472   7.697 -0.4176  0.1142  1.3929
   17MOL   H69119923   7.236   7.553   7.733  1.1599  0.4016  0.5104
   17MOL   H69219924   7.106   7.344   7.649 -0.1745 -0.1663 -0.2802
   17MOL   H69319925   7.257   7.258   7.607  0.8167  0.5136  0.7275
   17MOL   H69419926   7.161   7.357   0.117 -0.7276 -0.0328 -0.6630
   17MOL   H69519927   7.329   7.280   0.084  0.4819 -0.3367 -0.2519
   17MOL   H69619928   7.211   7.066   0.024 -0.4367 -0.5764  0.3602
   17MOL   H69719929   7.056   7.134   0.079  0.0061  1.3997  2.3211
   17MOL   H69819930   7.323   7.076   0.230 -0.4100  1.3276 -1.1695
   17MOL   H69919931   7.187   6.968   0.217 -0.9151  0.1593  1.1511
   17MOL   H70019932   7.043   7.115   0.355  0.2763 -2.4891  1.5192
   17MOL   H70119933   7.141   7.244   0.330 -1.4224 -0.6070  0.6539
   17MOL   H70219934   7.208   6.995   0.498  1.3632  0.1939  1.2934
   17MOL   H70319935   7.326   7.111   0.468  0.1074 -0.6969 -0.4525
   17MOL   H70419936   7.057   7.161   0.594 -0.4522 -1.9357  0.2302
   17MOL   H70519937   7.217   7.143   0.680  1.3468 -0.5237 -0.9200
   17MOL   H70619938   7.312   7.524   0.735 -0.1752  1.6265  0.3505
   17MOL   H70719939   7.169   7.609   0.691  1.3452  1.4764 -0.8434
   17MOL   H70819940   7.284   7.676   0.509 -2.0079 -0.0410 -1.2709
   17MOL   H70919941   7.218   7.543   0.440  1.4632  1.1507 -1.1546
   17MOL   H71019942   7.436   7.425   0.548 -2.5533  1.7247  2.5058
   17MOL   H71119943   7.501   7.585   0.550  0.9056 -0.4999  1.0006
   17MOL   H71219944   7.429   7.611   0.315 -2.9610 -0.3697 -0.3813
   17MOL   H71319945   7.388   7.438   0.298  1.1501 -0.7026 -0.7998
   17MOL   H71419946   7.618   7.511   0.203 -0.1182 -0.1360 -0.8018
   17MOL   H71519947   7.668   7.507   0.373 -1.3956  0.9708  0.7443
   17MOL   H71619948   7.594   7.279   0.394  1.0802  0.4521 -0.1146
   17MOL   H71719949   7.546   7.279   0.218  0.6472 -1.8489  0.5546
   17MOL   H71819950   7.751   7.157   0.284 -0.1663  0.3482  0.7879
   17MOL   H71919951   0.063   7.314   0.329  0.3413  0.2298 -0.0041
   17MOL   H72019952   7.744   7.250   0.033 -1.7852  1.9356  0.6091
   17MOL   H72119953   0.055   7.398   0.105 -0.8338  0.5231  0.7402
   17MOL   O72219954   0.229   7.283   7.715 -0.7263 -0.3066  0.3770
   17MOL   C72319955   0.363   7.306   7.676 -0.2939  0.6770 -0.0948
   17MOL   C72419956   0.375   7.457   7.638 -0.1635  0.3066  0.0371
   17MOL   C72519957   0.520   7.489   7.612  0.2364  0.1005  0.6258
   17MOL   C72619958   0.545   7.633   7.580 -0.1845 -0.2843 -0.3450
   17MOL   C72719959   0.692   7.665   7.541  0.0485  0.0302  0.2954
   17MOL   C72819960   0.720   0.058   7.504  0.2720  0.2399  0.6452
   17MOL   C72919961   0.871   0.080   7.488  0.7082 -0.3387 -0.1077
   17MOL   C73019962   0.900   0.229   7.473 -0.4548  0.7717  0.3377
   17MOL   C73119963   1.044   0.262   7.423  0.2318 -0.0801 -0.3428
   17MOL   C73219964   1.069   0.409   7.408 -0.1377 -0.2628  0.5319
   17MOL   O73319965   1.203   0.434   7.382 -0.1009  0.2361 -0.0216
   17MOL   C73419966   1.252   0.556   7.391  0.1185  0.8777 -0.3211
   17MOL   O73519967   1.193   0.658   7.428 -0.9360 -0.2354  0.7293
   17MOL   C73619968   1.394   0.554   7.340  0.4460  0.8587 -0.1688
   17MOL   C73719969   1.486   0.508   7.451  0.4642 -0.3378 -0.4825
   17MOL   C73819970   1.501   0.599   7.577  0.7953 -1.0176  0.4263
   17MOL   C73919971   1.599   0.546   7.684  0.0778 -0.2258 -0.1147
   17MOL   C74019972   1.607   0.649   0.045  0.2844 -0.0602 -0.2369
   17MOL   C74119973   1.704   0.614   0.158  0.0967  0.6020  0.2636
   17MOL   C74219974   1.691   0.698   0.285  0.3259  0.8313  0.8472
   17MOL   C74319975   1.809   0.661   0.383 -0.3804 -0.3027 -0.3954
   17MOL   C74419976   1.938   0.742   0.359  0.2807  0.0340 -0.0044
   17MOL   O74519977   1.943   0.858   0.410 -0.6524  0.2536  0.6695
   17MOL   H74619978   0.436   7.286   7.754 -1.1589 -1.6851  0.1435
   17MOL   H74719979   0.377   7.235   7.594  3.1085  1.4934 -0.2895
   17MOL   H74819980   0.304   7.471   7.557 -1.4238 -0.2034  1.0466
   17MOL   H74919981   0.347   7.523   7.720  0.7697 -1.6154  1.9557
   17MOL   H75019982   0.585   7.458   7.694  0.5217 -1.5176 -0.2061
   17MOL   H75119983   0.563   7.434   7.529  0.0609  1.1990 -0.1995
   17MOL   H75219984   0.465   7.667   7.515  0.5797  1.0649 -0.6095
   17MOL   H75319985   0.530   7.692   7.670  0.3858  1.8024 -1.5956
   17MOL   H75419986   0.725   7.611   7.452  3.7809  1.7224  0.5562
   17MOL   H75519987   0.751   7.643   7.630 -1.8313 -1.9194  1.0972
   17MOL   H75619988   0.695   0.118   7.591  2.5606  1.0434  0.7804
   17MOL   H75719989   0.666   0.104   7.421 -0.3907 -0.8809  0.4475
   17MOL   H75819990   0.911   0.018   7.408 -0.9041  0.0568 -1.2488
   17MOL   H75919991   0.922   0.048   7.579  0.9926  1.3555  0.3502
   17MOL   H76019992   0.887   0.286   7.565  0.4937  1.8643 -0.1933
   17MOL   H76119993   0.828   0.261   7.398  0.6850 -0.7392 -1.4342
   17MOL   H76219994   1.119   0.213   7.485  1.2446 -1.4022 -2.5796
   17MOL   H76319995   1.057   0.210   7.328 -1.4604 -1.0021 -0.0819
   17MOL   H76419996   1.003   0.447   7.330 -0.4831 -1.7161  0.0905
   17MOL   H76519997   1.037   0.467   7.494 -0.0309  0.8593 -0.1743
   17MOL   H76619998   1.420   0.651   7.297  1.0036  0.7305 -0.1242
   17MOL   H76719999   1.422   0.480   7.265 -0.6031  0.6724 -0.3756
   17MOL   H76820000   1.590   0.501   7.418  0.3677 -0.4416 -0.7648
   17MOL   H76920001   1.460   0.408   7.484  2.5886 -1.6663 -2.7183
   17MOL   H77020002   1.406   0.593   7.632  0.3465 -0.4633 -0.2862
   17MOL   H77120003   1.512   0.705   7.551 -0.5541 -1.8718 -3.9370
   17MOL   H77220004   1.702   0.540   7.648  0.0665  2.2944 -0.6519
   17MOL   H77320005   1.572   0.444   7.712 -0.3665 -0.6795 -2.1421
   17MOL   H77420006   1.635   0.744   7.755  3.0044 -0.1463  1.1148
   17MOL   H77520007   1.510   0.667   0.091  0.3585  0.4126 -0.2629
   17MOL   H77620008   1.707   0.509   0.185  0.5480  0.5465  0.0112
   17MOL   H77720009   1.804   0.628   0.118 -0.1883 -0.3362 -0.7861
   17MOL   H77820010   1.608   0.680   0.353  0.8214  2.7255  1.9742
   17MOL   H77920011   1.692   0.807   0.277 -1.2954  0.7709 -0.6140
   17MOL   H78020012   1.777   0.681   0.485  1.2436 -0.3535  0.1373
   17MOL   H78120013   1.834   0.555   0.379 -0.9887 -0.5283  1.4337
   17MOL   O78220014   2.034   0.678   0.283 -0.1551  0.3822  0.1199
   17MOL   C78320015   2.152   0.745   0.268  0.3758 -0.4335  0.2333
   17MOL   C78420016   2.263   0.693   0.364 -0.3639  0.1777  0.1928
   17MOL   C78520017   2.289   0.540   0.358  0.0400 -1.2048  0.3676
   17MOL   C78620018   2.409   0.497   0.435  0.2715  0.1656  0.4680
   17MOL   C78720019   2.445   0.353   0.423 -0.1561 -0.5458  0.3456
   17MOL   C78820020   2.560   0.311   0.513  0.0343 -0.4864 -0.4688
   17MOL   C78920021   2.617   0.171   0.485  0.5898  0.0613 -0.3979
   17MOL   C79020022   2.662   0.110   0.612 -0.6967  1.2626 -0.2951
   17MOL   C79120023   2.796   0.162   0.675  0.1408 -0.0609  0.2650
   17MOL   C79220024   2.863   0.080   0.796 -0.2235 -0.2102  0.4093
   17MOL   O79320025   2.774   0.078   0.906 -0.1834 -0.0972  0.2851
   17MOL   C79420026   2.778   0.179   0.995 -0.3013 -0.2276  0.3602
   17MOL   O79520027   2.862   0.272   1.006 -0.4912  0.2437 -0.1262
   17MOL   C79620028   2.671   0.163   1.099  0.0474  0.5444  0.7647
   17MOL   C79720029   2.711   0.077   1.215  0.5981  0.2554  0.1271
   17MOL   C79820030   2.587   0.042   1.309 -0.3283 -0.2283  0.2035
   17MOL   C79920031   2.612   7.673   1.396 -0.6178  1.1450 -0.1463
   17MOL   C80020032   2.492   7.618   1.474  0.0584  0.0550  0.3317
   17MOL   C80120033   2.373   7.562   1.388  0.3944  0.4238  0.2190
   17MOL   C80220034   2.390   7.417   1.346 -0.6247  0.0030 -0.0738
   17MOL   C80320035   2.271   7.348   1.284  0.1408  0.2645  0.3679
   17MOL   C80420036   2.201   7.432   1.176 -0.1984 -0.5002  1.1155
   17MOL   O80520037   2.079   7.449   1.187 -0.2140  0.2556  0.1557
   17MOL   H80620038   2.178   0.746   0.163  2.1565  0.6527  0.6710
   17MOL   H80720039   2.141   0.851   0.291  0.8486  0.3963 -3.1262
   17MOL   H80820040   2.348   0.753   0.330 -0.5336  1.1788  1.4909
   17MOL   H80920041   2.244   0.727   0.466  0.0727  1.6878 -0.2195
   17MOL   H81020042   2.197   0.499   0.400 -0.8633  0.2733 -0.1164
   17MOL   H81120043   2.299   0.504   0.255 -0.8889 -1.8544  0.4985
   17MOL   H81220044   2.492   0.561   0.406  0.5308 -0.3326  0.1112
   17MOL   H81320045   2.391   0.518   0.541  1.4500  1.2623  0.4625
   17MOL   H81420046   2.476   0.338   0.319 -1.2681 -2.1644  0.2223
   17MOL   H81520047   2.356   0.298   0.451 -0.4629  0.0182  0.4985
   17MOL   H81620048   2.534   0.310   0.619  2.6013 -3.6180  0.2107
   17MOL   H81720049   2.644   0.380   0.519 -1.5065  1.3466  0.9719
   17MOL   H81820050   2.700   0.163   0.415  0.8552 -1.6971  0.0948
   17MOL   H81920051   2.546   0.098   0.447  0.2995  0.9716 -1.6372
   17MOL   H82020052   2.661   0.004   0.590  2.1386  1.0793  0.3363
   17MOL   H82120053   2.588   0.114   0.693 -0.5452  1.0127 -0.1455
   17MOL   H82220054   2.864   0.170   0.590  0.8406  0.9674  0.9117
   17MOL   H82320055   2.776   0.267   0.696  0.6127  0.3718 -1.3374
   17MOL   H82420056   2.885   7.731   0.781 -3.5459 -0.9231  0.0509
   17MOL   H82520057   2.958   0.127   0.821  0.7959 -1.9494 -0.1393
   17MOL   H82620058   2.589   0.108   1.052  1.4954 -1.6638  0.7530
   17MOL   H82720059   2.628   0.260   1.125 -2.7864 -0.3807 -0.1975
   17MOL   H82820060   2.800   0.124   1.257  1.2478 -0.9345  0.1057
   17MOL   H82920061   2.747   7.738   1.178  2.0724  1.0934 -0.6662
   17MOL   H83020062   2.505   0.008   1.247  2.0262 -1.2986 -2.4309
   17MOL   H83120063   2.564   0.133   1.365  2.4597  2.0595 -2.2023
   17MOL   H83220064   2.696   7.697   1.461  0.2442 -1.4864 -0.2518
   17MOL   H83320065   2.648   7.595   1.330  0.6052  1.3542  0.2670
   17MOL   H83420066   2.533   7.538   1.536 -0.6781 -0.4710  0.1431
   17MOL   H83520067   2.445   7.695   1.535 -1.0399 -0.9797  0.7986
   17MOL   H83620068   2.288   7.575   1.455 -0.7548 -0.2650 -1.0854
   17MOL   H83720069   2.367   7.621   1.297 -2.1279  0.6211  0.4663
   17MOL   H83820070   2.424   7.358   1.431  0.0647 -1.5500 -1.4083
   17MOL   H83920071   2.474   7.411   1.277 -0.4234 -2.4280  0.3529
   17MOL   H84020072   2.292   7.245   1.255  1.0091  0.3571  0.6431
   17MOL   H84120073   2.186   7.330   1.349  0.1408 -2.6084 -0.3333
   17MOL   O84220074   2.295   7.469   1.081  0.5313  0.2106 -0.2593
   17MOL   C84320075   2.262   7.561   0.986 -0.8244 -0.3686 -0.0676
   17MOL   C84420076   2.365   7.669   0.954  0.1765 -0.2115 -0.0174
   17MOL   C84520077   2.485   7.620   0.883 -0.7669 -0.0847 -0.0077
   17MOL   C84620078   2.590   7.551   0.970 -0.3135 -0.0891  0.1031
   17MOL   C84720079   2.692   7.471   0.886 -0.2636  0.2022  0.3832
   17MOL   C84820080   2.798   7.401   0.969 -0.3758  0.4760 -0.4535
   17MOL   C84920081   2.884   7.295   0.905 -0.7390  0.0976 -0.1925
   17MOL   C85020082   3.012   7.285   0.975 -0.2378 -0.2777 -0.0865
   17MOL   C85120083   3.125   7.371   0.923  0.1303  0.4662  0.4485
   17MOL   C85220084   3.255   7.369   1.003  0.1776 -0.0160  0.5262
   17MOL   O85320085   3.308   7.237   1.015  0.2523 -0.1749  0.4287
   17MOL   C85420086   3.303   7.167   1.132  0.3641  0.0155 -0.5727
   17MOL   O85520087   3.216   7.177   1.217 -0.3248 -0.0946 -0.2033
   17MOL   C85620088   3.398   7.049   1.129  0.2297  0.2457  0.3450
   17MOL   C85720089   3.407   6.984   0.986 -0.6695 -0.1965  0.4664
   17MOL   C85820090   3.299   6.898   0.931 -0.2549 -0.1335 -0.0800
   17MOL   C85920091   3.282   6.774   1.013  0.5239  0.1193 -1.0666
   17MOL   C86020092   3.155   6.696   0.979 -0.0241 -0.1315  0.5255
   17MOL   C86120093   3.142   6.578   1.085  0.9662  0.1339  0.0107
   17MOL   C86220094   3.025   6.490   1.053  0.4493  0.1486 -0.6968
   17MOL   C86320095   2.982   6.391   1.159  0.3898  0.5664  0.3728
   17MOL   C86420096   2.947   6.460   1.289 -0.9750 -0.6496 -0.4174
   17MOL   O86520097   3.000   6.434   1.397 -0.1552 -0.3849  0.2410
   17MOL   H86620098   2.233   7.511   0.893 -0.3007 -1.8656  0.5523
   17MOL   H86720099   2.171   7.614   1.014 -2.7382 -2.6477 -1.6757
   17MOL   H86820100   2.312   7.742   0.892  0.2858  1.8666  2.2262
   17MOL   H86920101   2.399   7.724   1.042  1.0142 -1.3536  0.3818
   17MOL   H87020102   2.462   7.560   0.795 -2.5156 -1.2742  1.2303
   17MOL   H87120103   2.530   7.712   0.845 -1.2098 -0.0489 -0.4479
   17MOL   H87220104   2.639   7.629   1.029  1.8907 -2.2677  1.1763
   17MOL   H87320105   2.545   7.488   1.047 -1.8201  0.6844 -0.1053
   17MOL   H87420106   2.726   7.530   0.801 -0.5080  0.4336  0.4450
   17MOL   H87520107   2.630   7.389   0.849  1.0558 -1.1412  1.1270
   17MOL   H87620108   2.761   7.356   1.061  1.2684 -0.2548 -0.1287
   17MOL   H87720109   2.861   7.473   1.021  0.4825 -0.5129 -0.1124
   17MOL   H87820110   2.912   7.328   0.805  1.0477  1.7941  0.8453
   17MOL   H87920111   2.828   7.202   0.909  0.7742 -0.8950 -1.3008
   17MOL   H88020112   3.042   7.180   0.966 -3.1483 -1.2009  0.3658
   17MOL   H88120113   2.996   7.297   1.082  1.7791  0.1870  0.1969
   17MOL   H88220114   3.136   7.339   0.819 -2.5283  1.7383 -0.2588
   17MOL   H88320115   3.089   7.473   0.928 -0.1127  0.2984  2.3715
   17MOL   H88420116   3.330   7.429   0.951  0.6708  0.6581  1.9763
   17MOL   H88520117   3.253   7.418   1.101  0.9839  0.5083  0.2935
   17MOL   H88620118   3.362   6.976   1.202 -1.0804  1.1813  0.6563
   17MOL   H88720119   3.502   7.070   1.155 -0.1635  0.3275  1.9066
   17MOL   H88820120   3.501   6.928   0.978  0.2461  1.5650 -1.5238
   17MOL   H88920121   3.424   7.059   0.908  3.7617 -0.3134  1.1721
   17MOL   H89020122   3.321   6.875   0.827  1.4294  0.4571  0.1415
   17MOL   H89120123   3.218   6.969   0.948  1.3392  1.5501  0.6414
   17MOL   H89220124   3.288   6.807   1.116  0.2136 -0.8000 -0.7477
   17MOL   H89320125   3.367   6.706   1.000  0.5564 -0.4236  1.6832
   17MOL   H89420126   3.070   6.764   0.985  1.4541  1.8074 -0.1425
   17MOL   H89520127   3.159   6.664   0.875  0.0223  2.8518 -0.4373
   17MOL   H89620128   3.238   6.527   1.087  1.8070  1.7256  0.6141
   17MOL   H89720129   3.121   6.622   1.182  1.5600  1.0783 -0.2797
   17MOL   H89820130   3.031   6.441   0.955 -1.6028 -0.7392 -0.4088
   17MOL   H89920131   2.933   6.547   1.039  0.0985  0.0721  1.2138
   17MOL   H90020132   2.900   6.327   1.127 -2.1121  3.2525  1.2483
   17MOL   H90120133   3.067   6.330   1.192 -1.7443 -2.5550  0.3426
   17MOL   O90220134   2.841   6.554   1.278 -0.4598 -0.3377  1.2197
   17MOL   C90320135   2.767   6.605   1.394 -0.5181  0.4129  0.2454
   17MOL   C90420136   2.619   6.640   1.361 -0.3896 -0.2844  0.4916
   17MOL   C90520137   2.524   6.525   1.348  0.6219 -0.1257 -0.0086
   17MOL   C90620138   2.411   6.533   1.232  0.3719  0.7413  0.3319
   17MOL   C90720139   2.468   6.529   1.091  0.1124 -0.4719 -0.4540
   17MOL   C90820140   2.377   6.568   0.978  0.1747  0.2084 -0.1105
   17MOL   C90920141   2.256   6.476   0.961 -0.0254 -0.7247 -0.0560
   17MOL   C91020142   2.296   6.320   0.940  0.2271 -0.1875  0.3190
   17MOL   C91120143   2.177   6.242   0.877  0.0400 -0.5690 -0.4114
   17MOL   C91220144   2.180   6.092   0.873  0.5593 -0.4654  0.1769
   17MOL   O91320145   2.145   6.032   0.994  0.0908  0.5694 -0.1737
   17MOL   C91420146   2.018   6.023   1.036 -0.0105 -0.0197  0.3245
   17MOL   O91520147   1.931   6.080   0.972 -0.0062  0.2721  0.3227
   17MOL   C91620148   1.988   5.942   1.159 -0.8816 -0.0872  0.2138
   17MOL   C91720149   2.083   5.975   1.287  0.2964 -0.1260  0.3303
   17MOL   C91820150   2.072   5.854   1.384  0.5571 -0.1812  0.0082
   17MOL   C91920151   2.152   5.884   1.506 -0.3145 -0.1583 -0.3987
   17MOL   C92020152   2.143   5.773   1.613  0.7375 -0.1599  0.0455
   17MOL   C92120153   2.220   5.800   1.736  0.3110  0.0137 -0.0424
   17MOL   C92220154   2.144   5.884   1.845  0.1825 -0.4764  0.1517
   17MOL   C92320155   2.207   5.881   1.993  0.0524  0.0678  0.6129
   17MOL   C92420156   2.163   5.990   2.100 -0.3174 -0.5465 -0.1301
   17MOL   O92520157   2.115   6.098   2.066  0.3205 -0.0763  0.2831
   17MOL   H92620158   2.783   6.527   1.468  0.3697 -0.0224 -0.3961
   17MOL   H92720159   2.819   6.685   1.446 -0.3258  0.6260 -0.2720
   17MOL   H92820160   2.575   6.704   1.438 -1.1626  1.1115 -1.0801
   17MOL   H92920161   2.619   6.711   1.279  3.0933 -0.6933  0.0838
   17MOL   H93020162   2.582   6.437   1.319  2.1500  1.3480 -1.5570
   17MOL   H93120163   2.475   6.507   1.443 -0.8563  0.3955 -0.6677
   17MOL   H93220164   2.333   6.458   1.246 -0.3858  1.5607  0.5872
   17MOL   H93320165   2.368   6.632   1.248  0.2643  0.4148  2.1717
   17MOL   H93420166   2.508   6.427   1.084 -1.4704 -1.0906 -0.7423
   17MOL   H93520167   2.555   6.595   1.091  0.6541 -1.1668  0.7167
   17MOL   H93620168   2.438   6.592   0.891 -1.0936  0.7778 -0.8679
   17MOL   H93720169   2.335   6.665   1.006 -0.3110 -0.4267  1.4026
   17MOL   H93820170   2.213   6.499   0.863 -0.0533 -2.0802 -0.3665
   17MOL   H93920171   2.186   6.495   1.042 -0.3376 -2.1561  0.0201
   17MOL   H94020172   2.323   6.281   1.038  0.5586  0.3807  0.4548
   17MOL   H94120173   2.383   6.308   0.877 -0.2465  0.6982 -0.5210
   17MOL   H94220174   2.082   6.277   0.917  1.2996  3.6287 -0.9167
   17MOL   H94320175   2.193   6.264   0.772  1.0806  1.1678  0.0970
   17MOL   H94420176   2.117   6.058   0.791 -1.6902  0.2011  1.5799
   17MOL   H94520177   2.278   6.047   0.856  0.2920 -1.0242  0.0933
   17MOL   H94620178   2.007   5.841   1.122 -1.3652  1.0296 -3.2475
   17MOL   H94720179   1.883   5.955   1.186 -1.0560 -1.7749  0.4194
   17MOL   H94820180   2.034   6.062   1.331  0.1171 -0.4640  0.8013
   17MOL   H94920181   2.189   5.989   1.265 -0.1960  2.3374 -0.6556
   17MOL   H95020182   2.125   5.765   1.349  3.6225  1.3840  0.4626
   17MOL   H95120183   1.968   5.836   1.409  0.9935  0.7389  2.5696
   17MOL   H95220184   2.123   5.983   1.542  0.1133  0.5090 -1.8563
   17MOL   H95320185   2.256   5.903   1.480 -0.1213 -1.5546 -0.6900
   17MOL   H95420186   2.039   5.750   1.634  0.7079  0.2701  0.3747
   17MOL   H95520187   2.182   5.682   1.566  0.3454 -0.0045 -0.5805
   17MOL   H95620188   2.242   5.704   1.782 -0.0499  0.5740  1.3121
   17MOL   H95720189   2.316   5.847   1.719  0.3383  0.2948  0.8630
   17MOL   H95820190   2.039   5.855   1.843 -0.2413  1.0283  0.2679
   17MOL   H95920191   2.146   5.985   1.806  1.4817 -0.7322 -0.4475
   17MOL   H96020192   2.179   5.787   2.040  0.5839 -0.6347 -0.4659
   17MOL   H96120193   2.316   5.884   1.998  0.1711 -0.5797 -1.1607
   17MOL   O96220194   2.183   5.949   2.226  0.4945  0.2717  0.1069
   17MOL   C96320195   2.157   6.026   2.340  0.1388  0.9221 -0.2636
   17MOL   C96420196   2.286   6.078   2.401  0.1544 -0.8949 -0.5335
   17MOL   C96520197   2.327   6.207   2.331 -0.0328 -0.0043  0.2289
   17MOL   C96620198   2.459   6.255   2.395 -0.5463 -0.3099 -0.5782
   17MOL   C96720199   2.510   6.379   2.319 -1.1255 -0.1680 -0.4164
   17MOL   C96820200   2.632   6.429   2.397  0.0661 -0.8740 -0.4294
   17MOL   C96920201   2.604   6.560   2.482  0.3158 -0.6051 -0.4966
   17MOL   C97020202   2.733   6.603   2.560  0.1753  0.0384  0.2240
   17MOL   C97120203   2.707   6.709   2.662  1.2657  0.0187 -0.0652
   17MOL   C97220204   2.836   6.736   2.741  0.0058 -0.3518  1.1914
   17MOL   O97320205   2.928   6.807   2.659  0.6785 -0.1354  0.2107
   17MOL   C97420206   3.046   6.768   2.631 -0.2144 -0.3696  0.2649
   17MOL   O97520207   3.088   6.653   2.640  0.4432 -0.4062  0.6500
   17MOL   C97620208   3.133   6.868   2.564 -0.0358 -1.1041  0.2573
   17MOL   C97720209   3.239   6.938   2.662 -0.2643 -0.3287  0.2218
   17MOL   C97820210   3.315   7.053   2.599  0.3530 -0.6074  0.5381
   17MOL   C97920211   3.440   7.099   2.678 -0.1260  0.1095  0.6680
   17MOL   C98020212   3.452   7.248   2.635 -0.5909  0.3899 -0.0386
   17MOL   C98120213   3.583   7.301   2.710 -0.2509 -0.1790 -0.4957
   17MOL   C98220214   3.644   7.425   2.647  0.1521  0.2608 -0.1043
   17MOL   C98320215   3.778   7.468   2.710 -0.5284  0.3095 -0.2584
   17MOL   C98420216   3.910   7.385   2.686  0.5539 -0.5054  0.3132
   17MOL   O98520217   4.011   7.442   2.638 -0.1537 -0.0227 -0.2394
   17MOL   H98620218   2.082   6.104   2.328 -1.4575 -0.3180  1.2054
   17MOL   H98720219   2.118   5.956   2.414 -2.0668  1.1765 -1.1486
   17MOL   H98820220   2.277   6.098   2.508  1.6424  1.1696 -0.7792
   17MOL   H98920221   2.362   6.004   2.379 -1.6176 -2.5851 -1.1322
   17MOL   H99020222   2.341   6.191   2.224  3.2475  0.0503  0.6057
   17MOL   H99120223   2.251   6.285   2.332  1.1833  1.2071 -0.1837
   17MOL   H99220224   2.429   6.291   2.493 -2.9608  0.5652 -1.6003
   17MOL   H99320225   2.547   6.191   2.393 -1.1111 -1.2063  1.5546
   17MOL   H99420226   2.432   6.455   2.327 -1.3803 -0.4064 -0.6419
   17MOL   H99520227   2.525   6.356   2.213  0.0242 -1.2197 -0.0374
   17MOL   H99620228   2.718   6.444   2.331 -0.5149 -0.1967 -1.0315
   17MOL   H99720229   2.657   6.355   2.473  1.7401 -1.5484 -1.5924
   17MOL   H99820230   2.522   6.542   2.550  0.1376  2.1985  0.0693
   17MOL   H99920231   2.563   6.637   2.416 -0.0714 -0.0080  0.4450
   17MOL     H120232   2.808   6.635   2.488  0.0245 -1.4685 -0.6191
   17MOL     H220233   2.765   6.514   2.614 -0.4212  0.8884  1.9994
   17MOL     H320234   2.666   6.805   2.628 -1.0894 -1.1702 -0.7076
   17MOL     H420235   2.628   6.669   2.726 -0.8627 -1.1657 -3.3034
   17MOL     H520236   2.804   6.800   2.824 -0.2319  1.5600 -0.3437
   17MOL     H620237   2.870   6.644   2.788  0.7972 -0.3228  0.6893
   17MOL     H720238   3.069   6.947   2.524  0.9276  1.4069  3.4401
   17MOL     H820239   3.167   6.818   2.473  0.2290 -2.2036  0.9550
   17MOL     H920240   3.312   6.864   2.694 -0.4419 -0.9334 -0.7389
   17MOL    H1020241   3.188   6.977   2.750  1.2074  1.5562  0.2604
   17MOL    H1120242   3.239   7.131   2.597  0.8542 -0.1323 -1.1161
   17MOL    H1220243   3.341   7.027   2.497 -0.2109 -0.0189  0.2442
   17MOL    H1320244   3.526   7.035   2.660  0.2564  0.0848  2.4864
   17MOL    H1420245   3.417   7.085   2.784 -0.1180  3.2637  1.1226
   17MOL    H1520246   3.481   7.258   2.531 -0.2884  0.8241  0.0834
   17MOL    H1620247   3.367   7.303   2.673 -1.7980 -2.5849  1.7718
   17MOL    H1720248   3.554   7.327   2.812  0.5719  0.4338 -0.4174
   17MOL    H1820249   3.654   7.218   2.707 -0.7615 -0.6517  0.1402
   17MOL    H1920250   3.572   7.506   2.638  0.5522  0.6558  0.1851
   17MOL    H2020251   3.658   7.390   2.545 -0.7688  0.0031 -0.1448
   17MOL    H2120252   3.806   7.569   2.681  3.8483 -0.9085 -0.5836
   17MOL    H2220253   3.763   7.479   2.817  0.2435  3.2349 -0.4060
   17MOL    O2320254   3.895   7.259   2.715  0.1396 -0.4481  0.0151
   17MOL    C2420255   3.998   7.171   2.706  0.0076  0.8619 -0.2617
   17MOL    C2520256   3.932   7.025   2.688 -0.5523  0.0087  0.1034
   17MOL    C2620257   4.021   6.909   2.640  0.2218  0.4689  0.4750
   17MOL    C2720258   3.942   6.777   2.606  0.3513 -0.4858 -0.7030
   17MOL    C2820259   3.870   6.706   2.715  0.2283 -0.0174 -0.6844
   17MOL    C2920260   3.818   6.569   2.674 -0.5209 -0.2002  0.5201
   17MOL    C3020261   3.699   6.525   2.770 -0.1132  0.1868  0.2889
   17MOL    C3120262   3.752   6.491   2.911  0.1367  0.1856  0.2638
   17MOL    C3220263   3.634   6.465   3.008 -0.3750  0.3483  0.5300
   17MOL    C3320264   3.684   6.437   3.150  0.1388 -0.0416 -0.4204
   17MOL    O3420265   3.569   6.395   3.226 -0.3572 -0.0509  0.0416
   17MOL    C3520266   3.513   6.484   3.309  0.4983 -0.5390  0.2661
   17MOL    O3620267   3.570   6.582   3.357  0.2855  0.2669  0.1179
   17MOL    C3720268   3.375   6.442   3.359 -0.3042  0.1518  0.2441
   17MOL    C3820269   3.378   6.331   3.468 -0.4183  1.0675  0.0561
   17MOL    C3920270   3.493   6.226   3.457 -0.5473  0.2520 -0.0225
   17MOL    C4020271   3.487   6.129   3.583 -0.8706  0.3075 -0.0445
   17MOL    C4120272   3.589   6.024   3.568  0.2668  0.0391 -0.1661
   17MOL    C4220273   3.733   6.076   3.606  0.4579  0.0107  0.5011
   17MOL    C4320274   3.851   5.984   3.572  0.0791  0.1370  0.3939
   17MOL    C4420275   3.997   6.049   3.591 -0.5013 -0.6441  0.1407
   17MOL    C4520276   4.039   6.092   3.735 -0.6222  0.1417 -0.3054
   17MOL    O4620277   4.020   6.028   3.842 -0.4717  0.7488  0.0162
   17MOL    H4720278   4.060   7.200   2.621  0.8843 -0.6743 -0.1694
   17MOL    H4820279   4.054   7.179   2.800  2.6542  2.2612 -1.9073
   17MOL    H4920280   3.893   7.006   2.788 -1.0947  0.2353 -0.0643
   17MOL    H5020281   3.847   7.035   2.620 -1.0084 -0.0697  0.6676
   17MOL    H5120282   4.075   6.947   2.553 -0.6501 -1.5118 -0.9581
   17MOL    H5220283   4.096   6.891   2.718 -0.9087 -1.6454  1.1043
   17MOL    H5320284   3.862   6.799   2.535  0.3452  0.4513 -0.4171
   17MOL    H5420285   4.015   6.705   2.568 -0.0449 -1.4085  0.2672
   17MOL    H5520286   3.789   6.767   2.755 -0.8320 -1.1219 -1.0890
   17MOL    H5620287   3.943   6.686   2.793  0.7695 -0.0995 -1.2053
   17MOL    H5720288   3.905   6.503   2.668  0.0324  0.3733  2.1224
   17MOL    H5820289   3.752   6.575   2.587 -1.1872  0.0114  1.0338
   17MOL    H5920290   3.644   6.437   2.737 -1.2992  0.6057  1.1198
   17MOL    H6020291   3.620   6.600   2.767  0.0898  0.3607 -1.2929
   17MOL    H6120292   3.813   6.572   2.950  0.5007  0.9207 -1.7978
   17MOL    H6220293   3.825   6.410   2.911  0.7085  0.6951  1.4108
   17MOL    H6320294   3.578   6.557   3.025  0.3495  0.2380  3.9779
   17MOL    H6420295   3.573   6.381   2.977 -2.0729  2.2444 -1.3951
   17MOL    H6520296   3.754   6.354   3.144  1.5118  0.9739  1.2358
   17MOL    H6620297   3.735   6.528   3.183 -0.1811  1.6645 -4.3415
   17MOL    H6720298   3.328   6.404   3.268  0.8110  3.5780 -1.8821
   17MOL    H6820299   3.309   6.527   3.375 -0.2186  0.2179  0.2476
   17MOL    H6920300   3.291   6.267   3.449 -0.2738  0.7421  0.4956
   17MOL    H7020301   3.367   6.370   3.569  0.9637 -0.6818  0.9079
   17MOL    H7120302   3.585   6.285   3.456 -1.7312  2.1444  0.6067
   17MOL    H7220303   3.492   6.181   3.357 -1.5076 -0.2876  0.2317
   17MOL    H7320304   3.390   6.078   3.582 -1.1195  0.7593  0.5776
   17MOL    H7420305   3.515   6.186   3.671 -1.8307 -0.8212  1.0150
   17MOL    H7520306   3.569   5.935   3.627 -0.2343  1.2635  1.5844
   17MOL    H7620307   3.600   5.992   3.465 -0.9825 -0.4818 -0.1376
   17MOL    H7720308   3.759   6.163   3.545  0.4505  1.1295  2.0700
   17MOL    H7820309   3.737   6.115   3.708  0.5912 -0.2777  0.6089
   17MOL    H7920310   3.856   5.970   3.464 -0.0596  0.3109  0.3651
   17MOL    H8020311   3.850   5.885   3.618  0.3003  0.1191  0.3631
   17MOL    H8120312   4.070   5.972   3.567 -0.0060  0.5886 -2.4999
   17MOL    H8220313   4.012   6.131   3.521 -1.8165  0.3184  0.9634
   17MOL    O8320314   4.089   6.223   3.730  0.6352  0.1424 -0.2686
   17MOL    C8420315   4.130   6.290   3.844 -0.0709 -0.1984  0.6012
   17MOL    C8520316   4.247   6.379   3.810 -0.0682 -1.0490  0.7739
   17MOL    C8620317   4.394   6.332   3.780  0.3454 -0.3094  0.1720
   17MOL    C8720318   4.446   6.226   3.880  0.0779 -0.4340  0.1406
   17MOL    C8820319   4.593   6.194   3.881  0.0818 -0.2480 -0.3779
   17MOL    C8920320   4.650   6.122   4.005  0.1801  0.3230 -0.6853
   17MOL    C9020321   4.601   5.975   4.024  0.4073 -0.7201  0.2407
   17MOL    C9120322   4.679   5.883   3.925  0.2327 -0.1989 -0.0059
   17MOL    C9220323   4.644   5.735   3.928 -0.0469 -0.8228 -0.2307
   17MOL    C9320324   4.720   5.662   3.821 -0.3538  0.3384  0.5709
   17MOL    O9420325   4.676   5.527   3.827 -0.6030  0.2363 -0.1819
   17MOL    C9520326   4.667   5.450   3.723 -0.0811 -0.4459 -0.2768
   17MOL    O9620327   4.690   5.480   3.608 -0.0608  0.0834  0.1924
   17MOL    C9720328   4.634   5.306   3.751  0.1927 -0.4747  0.4114
   17MOL    C9820329   4.484   5.284   3.750  0.5236  1.0511 -0.5537
   17MOL    C9920330   4.428   5.306   3.896  0.2497 -0.1286 -0.2347
   17MOL   C10020331   4.278   5.267   3.892  0.3459  0.4078 -0.3048
   17MOL   C10120332   4.221   5.270   4.037  0.0638 -0.4997  0.4162
   17MOL   C10220333   4.077   5.204   4.055 -0.0838 -0.4015  0.0396
   17MOL   C10320334   3.960   5.280   3.987  0.5175 -0.1480 -0.3853
   17MOL   C10420335   3.841   5.190   3.991 -0.3274  0.2056  0.1761
   17MOL   C10520336   3.723   5.258   3.930  0.7727 -0.2219  0.1623
   17MOL   O10620337   3.723   5.372   3.884 -0.0495  0.3672  0.5556
   17MOL   H10720338   4.046   6.353   3.874  0.3190  0.4745  0.3165
   17MOL   H10820339   4.152   6.215   3.919  0.4237 -0.5609  0.0966
   17MOL   H10920340   4.212   6.439   3.726  3.4575  1.6105  1.1130
   17MOL   H11020341   4.250   6.442   3.899  0.2310  0.1007 -0.0388
   17MOL   H11120342   4.417   6.287   3.684 -0.6013  0.3622 -0.3876
   17MOL   H11220343   4.467   6.411   3.797  0.1117 -0.3053  1.1986
   17MOL   H11320344   4.425   6.259   3.982  1.6118 -0.9796  0.6521
   17MOL   H11420345   4.393   6.133   3.858  1.3283 -0.9662 -0.6320
   17MOL   H11520346   4.646   6.287   3.861 -2.8793  0.9568 -3.1421
   17MOL   H11620347   4.612   6.139   3.788 -2.0266  2.2086 -2.3311
   17MOL   H11720348   4.612   6.177   4.091 -1.0432 -1.3848 -0.1265
   17MOL   H11820349   4.759   6.122   4.005  0.1789 -0.7021 -1.3494
   17MOL   H11920350   4.494   5.973   4.001  0.4219  2.1761 -0.3506
   17MOL   H12020351   4.606   5.939   4.126 -0.5190 -0.9146  0.2208
   17MOL   H12120352   4.787   5.895   3.936  0.4512 -0.5013 -1.6576
   17MOL   H12220353   4.653   5.907   3.822 -3.2767  1.3357  1.1640
   17MOL   H12320354   4.664   5.681   4.021  1.2556 -0.7604 -0.4692
   17MOL   H12420355   4.537   5.728   3.910  0.1338  0.2263 -1.8000
   17MOL   H12520356   4.701   5.703   3.721  0.8650  0.0033  0.1907
   17MOL   H12620357   4.829   5.661   3.821 -0.3229 -0.7484 -1.5303
   17MOL   H12720358   4.691   5.263   3.833  1.9218  1.0375  0.0293
   17MOL   H12820359   4.675   5.259   3.661 -3.0698 -1.9396 -0.3737
   17MOL   H12920360   4.464   5.184   3.711 -1.0521  1.7723 -1.6371
   17MOL   H13020361   4.431   5.352   3.682 -1.4644  0.5279  0.4547
   17MOL   H13120362   4.435   5.411   3.926 -1.6081 -0.0911  0.1512
   17MOL   H13220363   4.480   5.242   3.967 -3.6489 -1.0662  1.9158
   17MOL   H13320364   4.284   5.165   3.853  1.8844  0.1832  0.4798
   17MOL   H13420365   4.219   5.324   3.820  1.3793  1.6822 -0.1588
   17MOL   H13520366   4.283   5.220   4.113 -1.3699 -1.9002  0.6849
   17MOL   H13620367   4.223   5.376   4.059  2.8514 -0.2211 -0.9039
   17MOL   H13720368   4.078   5.099   4.026  0.6033 -0.5054  0.4281
   17MOL   H13820369   4.058   5.200   4.162  2.5290  0.4846  0.5828
   17MOL   H13920370   3.991   5.307   3.886  0.4562  2.3093  0.2107
   17MOL   H14020371   3.950   5.374   4.041 -0.2457  0.1443 -1.0335
   17MOL   H14120372   3.861   5.100   3.933 -1.2151  0.5940 -0.7531
   17MOL   H14220373   3.823   5.162   4.094 -0.4279  0.4386  0.2219
   17MOL   O14320374   3.622   5.185   3.945  0.4200  0.2629  0.0312
   17MOL   C14420375   3.492   5.238   3.921  0.6084 -0.3689 -0.0814
   17MOL   C14520376   3.391   5.152   4.007 -0.2202  0.3888  0.0741
   17MOL   C14620377   3.243   5.203   3.994 -0.3662  0.0810  0.1132
   17MOL   C14720378   3.144   5.129   4.082  0.0935 -0.1824  0.1045
   17MOL   C14820379   2.998   5.148   4.048  0.3087  0.3437 -0.3942
   17MOL   C14920380   2.898   5.081   4.146  0.3233  0.2178  0.5298
   17MOL   C15020381   2.750   5.076   4.099  0.8387 -0.3587 -0.3534
   17MOL   C15120382   2.658   4.971   4.172 -0.4619 -0.3649  0.4771
   17MOL   C15220383   2.617   4.999   4.323 -0.3054  0.1523  0.1619
   17MOL   C15320384   2.524   4.879   4.370  0.7185  0.5515 -0.0444
   17MOL   O15420385   2.596   4.761   4.413 -0.5631 -0.1308  0.2807
   17MOL   C15520386   2.535   4.642   4.423 -0.9205  0.0312 -0.6288
   17MOL   O15620387   2.414   4.619   4.413  0.1027  0.3627  0.1473
   17MOL   C15720388   2.637   4.532   4.464  0.1360 -0.1333  0.2487
   17MOL   C15820389   2.732   4.496   4.349  0.1116 -0.4567 -0.3416
   17MOL   C15920390   2.852   4.601   4.323 -0.2271  0.7381  0.3496
   17MOL   C16020391   2.946   4.542   4.222 -0.3686  0.1536  0.0012
   17MOL   C16120392   3.067   4.640   4.194  0.3037  0.2993  0.5338
   17MOL   C16220393   3.165   4.611   4.071  0.6550 -0.1406  0.4165
   17MOL   C16320394   3.279   4.522   4.118  0.1129 -0.2396 -0.4551
   17MOL   C16420395   3.389   4.514   4.006 -0.8998 -0.3091 -0.5321
   17MOL   C16520396   3.367   4.409   3.897  0.2739  0.0869 -0.2682
   17MOL   O16620397   3.274   4.332   3.903  0.0308 -0.8481  0.0676
   17MOL   H16720398   3.493   5.344   3.944  0.8558 -0.2667 -0.5566
   17MOL   H16820399   3.462   5.245   3.816  0.9928 -2.2921 -0.3340
   17MOL   H16920400   3.387   5.047   3.978  1.7545  0.1819  0.4767
   17MOL   H17020401   3.421   5.152   4.111  1.7809  0.1606 -0.4705
   17MOL   H17120402   3.244   5.304   4.033  3.5888  1.0457 -2.2801
   17MOL   H17220403   3.209   5.208   3.890  0.5284  0.5444 -0.1582
   17MOL   H17320404   3.168   5.023   4.074  0.0048 -0.3861  2.1920
   17MOL   H17420405   3.155   5.154   4.188  0.4312 -0.8492  0.2308
   17MOL   H17520406   2.976   5.098   3.954  1.5955  1.4970 -1.3407
   17MOL   H17620407   2.977   5.255   4.041  0.8437  0.6030  1.5563
   17MOL   H17720408   2.901   5.130   4.243 -2.1513  1.5302 -0.0101
   17MOL   H17820409   2.928   4.977   4.161 -1.9078 -0.5154  0.1114
   17MOL   H17920410   2.745   5.049   3.993  0.7316 -3.9472  0.5195
   17MOL   H18020411   2.700   5.174   4.105  0.6551 -0.5569  1.4028
   17MOL   H18120412   2.720   4.882   4.168  0.6227  0.4267 -1.1088
   17MOL   H18220413   2.571   4.950   4.110 -1.4303 -1.0665  2.0370
   17MOL   H18320414   2.709   4.998   4.382  0.5111  2.8794 -0.9867
   17MOL   H18420415   2.575   5.099   4.331  0.3007  0.5845 -1.6948
   17MOL   H18520416   2.467   4.904   4.459  0.2200  1.6854 -0.6697
   17MOL   H18620417   2.459   4.863   4.284  0.3118 -0.2142  0.4070
   17MOL   H18720418   2.586   4.438   4.484  1.2383 -0.9009 -0.4606
   17MOL   H18820419   2.682   4.557   4.561 -1.5620  0.6720  0.8421
   17MOL   H18920420   2.669   4.488   4.260 -0.2934  1.7810 -0.2708
   17MOL   H19020421   2.772   4.398   4.376 -1.0897 -0.7017  0.5922
   17MOL   H19120422   2.903   4.626   4.417  1.6322  1.2604 -0.7797
   17MOL   H19220423   2.808   4.694   4.287  0.4196  1.1724  0.6716
   17MOL   H19320424   2.886   4.531   4.131 -2.4021 -1.8975  1.5094
   17MOL   H19420425   2.975   4.440   4.249 -2.8302 -0.5458  0.1265
   17MOL   H19520426   3.027   4.741   4.186 -1.8643 -0.4799  1.2224
   17MOL   H19620427   3.110   4.656   4.293 -2.9565  2.3902  1.6879
   17MOL   H19720428   3.106   4.569   3.990  0.7323 -0.0526  0.3152
   17MOL   H19820429   3.204   4.704   4.030  2.5229 -0.6160  1.0846
   17MOL   H19920430   3.249   4.422   4.150  0.1011 -0.2560 -0.5166
   17MOL   H20020431   3.329   4.568   4.204  0.0646 -0.5145 -0.2793
   17MOL   H20120432   3.390   4.612   3.957 -3.0241  0.4529  0.8867
   17MOL   H20220433   3.487   4.507   4.053 -0.4500  0.8474 -1.2484
   17MOL   H20320434   3.435   4.418   3.813 -1.8349  0.4635 -1.9718
   18MOL     O120435   2.867   1.690   7.299 -0.3551 -0.6826 -0.1506
   18MOL     C220436   2.776   1.788   7.341  0.7436 -0.1284 -0.2648
   18MOL     C320437   2.774   1.813   7.492 -0.2805 -0.2856 -0.9250
   18MOL     C420438   2.735   1.691   7.577  0.5662  0.1252 -0.1839
   18MOL     C520439   2.723   1.724   7.725 -0.5887 -0.0908  0.5687
   18MOL     C620440   2.824   1.825   0.031 -0.2550 -0.1149  0.5700
   18MOL     C720441   2.967   1.763   0.023  0.6928  0.2635 -0.2409
   18MOL     C820442   3.068   1.855   0.098  0.6771  0.5076 -0.6590
   18MOL     C920443   3.210   1.808   0.061 -0.5892  0.4918 -0.0315
   18MOL    C1020444   3.318   1.864   0.154  0.2577  1.0579 -0.1364
   18MOL    C1120445   3.457   1.841   0.097 -0.1845 -0.4841  0.1156
   18MOL    O1220446   3.491   1.933   7.754  0.3376 -0.3292  0.7389
   18MOL    C1320447   3.586   1.905   7.661  0.3382 -0.2274 -0.4727
   18MOL    O1420448   3.674   1.814   7.663  0.1377 -0.3934 -0.6922
   18MOL    C1520449   3.593   2.012   7.554  0.4973 -0.3525 -0.2237
   18MOL    C1620450   3.492   1.996   7.440  0.0801 -0.0630  0.4661
   18MOL    C1720451   3.549   1.899   7.330 -0.3175  0.1681  0.4375
   18MOL    C1820452   3.473   1.895   7.199 -0.0766 -0.5863  0.4564
   18MOL    C1920453   3.560   1.807   7.095  0.5328 -0.7621  0.1606
   18MOL    C2020454   3.491   1.770   6.959  0.3711 -0.0138  0.0586
   18MOL    C2120455   3.474   1.883   6.859  0.0947 -0.0150 -0.2386
   18MOL    C2220456   3.391   1.834   6.742 -0.0343 -0.0840 -0.2943
   18MOL    C2320457   3.402   1.928   6.626 -0.5126 -0.5093 -1.0022
   18MOL    O2420458   3.303   1.951   6.560 -0.5674 -0.3439  0.1539
   18MOL    H2520459   2.790   1.885   7.294  2.3350 -0.3860 -0.3579
   18MOL    H2620460   2.674   1.768   7.309  1.1784 -1.2809 -0.9542
   18MOL    H2720461   2.879   1.838   7.506  0.0044 -0.6012 -2.4624
   18MOL    H2820462   2.702   1.892   7.512  1.9326  0.9798  2.6174
   18MOL    H2920463   2.651   1.644   7.526 -0.8200  2.2983  0.0281
   18MOL    H3020464   2.808   1.611   7.571  0.5603  0.2552 -2.1429
   18MOL    H3120465   2.618   1.747   7.744 -0.5770  0.1558  0.3390
   18MOL    H3220466   2.734   1.634   0.028  1.5759  0.3975  0.9307
   18MOL    H3320467   2.805   1.851   0.135  2.5513 -0.7411  1.2895
   18MOL    H3420468   2.835   1.923   7.740  0.1849 -0.0719  0.7575
   18MOL    H3520469   2.988   1.772   7.673 -0.0792  0.2567 -0.3968
   18MOL    H3620470   2.968   1.660   0.059 -2.1612  0.5628  0.7934
   18MOL    H3720471   3.043   1.857   0.204  2.8739 -2.2724 -0.0302
   18MOL    H3820472   3.049   1.959   0.072  0.3014  0.5930 -0.0472
   18MOL    H3920473   3.234   1.851   7.721  0.8428  0.4741  0.3042
   18MOL    H4020474   3.208   1.700   0.050  1.1976  0.5431 -0.9009
   18MOL    H4120475   3.295   1.969   0.172  0.1658  1.3817 -2.0053
   18MOL    H4220476   3.297   1.809   0.245  3.4222 -0.0786 -0.0488
   18MOL    H4320477   3.532   1.848   0.175 -2.4865  1.4886  2.2479
   18MOL    H4420478   3.468   1.740   0.057 -0.7838 -0.5218  0.0326
   18MOL    H4520479   3.694   2.002   7.514  0.8523  0.8264  0.3644
   18MOL    H4620480   3.574   2.103   7.610  2.2425 -0.6511  0.9145
   18MOL    H4720481   3.483   2.090   7.386  1.2375 -0.4968 -0.5097
   18MOL    H4820482   3.392   1.971   7.475  1.0036  0.1414  3.4156
   18MOL    H4920483   3.545   1.797   7.368  1.7441 -0.9269 -2.1154
   18MOL    H5020484   3.657   1.911   7.320 -0.2118 -0.0644  1.2248
   18MOL    H5120485   3.456   1.990   7.147 -2.6247 -2.0866 -1.5436
   18MOL    H5220486   3.374   1.853   7.218 -0.3913  0.1936  0.5788
   18MOL    H5320487   3.655   1.860   7.089  0.5929 -0.6999  1.4459
   18MOL    H5420488   3.592   1.720   7.152 -0.8247 -1.2594  0.1835
   18MOL    H5520489   3.550   1.686   6.921 -0.1155 -0.4678  0.3037
   18MOL    H5620490   3.395   1.721   6.977  0.4706  0.8233  3.1648
   18MOL    H5720491   3.568   1.929   6.831  0.6110 -1.0444 -0.2110
   18MOL    H5820492   3.421   1.963   6.910 -1.5792 -1.3384  0.1665
   18MOL    H5920493   3.418   1.731   6.719  0.4453 -0.5573  2.1812
   18MOL    H6020494   3.284   1.830   6.760  0.4221  0.5270  2.8045
   18MOL    H6120495   2.831   1.603   7.297 -0.3544 -0.7281  1.2421
   18MOL    O6220496   3.515   1.989   6.610 -0.3567  0.0808 -0.3735
   18MOL    C6320497   3.556   2.072   6.499  0.0289 -0.2048  0.4851
   18MOL    C6420498   3.708   2.072   6.481 -0.4277 -0.4641  0.4253
   18MOL    C6520499   3.788   2.127   6.592  0.4114 -0.2395  0.4007
   18MOL    C6620500   3.933   2.147   6.561  0.3750  0.4060 -0.3150
   18MOL    C6720501   3.952   2.274   6.477  0.3914 -0.0430 -0.0744
   18MOL    C6820502   4.103   2.296   6.439  0.2278  0.0099 -0.6168
   18MOL    C6920503   4.118   2.425   6.355  0.1504 -0.2332  0.3699
   18MOL    C7020504   4.263   2.450   6.322 -0.6794  0.5745  0.0610
   18MOL    C7120505   4.273   2.589   6.255 -0.3238 -0.4102 -0.6077
   18MOL    C7220506   4.408   2.631   6.201  0.6078  0.0260 -0.1731
   18MOL    O7320507   4.412   2.750   6.120  0.4133  0.3976 -0.0100
   18MOL    C7420508   4.445   2.871   6.173  0.6620 -0.1167  0.0571
   18MOL    O7520509   4.480   2.893   6.290 -0.4860  0.1485 -0.2945
   18MOL    C7620510   4.442   2.989   6.076 -0.6222  0.1655  0.5863
   18MOL    C7720511   4.300   3.050   6.060  0.1540 -0.5588  0.1576
   18MOL    C7820512   4.223   2.980   5.948  0.0198  0.1254  0.1887
   18MOL    C7920513   4.090   3.053   5.916 -0.0087  0.3421 -0.1182
   18MOL    C8020514   4.008   3.096   6.039 -0.7036 -0.0344 -0.4872
   18MOL    C8120515   3.885   3.179   6.006  0.2715 -0.5967  0.4421
   18MOL    C8220516   3.776   3.107   5.927  0.1135  0.3415 -0.6249
   18MOL    C8320517   3.663   3.197   5.870 -0.3794  0.4786 -0.1088
   18MOL    C8420518   3.554   3.127   5.787  0.2120  0.4077  0.9915
   18MOL    O8520519   3.558   3.008   5.743 -0.0099 -0.1538  0.1666
   18MOL    H8620520   3.510   2.041   6.405 -1.3927  1.3056  0.6570
   18MOL    H8720521   3.518   2.173   6.512 -1.2499 -0.0124 -3.8110
   18MOL    H8820522   3.737   1.967   6.478 -0.9939 -0.6202  0.2132
   18MOL    H8920523   3.721   2.115   6.382  1.2148 -1.7977  0.0403
   18MOL    H9020524   3.737   2.221   6.617  0.9266  0.9142 -2.6719
   18MOL    H9120525   3.766   2.061   6.677  2.5151 -2.4376 -0.7169
   18MOL    H9220526   3.980   2.159   6.659  0.3183  0.0950 -0.2491
   18MOL    H9320527   3.967   2.063   6.501 -4.0198 -1.0049 -0.9984
   18MOL    H9420528   3.909   2.360   6.528  0.6753  0.6979 -1.0553
   18MOL    H9520529   3.898   2.271   6.382 -0.0774  1.0779  0.1510
   18MOL    H9620530   4.158   2.213   6.396  2.0562  0.0083  1.6336
   18MOL    H9720531   4.152   2.317   6.535 -1.8562 -0.5735  0.6033
   18MOL    H9820532   4.068   2.497   6.420  1.3122 -0.8370  1.9813
   18MOL    H9920533   4.054   2.416   6.268 -0.5380 -1.9170  1.0278
   18MOL   H10020534   4.297   2.368   6.259 -1.1857 -0.0540  0.6057
   18MOL   H10120535   4.315   2.445   6.417  0.1825 -0.4551 -0.4575
   18MOL   H10220536   4.204   2.585   6.171 -1.9132  0.5503  0.6531
   18MOL   H10320537   4.235   2.666   6.321  1.5160 -0.8344  0.9954
   18MOL   H10420538   4.476   2.630   6.286  0.0523 -1.8177  0.2879
   18MOL   H10520539   4.449   2.552   6.138  0.8731  0.1324 -0.1346
   18MOL   H10620540   4.490   2.957   5.984  0.9593  2.4028  0.6049
   18MOL   H10720541   4.509   3.066   6.114  0.9703 -1.4689  1.1820
   18MOL   H10820542   4.317   3.154   6.036 -1.4032 -0.3363 -0.0374
   18MOL   H10920543   4.243   3.044   6.152  1.1785  0.1140  0.8413
   18MOL   H11020544   4.195   2.878   5.975  1.0567 -0.2997 -0.3234
   18MOL   H11120545   4.267   2.964   5.850  0.0212 -3.4292  0.7061
   18MOL   H11220546   4.025   2.991   5.854  1.1380  1.7609 -2.8095
   18MOL   H11320547   4.112   3.139   5.852  1.5527 -0.5489 -0.8045
   18MOL   H11420548   3.980   3.009   6.099  1.4547 -1.6918 -1.8302
   18MOL   H11520549   4.067   3.156   6.109 -1.9532 -0.7083  1.1943
   18MOL   H11620550   3.852   3.228   6.097  1.6407  2.1382 -0.5025
   18MOL   H11720551   3.916   3.259   5.940  0.8279  0.7118  2.2580
   18MOL   H11820552   3.734   3.023   5.983  0.5411 -1.1704 -2.5215
   18MOL   H11920553   3.811   3.069   5.831 -3.2582 -1.0752 -1.3367
   18MOL   H12020554   3.600   3.248   5.943  2.2063  1.7459  1.2966
   18MOL   H12120555   3.699   3.274   5.802 -0.0799 -0.4823 -1.0629
   18MOL   O12220556   3.456   3.207   5.769 -0.6078 -0.3642 -0.1353
   18MOL   C12320557   3.343   3.176   5.691  0.1578 -0.4435  0.4102
   18MOL   C12420558   3.208   3.240   5.729 -0.0528 -0.8286  0.1579
   18MOL   C12520559   3.209   3.391   5.722  0.7884  0.3645 -0.5619
   18MOL   C12620560   3.082   3.475   5.748 -0.1929  0.1082 -0.0201
   18MOL   C12720561   3.107   3.623   5.734 -0.4949  0.2667  1.2378
   18MOL   C12820562   2.981   3.713   5.773 -0.4246  0.9859 -0.2879
   18MOL   C12920563   3.013   3.858   5.771  0.2438  0.0700 -0.2770
   18MOL   C13020564   2.889   3.943   5.794  0.3836  0.3916 -0.0859
   18MOL   C13120565   2.781   3.956   5.680  0.1393 -0.0429  0.5770
   18MOL   C13220566   2.653   4.010   5.738  0.3254 -0.1381  0.3550
   18MOL   O13320567   2.590   3.908   5.819 -0.0507 -0.1377  0.5776
   18MOL   C13420568   2.473   3.857   5.796  0.5525  0.6043 -0.3547
   18MOL   O13520569   2.392   3.887   5.713 -0.0403 -0.5524  0.7362
   18MOL   C13620570   2.459   3.734   5.888  0.3012 -0.9236  0.6277
   18MOL   C13720571   2.577   3.628   5.863 -0.7754  0.2048  0.2344
   18MOL   C13820572   2.618   3.539   5.984  0.1145  0.4089  0.6716
   18MOL   C13920573   2.517   3.441   6.033 -0.5507  0.8399 -0.3068
   18MOL   C14020574   2.465   3.328   5.934 -0.1358 -0.8725  0.0797
   18MOL   C14120575   2.409   3.205   6.018  0.1471 -0.2021 -0.2884
   18MOL   C14220576   2.328   3.109   5.926  0.0852 -0.2353  1.0135
   18MOL   C14320577   2.201   3.171   5.860 -0.2915  0.4813  0.0964
   18MOL   C14420578   2.111   3.068   5.788 -0.5796 -0.4046 -0.1418
   18MOL   O14520579   1.982   3.078   5.802 -0.2591 -0.9507  0.3574
   18MOL   H14620580   3.367   3.198   5.588 -0.5773 -0.6676  0.1816
   18MOL   H14720581   3.336   3.068   5.705  1.1438 -0.3533  1.7070
   18MOL   H14820582   3.131   3.216   5.655  1.1745  1.7669 -2.0558
   18MOL   H14920583   3.165   3.216   5.826 -0.4278  2.0682  0.7670
   18MOL   H15020584   3.276   3.423   5.802  1.0436 -1.6723  0.0579
   18MOL   H15120585   3.254   3.426   5.629 -2.3877  0.4930 -2.1303
   18MOL   H15220586   3.006   3.451   5.673 -0.5446  2.4279 -0.4309
   18MOL   H15320587   3.033   3.448   5.842 -0.8570 -1.5238 -0.8182
   18MOL   H15420588   3.133   3.650   5.631 -0.1708 -2.5237  0.5232
   18MOL   H15520589   3.196   3.656   5.787 -0.4732  1.5033  0.4415
   18MOL   H15620590   2.966   3.684   5.877 -0.6754  0.8931 -0.3500
   18MOL   H15720591   2.893   3.694   5.713  1.0012  2.0876 -2.8047
   18MOL   H15820592   3.072   3.886   5.683 -1.1435  1.1368 -0.8862
   18MOL   H15920593   3.087   3.874   5.849 -0.0717  0.6433 -0.1027
   18MOL   H16020594   2.930   4.043   5.811  1.6883 -0.6189  3.0043
   18MOL   H16120595   2.851   3.913   5.891  0.2153 -1.2431 -0.6340
   18MOL   H16220596   2.818   4.007   5.591 -0.3817  0.6354  0.7417
   18MOL   H16320597   2.753   3.857   5.643  0.9312  0.1155 -0.4635
   18MOL   H16420598   2.677   4.098   5.798  1.5044  0.4254 -0.9132
   18MOL   H16520599   2.591   4.046   5.655  0.2237 -1.4105 -0.1307
   18MOL   H16620600   2.359   3.693   5.877 -0.0798  0.2960 -0.6306
   18MOL   H16720601   2.457   3.762   5.993  0.3566  1.8454 -0.0665
   18MOL   H16820602   2.667   3.680   5.828  0.1788 -1.0883  0.7339
   18MOL   H16920603   2.546   3.560   5.783 -0.9352  0.9232 -0.3229
   18MOL   H17020604   2.646   3.607   6.065  2.1522  2.4567 -1.6679
   18MOL   H17120605   2.715   3.495   5.962 -0.1308 -0.0603  0.5243
   18MOL   H17220606   2.436   3.492   6.085 -0.8511 -0.7180  0.7618
   18MOL   H17320607   2.567   3.393   6.116 -0.3381  0.3480 -0.7213
   18MOL   H17420608   2.387   3.363   5.865  0.8628  1.2041 -0.0389
   18MOL   H17520609   2.549   3.302   5.870  0.2668  1.9063 -0.5866
   18MOL   H17620610   2.483   3.143   6.070  0.6321 -0.8101 -1.6591
   18MOL   H17720611   2.346   3.247   6.096  0.4667  0.0361 -0.1588
   18MOL   H17820612   2.305   3.018   5.981 -0.1454 -0.4153  0.6178
   18MOL   H17920613   2.392   3.079   5.843 -0.9753  0.7558 -0.1674
   18MOL   H18020614   2.138   3.214   5.937 -0.6656  3.5139 -1.8322
   18MOL   H18120615   2.246   3.247   5.797  4.0845  0.4031  2.8960
   18MOL   O18220616   2.177   2.990   5.706 -0.5709 -0.3328 -0.0835
   18MOL   C18320617   2.110   2.931   5.597  0.6209 -0.0552 -0.4905
   18MOL   C18420618   2.190   2.802   5.557 -0.3413  0.2790 -0.3503
   18MOL   C18520619   2.118   2.720   5.448  0.0876 -0.7151 -0.3536
   18MOL   C18620620   2.220   2.626   5.388  0.0422 -0.2563 -0.3685
   18MOL   C18720621   2.156   2.540   5.280  0.0577 -1.3134 -0.4723
   18MOL   C18820622   2.262   2.446   5.219  0.1142  0.6395 -0.3186
   18MOL   C18920623   2.199   2.333   5.131 -0.4286  0.3976 -0.5517
   18MOL   C19020624   2.138   2.388   5.009  0.1343  0.7865  0.6874
   18MOL   C19120625   2.091   2.263   4.930 -0.4855 -0.2665  0.4211
   18MOL   C19220626   1.983   2.299   4.827  0.2036 -1.0587 -0.3174
   18MOL   O19320627   1.966   2.192   4.739 -0.0774 -0.1519  0.4716
   18MOL   C19420628   1.843   2.167   4.682 -0.0046 -0.0183 -0.0770
   18MOL   O19520629   1.745   2.235   4.698 -0.1949 -0.1357 -0.3896
   18MOL   C19620630   1.845   2.061   4.581  0.1970  0.0046 -0.3348
   18MOL   C19720631   1.827   2.110   4.430 -0.2610  1.0025 -0.1430
   18MOL   C19820632   1.909   2.030   4.325 -0.0315  0.0603 -1.2377
   18MOL   C19920633   1.899   2.093   4.184 -0.4502 -1.1220  0.9189
   18MOL   C20020634   1.773   2.055   4.105 -0.0101  0.3371  0.1212
   18MOL   C20120635   1.771   2.100   3.954 -0.3506  0.0559 -0.1772
   18MOL   C20220636   1.806   2.252   3.940  0.2025 -0.2795 -0.2866
   18MOL   C20320637   1.780   2.313   3.800  0.3315 -0.3088 -0.2224
   18MOL   C20420638   1.632   2.358   3.776 -0.0544  0.6033 -0.2215
   18MOL   O20520639   1.555   2.292   3.706  0.5192 -0.0060 -0.0208
   18MOL   H20620640   2.009   2.905   5.628 -0.5782  1.3885 -3.0130
   18MOL   H20720641   2.100   3.003   5.515 -0.5526 -1.8410 -1.9615
   18MOL   H20820642   2.289   2.826   5.519  1.1240  0.1288  3.1194
   18MOL   H20920643   2.204   2.745   5.649 -2.0007  2.0262  0.9972
   18MOL   H21020644   2.041   2.657   5.492 -0.7824 -0.4885 -1.5470
   18MOL   H21120645   2.062   2.783   5.380 -2.6021 -1.5313  1.0198
   18MOL   H21220646   2.296   2.681   5.333  0.7860 -1.7369 -0.8687
   18MOL   H21320647   2.255   2.571   5.475 -0.6258  1.7572  1.2129
   18MOL   H21420648   2.109   2.602   5.204 -3.6771  0.7627  3.3201
   18MOL   H21520649   2.076   2.487   5.332 -0.4480 -0.7952 -0.7191
   18MOL   H21620650   2.315   2.392   5.297 -0.7031  0.0561 -0.1590
   18MOL   H21720651   2.323   2.510   5.155  0.7929  2.1738  1.8312
   18MOL   H21820652   2.133   2.279   5.199  0.8671  1.1730  1.3816
   18MOL   H21920653   2.281   2.264   5.109  1.2275  2.4885 -1.1869
   18MOL   H22020654   2.207   2.444   4.945  0.8698 -0.8012  0.0533
   18MOL   H22120655   2.051   2.449   5.035  0.2066  0.9010  0.6595
   18MOL   H22220656   2.183   2.226   4.885 -0.6611 -2.2798  1.6383
   18MOL   H22320657   2.043   2.188   4.993 -1.7331  0.3039  0.1631
   18MOL   H22420658   1.891   2.334   4.874 -0.6848 -1.6236 -1.6096
   18MOL   H22520659   2.014   2.379   4.761 -2.0539 -0.7255 -1.0207
   18MOL   H22620660   1.780   1.977   4.607 -0.4494  1.5804  3.3682
   18MOL   H22720661   1.947   2.026   4.595  0.6336  1.1778 -0.5680
   18MOL   H22820662   1.858   2.214   4.428  1.6180  0.4530 -1.4540
   18MOL   H22920663   1.720   2.109   4.408 -0.6095 -3.9086  1.1751
   18MOL   H23020664   1.893   1.923   4.331 -1.3901  0.3340  0.6585
   18MOL   H23120665   2.009   2.058   4.358 -1.3382  0.3853  2.7072
   18MOL   H23220666   1.982   2.066   4.118  0.1551 -1.4823  1.8191
   18MOL   H23320667   1.911   2.201   4.196  2.7977 -1.2861 -0.2904
   18MOL   H23420668   1.762   1.948   4.119 -0.9483  0.3786 -0.2316
   18MOL   H23520669   1.687   2.098   4.159 -0.6101  1.0693 -1.3815
   18MOL   H23620670   1.844   2.039   3.901 -0.8481  1.1422 -2.1795
   18MOL   H23720671   1.675   2.071   3.909  0.2756 -1.9221 -0.2819
   18MOL   H23820672   1.905   2.281   3.973 -0.6011  1.1640  0.9328
   18MOL   H23920673   1.744   2.306   4.012  0.4990  0.3819 -0.5202
   18MOL   H24020674   1.850   2.391   3.768  1.5126 -1.0528  0.4887
   18MOL   H24120675   1.802   2.234   3.727  1.4163  0.0250 -0.2699
   18MOL   O24220676   1.602   2.480   3.831  0.4032 -0.0517  0.6343
   18MOL   C24320677   1.479   2.542   3.816  0.6000 -0.3338  0.2316
   18MOL   C24420678   1.496   2.690   3.842  0.0512 -0.0131 -0.7815
   18MOL   C24520679   1.558   2.720   3.985 -0.2604  0.1529  0.1751
   18MOL   C24620680   1.583   2.874   3.998 -0.5838  1.2773 -0.2413
   18MOL   C24720681   1.623   2.901   4.147 -0.4860 -1.0824 -0.5586
   18MOL   C24820682   1.507   2.909   4.252 -0.4563  0.1231  0.2353
   18MOL   C24920683   1.549   2.951   4.389 -0.8515 -0.4236 -0.2022
   18MOL   C25020684   1.437   2.946   4.493  0.3773 -0.5718 -0.6924
   18MOL   C25120685   1.475   2.984   4.637  0.5318  0.0406 -0.3926
   18MOL   C25220686   1.391   2.922   4.747 -0.4738  0.5523 -0.1493
   18MOL   O25320687   1.254   2.967   4.724 -0.3297  0.0339  0.4706
   18MOL   C25420688   1.152   2.882   4.735  0.6268 -0.2248  0.1821
   18MOL   O25520689   1.154   2.761   4.754  0.2737 -0.7609 -0.3580
   18MOL   C25620690   1.023   2.953   4.698  0.2898  0.4634 -0.0993
   18MOL   C25720691   0.933   2.878   4.605 -0.8498 -0.3528 -0.2237
   18MOL   C25820692   0.946   2.917   4.462  0.3741  0.4493 -0.8681
   18MOL   C25920693   1.072   2.850   4.397 -0.0502 -0.5000 -0.6147
   18MOL   C26020694   1.058   2.707   4.339 -0.0756  0.0967  0.1288
   18MOL   C26120695   1.178   2.672   4.247  0.2300 -0.1563 -0.7578
   18MOL   C26220696   1.136   2.530   4.191 -0.4068  0.0639  0.0208
   18MOL   C26320697   1.249   2.481   4.097  0.4545  0.2235 -0.0733
   18MOL   C26420698   1.199   2.352   4.026 -0.6720  0.1323  0.1069
   18MOL   O26520699   1.079   2.311   4.027  0.0191  0.0870 -0.4867
   18MOL   H26620700   1.432   2.531   3.718  3.1804 -3.8965 -0.7057
   18MOL   H26720701   1.417   2.491   3.890  0.0620 -0.3945 -0.2529
   18MOL   H26820702   1.545   2.740   3.758  1.4709 -0.3829 -0.1940
   18MOL   H26920703   1.401   2.742   3.833  0.9139  1.9288  0.8591
   18MOL   H27020704   1.490   2.686   4.064 -3.0230  1.1740 -1.6865
   18MOL   H27120705   1.658   2.678   3.991 -0.0022  0.6998 -0.2936
   18MOL   H27220706   1.665   2.905   3.934 -0.0673 -0.8768 -0.6758
   18MOL   H27320707   1.494   2.934   3.983 -1.1264  1.0780  1.9743
   18MOL   H27420708   1.672   2.999   4.151 -0.1630 -1.2716  0.1773
   18MOL   H27520709   1.696   2.830   4.185 -2.0510 -2.4222 -0.0560
   18MOL   H27620710   1.460   2.810   4.256 -1.4528  0.6296  2.0491
   18MOL   H27720711   1.429   2.978   4.221 -0.5904 -0.4276 -0.6783
   18MOL   H27820712   1.590   3.052   4.388 -1.0448 -0.3274  1.2452
   18MOL   H27920713   1.632   2.883   4.411 -1.3976 -0.2856  2.3542
   18MOL   H28020714   1.394   2.846   4.493 -0.8261 -0.0629  0.5527
   18MOL   H28120715   1.348   3.003   4.465  0.4818  0.1991  0.5574
   18MOL   H28220716   1.580   2.960   4.650  0.4179 -0.5600 -0.5752
   18MOL   H28320717   1.467   3.092   4.654 -1.0109  0.2477 -2.2277
   18MOL   H28420718   1.398   2.814   4.743 -0.7616  0.5451 -0.4269
   18MOL   H28520719   1.424   2.945   4.849 -0.5136 -2.4437  0.5655
   18MOL   H28620720   1.044   3.053   4.661 -0.2657  1.0923  1.2318
   18MOL   H28720721   0.970   2.950   4.793 -1.7103  0.6900 -1.1838
   18MOL   H28820722   0.831   2.892   4.638 -0.7643  0.7305 -0.4153
   18MOL   H28920723   0.950   2.770   4.613 -0.3456 -0.4322 -2.0349
   18MOL   H29020724   0.948   3.025   4.449 -1.4861  0.8720  1.8632
   18MOL   H29120725   0.859   2.878   4.408 -0.9840 -1.3484  2.4610
   18MOL   H29220726   1.161   2.863   4.458  0.7614 -1.5574 -1.5632
   18MOL   H29320727   1.095   2.905   4.306  0.6268 -1.2588 -0.8966
   18MOL   H29420728   1.047   2.630   4.415  1.2194 -0.4429 -0.2118
   18MOL   H29520729   0.969   2.711   4.277  0.5606 -3.1123 -1.0746
   18MOL   H29620730   1.177   2.737   4.159 -1.9071 -1.0051 -1.4060
   18MOL   H29720731   1.267   2.669   4.309  1.0886  1.6195 -1.8666
   18MOL   H29820732   1.042   2.538   4.135  1.2810  1.2439 -2.7582
   18MOL   H29920733   1.125   2.456   4.270  0.9747 -0.2930 -0.1119
   18MOL   H30020734   1.267   2.561   4.025 -2.3442 -1.3778 -2.6428
   18MOL   H30120735   1.343   2.452   4.144 -0.2137 -0.5978  0.7645
   18MOL   O30220736   1.299   2.305   3.953  0.2861  0.1558 -0.3011
   18MOL   C30320737   1.293   2.175   3.895 -0.1291  0.8413 -0.0163
   18MOL   C30420738   1.379   2.074   3.984 -0.0073 -0.2323  0.9065
   18MOL   C30520739   1.361   1.938   3.925 -0.2159  0.6113 -0.0325
   18MOL   C30620740   1.443   1.831   3.979 -0.9337  0.2008  0.3532
   18MOL   C30720741   1.453   1.707   3.894  0.2796  0.4417  0.1437
   18MOL   C30820742   1.534   1.602   3.969 -0.8064  0.3058 -0.6215
   18MOL   C30920743   1.580   1.481   3.874 -0.1219  0.8759 -0.6277
   18MOL   C31020744   1.639   1.365   3.966 -0.3107 -0.2374  0.3528
   18MOL   C31120745   1.647   1.229   3.892  0.4987  0.4715 -0.1297
   18MOL   C31220746   1.719   1.121   3.970  0.2358  0.1773 -0.0541
   18MOL   O31320747   1.656   1.105   4.100 -0.1154 -0.2300  0.3098
   18MOL   C31420748   1.637   0.986   4.169 -0.1253 -0.1714 -0.1452
   18MOL   O31520749   1.665   0.878   4.121  0.0915 -0.1105 -0.4458
   18MOL   C31620750   1.585   0.997   4.311 -0.2368  0.3981  0.3581
   18MOL   C31720751   1.432   0.975   4.318  0.5548  0.1091  0.4405
   18MOL   C31820752   1.348   1.074   4.231  0.4009 -0.0444  0.2188
   18MOL   C31920753   1.357   1.220   4.282  0.3648  0.3984 -0.2778
   18MOL   C32020754   1.256   1.323   4.227  0.0963 -0.4261  0.7525
   18MOL   C32120755   1.267   1.468   4.293  0.7953  0.5875  0.1626
   18MOL   C32220756   1.153   1.570   4.255  0.1945  0.2558 -0.3784
   18MOL   C32320757   1.128   1.676   4.361 -0.9189  0.4743  0.5756
   18MOL   C32420758   1.056   1.625   4.493 -0.3778  0.1737 -0.3028
   18MOL   O32520759   1.118   1.575   4.587  0.4455  0.4466 -0.3306
   18MOL   H32620760   1.188   2.146   3.894 -0.0298  0.4902 -0.5429
   18MOL   H32720761   1.316   2.176   3.788  0.8245  2.5467  0.1861
   18MOL   H32820762   1.485   2.101   3.988 -0.3448  1.0009  1.7015
   18MOL   H32920763   1.345   2.066   4.087 -2.4550  1.0034  0.2135
   18MOL   H33020764   1.260   1.900   3.942  0.7480 -1.5888  0.8696
   18MOL   H33120765   1.359   1.939   3.816  1.3051  1.8703 -0.0720
   18MOL   H33220766   1.547   1.865   3.986 -0.7024 -0.3928 -0.1498
   18MOL   H33320767   1.403   1.814   4.079 -1.3492  0.4918  0.2364
   18MOL   H33420768   1.495   1.736   3.797  1.2270 -2.4361 -0.3421
   18MOL   H33520769   1.349   1.676   3.892  0.5585 -0.5341  0.5344
   18MOL   H33620770   1.468   1.568   4.049  0.0122 -1.4334 -0.6553
   18MOL   H33720771   1.610   1.657   4.026 -0.4152 -0.0689 -0.7799
   18MOL   H33820772   1.650   1.512   3.796 -1.1730  0.8473 -1.5987
   18MOL   H33920773   1.506   1.440   3.806  0.2209  0.3303 -0.6746
   18MOL   H34020774   1.563   1.336   4.038  0.9597 -1.2615  1.3228
   18MOL   H34120775   1.731   1.401   4.012 -0.8543  1.3291  0.2370
   18MOL   H34220776   1.543   1.201   3.874  0.7492 -1.4371  1.2089
   18MOL   H34320777   1.689   1.236   3.792  1.4974 -2.2832  0.0481
   18MOL   H34420778   1.718   1.023   3.922  3.0479  0.1934 -0.2287
   18MOL   H34520779   1.823   1.153   3.973  0.6153 -1.0884  0.7711
   18MOL   H34620780   1.609   1.097   4.346 -0.7883  0.3049  1.0006
   18MOL   H34720781   1.640   0.920   4.364  0.4640  0.6295 -0.0319
   18MOL   H34820782   1.398   0.972   4.421 -0.8711 -2.1002 -0.0554
   18MOL   H34920783   1.405   0.877   4.279  1.7627  0.1724 -0.5843
   18MOL   H35020784   1.248   1.035   4.247  1.4111 -1.5952  3.1415
   18MOL   H35120785   1.368   1.063   4.124  0.2022  1.3534  0.0251
   18MOL   H35220786   1.457   1.264   4.286  1.1113 -1.0912 -1.6610
   18MOL   H35320787   1.336   1.216   4.389  0.7741 -0.5427 -0.2278
   18MOL   H35420788   1.263   1.335   4.119 -1.8098  0.8837  0.7591
   18MOL   H35520789   1.154   1.290   4.245 -0.9112  0.5081 -2.8417
   18MOL   H35620790   1.275   1.463   4.401  1.2113 -0.3387  0.0912
   18MOL   H35720791   1.368   1.502   4.272 -0.0180  2.4180 -1.0323
   18MOL   H35820792   1.057   1.519   4.239  1.2514 -1.6956 -0.6347
   18MOL   H35920793   1.174   1.614   4.158  1.8120  0.2171 -0.0453
   18MOL   H36020794   1.226   1.711   4.391 -0.3696  1.0993 -1.8127
   18MOL   H36120795   1.080   1.764   4.317  1.2688  2.1667  1.5069
   18MOL   O36220796   0.921   1.633   4.492  0.5746 -0.4307  0.5182
   18MOL   C36320797   0.846   1.608   4.610  0.1582 -0.3070 -0.3550
   18MOL   C36420798   0.696   1.642   4.594  0.2437  0.1747 -0.3430
   18MOL   C36520799   0.612   1.613   4.720  0.0277  0.3507  0.8533
   18MOL   C36620800   0.467   1.660   4.709 -1.1853 -0.2919 -0.5196
   18MOL   C36720801   0.380   1.602   4.822  0.6069  0.0010  0.7748
   18MOL   C36820802   0.404   1.668   4.957  0.0336 -0.7353 -0.8924
   18MOL   C36920803   0.323   1.608   5.072  0.4713  0.4692  0.9222
   18MOL   C37020804   0.171   1.618   5.071  0.8590 -0.3762 -0.0740
   18MOL   C37120805   0.106   1.583   5.206 -0.0387 -0.5633  0.1366
   18MOL   C37220806   7.710   1.595   5.200  0.0033  0.0684  0.2702
   18MOL   O37320807   7.675   1.733   5.210  0.1109 -0.2307  0.1782
   18MOL   C37420808   7.548   1.764   5.227 -0.0395  0.1794 -0.6227
   18MOL   O37520809   7.461   1.683   5.206 -0.4874 -0.0501  0.1525
   18MOL   C37620810   7.513   1.906   5.270  0.2533 -0.3980  0.2187
   18MOL   C37720811   7.572   1.959   5.409 -0.3190 -0.0165  0.8102
   18MOL   C37820812   7.477   1.923   5.527  0.3953  0.4104  0.8237
   18MOL   C37920813   7.419   1.775   5.530 -0.4951 -0.4202  0.5246
   18MOL   C38020814   7.523   1.670   5.576 -0.7071 -0.3511 -0.3771
   18MOL   C38120815   7.456   1.536   5.602  0.5026  0.5605 -0.4244
   18MOL   C38220816   7.563   1.422   5.629  0.0561 -0.6006  0.2476
   18MOL   C38320817   7.660   1.399   5.511 -0.3626  0.3089 -0.5180
   18MOL   C38420818   7.736   1.270   5.519  0.1907 -0.3704 -0.2078
   18MOL   O38520819   7.705   1.188   5.603 -0.1457 -0.9243 -0.0543
   18MOL   H38620820   0.858   1.500   4.621  1.2324 -0.1640 -0.1075
   18MOL   H38720821   0.886   1.649   4.703 -1.1950 -1.3291  0.6881
   18MOL   H38820822   0.690   1.746   4.559 -1.2482  0.0308 -0.5525
   18MOL   H38920823   0.663   1.582   4.509  1.3764  1.9285 -2.0565
   18MOL   H39020824   0.612   1.504   4.727  1.8822  0.3653  1.1654
   18MOL   H39120825   0.667   1.659   4.802 -0.7841 -1.6536  2.5864
   18MOL   H39220826   0.457   1.768   4.709 -1.2139 -0.2685  1.5089
   18MOL   H39320827   0.426   1.617   4.617  1.6278 -4.4314 -0.0166
   18MOL   H39420828   0.402   1.496   4.830  1.4038 -0.0834 -2.1150
   18MOL   H39520829   0.274   1.606   4.796  0.3489  0.7428  1.9085
   18MOL   H39620830   0.390   1.776   4.959 -2.2979 -0.9940 -1.5837
   18MOL   H39720831   0.510   1.648   4.975 -0.2300 -0.6642  0.7851
   18MOL   H39820832   0.376   1.660   5.151  0.7263  1.3025  0.2143
   18MOL   H39920833   0.353   1.506   5.095 -1.0155 -0.5051 -1.2993
   18MOL   H40020834   0.127   1.575   4.982 -0.7743 -2.5487  1.7405
   18MOL   H40120835   0.145   1.724   5.063 -0.9116 -0.6643  1.5201
   18MOL   H40220836   0.128   1.478   5.223 -2.3602 -0.9463  0.8564
   18MOL   H40320837   0.146   1.644   5.288  1.1913 -1.3545  0.1365
   18MOL   H40420838   7.672   1.541   5.114  1.2118  0.8659 -0.7755
   18MOL   H40520839   7.678   1.532   5.283 -2.2869 -0.8210 -1.2358
   18MOL   H40620840   7.405   1.921   5.268  0.3721  0.5623  0.9307
   18MOL   H40720841   7.564   1.963   5.193  1.0676 -0.2434  0.8664
   18MOL   H40820842   7.595   2.065   5.402 -0.4453  0.0421  1.3004
   18MOL   H40920843   7.671   1.912   5.410 -0.4565 -0.3961 -1.3014
   18MOL   H41020844   7.390   1.986   5.508  0.4362 -0.0762 -1.0752
   18MOL   H41120845   7.518   1.952   5.623  1.8674 -1.5209  0.8049
   18MOL   H41220846   7.374   1.750   5.434  2.3744 -0.1853 -0.9405
   18MOL   H41320847   7.332   1.770   5.596 -0.9649 -0.0028 -0.0491
   18MOL   H41420848   7.606   1.670   5.506 -0.8122  4.1924 -0.6570
   18MOL   H41520849   7.573   1.707   5.666  1.4485  0.5523 -1.9196
   18MOL   H41620850   7.385   1.546   5.684 -0.3939 -0.5786 -1.0395
   18MOL   H41720851   7.396   1.512   5.514  0.0244 -1.3330  0.3795
   18MOL   H41820852   7.496   1.335   5.634 -0.7591  0.1598  4.1202
   18MOL   H41920853   7.620   1.425   5.722  1.4811 -0.0790 -0.6247
   18MOL   H42020854   7.601   1.396   5.420 -0.8750  2.5037 -0.2831
   18MOL   H42120855   7.723   1.484   5.483 -0.0878  0.2088 -0.2043
   18MOL   O42220856   0.070   1.257   5.424 -0.6229 -0.2335  0.0698
   18MOL   C42320857   0.152   1.142   5.418 -0.4394  0.8564 -0.6806
   18MOL   C42420858   0.208   1.118   5.274 -0.2722 -0.2113  0.0224
   18MOL   C42520859   0.089   1.077   5.175  0.1230 -1.0325 -0.8953
   18MOL   C42620860   0.143   1.036   5.038  0.8706  0.2258 -0.1379
   18MOL   C42720861   0.185   1.155   4.946  0.2196  0.2583  0.7938
   18MOL   C42820862   0.201   1.117   4.796  0.8284 -0.8231 -0.3718
   18MOL   C42920863   0.220   1.249   4.707 -0.3925  0.7224 -0.8635
   18MOL   C43020864   0.197   1.218   4.562  0.2927  0.3193 -0.1564
   18MOL   C43120865   0.236   1.333   4.466  0.6972  0.1509 -0.3674
   18MOL   C43220866   0.213   1.288   4.319  0.1124 -0.5339 -0.2599
   18MOL   O43320867   0.314   1.191   4.276 -0.0043  0.5349 -0.0668
   18MOL   C43420868   0.290   1.103   4.175 -0.1018  0.2333 -0.3468
   18MOL   O43520869   0.190   1.099   4.096  0.5981  0.1633  0.0412
   18MOL   C43620870   0.408   1.014   4.159  0.3200  0.4060 -0.2429
   18MOL   C43720871   0.451   0.937   4.287  0.2918 -0.4705 -0.3349
   18MOL   C43820872   0.344   0.837   4.330  0.3470 -0.0981  0.4889
   18MOL   C43920873   0.376   0.772   4.464 -0.4349 -0.2232  0.4138
   18MOL   C44020874   0.275   0.655   4.484  0.3303 -0.8178  0.1375
   18MOL   C44120875   0.287   0.607   4.635  0.6253 -0.1727  0.0250
   18MOL   C44220876   0.234   0.470   4.673  0.3183 -0.0242 -0.4143
   18MOL   C44320877   0.340   0.356   4.671 -0.4510 -0.0361 -0.2969
   18MOL   C44420878   0.289   0.220   4.702  0.2905 -0.3592 -0.4981
   18MOL   O44520879   0.333   0.155   4.801 -0.0804 -0.5462 -0.1124
   18MOL   H44620880   0.229   1.155   5.495 -0.3624 -0.0206 -0.6012
   18MOL   H44720881   0.098   1.053   5.449 -1.0070  1.6421  0.5928
   18MOL   H44820882   0.264   1.204   5.236 -1.8192  0.4405 -0.8600
   18MOL   H44920883   0.283   1.040   5.271 -0.5896 -0.5100 -0.2080
   18MOL   H45020884   0.038   0.991   5.219 -2.0365  1.6496  2.0370
   18MOL   H45120885   0.022   1.162   5.179 -0.6925 -1.7430  1.7971
   18MOL   H45220886   0.222   0.961   5.047  1.5427  1.0630  1.0518
   18MOL   H45320887   0.057   0.994   4.986  0.7283  0.4490 -0.0809
   18MOL   H45420888   0.277   1.196   4.988  0.5763  0.5264 -0.2266
   18MOL   H45520889   0.112   1.237   4.948  0.7433  0.7224  1.2649
   18MOL   H45620890   0.106   1.070   4.770  1.9873 -1.5969 -3.4171
   18MOL   H45720891   0.280   1.043   4.782  1.7553  0.0259  0.3471
   18MOL   H45820892   0.320   1.286   4.729  0.1479  0.0182 -2.0418
   18MOL   H45920893   0.142   1.316   4.743 -0.3364  0.5486 -0.4128
   18MOL   H46020894   0.090   1.201   4.552 -0.0371 -0.7050  4.1370
   18MOL   H46120895   0.247   1.127   4.526 -1.9980 -0.9205 -0.3009
   18MOL   H46220896   0.171   1.420   4.479  0.1237  0.1421 -2.9199
   18MOL   H46320897   0.341   1.357   4.477  0.3254  1.1417  1.2202
   18MOL   H46420898   0.114   1.243   4.320  0.1613 -0.6550 -0.7453
   18MOL   H46520899   0.227   1.373   4.253  0.2195  0.2177  0.7212
   18MOL   H46620900   0.489   1.064   4.105  1.7797 -1.6857 -0.0450
   18MOL   H46720901   0.389   0.932   4.090 -0.4962  0.5462 -0.1957
   18MOL   H46820902   0.457   1.007   4.370 -0.8050 -0.2676 -0.4203
   18MOL   H46920903   0.547   0.892   4.265  0.6609  0.5388 -0.7974
   18MOL   H47020904   0.343   0.761   4.252  0.0586 -0.2830  0.6694
   18MOL   H47120905   0.244   0.881   4.330  0.5716  0.4215  0.4951
   18MOL   H47220906   0.369   0.838   4.550  0.7575  0.8724 -0.3087
   18MOL   H47320907   0.477   0.732   4.467 -0.6066 -0.8858 -1.6262
   18MOL   H47420908   0.173   0.682   4.455  0.5296 -0.7073 -0.4609
   18MOL   H47520909   0.311   0.571   4.426 -3.1835 -3.2206  1.2741
   18MOL   H47620910   0.389   0.620   4.671  1.1051  0.4585 -1.4826
   18MOL   H47720911   0.222   0.673   4.692 -0.8795 -2.4236  0.9543
   18MOL   H47820912   0.147   0.439   4.615 -0.3163  1.2204 -0.1394
   18MOL   H47920913   0.201   0.474   4.777  0.3074 -2.5427 -0.2776
   18MOL   H48020914   0.391   0.368   4.576  0.0519  1.2620  0.1320
   18MOL   H48120915   0.406   0.376   4.755 -1.4803  1.3178  0.2152
   18MOL   O48220916   0.196   0.184   4.611 -0.3594  0.3625  0.2462
   18MOL   C48320917   0.129   0.062   4.631  0.4393  0.2155 -0.6858
   18MOL   C48420918   0.027   0.069   4.745  0.0989 -0.1528  0.9605
   18MOL   C48520919   7.686   7.711   4.734  0.2437 -0.1231 -0.1492
   18MOL   C48620920   7.577   7.713   4.846  0.5899 -0.2351 -0.0151
   18MOL   C48720921   7.473   0.065   4.837  0.1312 -0.5124 -0.5391
   18MOL   C48820922   7.379   0.059   4.959  0.6138  0.3808 -0.1838
   18MOL   C48920923   7.281   0.171   4.962 -0.6586 -0.6356 -0.2175
   18MOL   C49020924   7.195   0.174   5.092  0.1822 -0.0897 -0.4808
   18MOL   C49120925   7.108   0.302   5.100 -0.2249  0.0317 -0.7291
   18MOL   C49220926   6.994   0.318   4.997  0.4035 -0.0296  0.2460
   18MOL   O49320927   6.928   0.443   5.022 -0.0349  0.0808 -0.5627
   18MOL   C49420928   6.830   0.480   4.934 -0.0158  0.4828  0.3825
   18MOL   O49520929   6.792   0.416   4.839 -0.3323  0.1665 -0.2344
   18MOL   C49620930   6.785   0.617   4.962  0.8089  0.0371 -0.2958
   18MOL   C49720931   6.864   0.729   4.891  0.0773  0.0951  0.5614
   18MOL   C49820932   6.803   0.863   4.934  0.4988 -0.2843  0.2076
   18MOL   C49920933   6.902   0.975   4.913  0.5459 -0.3570  0.1738
   18MOL   C50020934   6.973   0.984   4.782  0.0223 -0.1902  0.1474
   18MOL   C50120935   7.044   1.121   4.754 -0.4478 -0.2632  0.4915
   18MOL   C50220936   7.166   1.107   4.661  0.7290  0.1275 -0.1281
   18MOL   C50320937   7.229   1.238   4.607 -0.2255  0.2856 -0.0574
   18MOL   C50420938   7.119   1.333   4.550 -0.4530  0.1720 -0.5701
   18MOL   O50520939   7.113   1.446   4.584 -0.1082 -0.1029 -0.1917
   18MOL   H50620940   0.067   0.037   4.545  0.8634 -1.4210 -0.5314
   18MOL   H50720941   0.197   7.734   4.646 -0.3149  0.0024  1.6011
   18MOL   H50820942   0.081   0.068   4.840  2.5145 -0.3873 -0.3650
   18MOL   H50920943   7.737   0.167   4.733  1.7062  0.2364 -3.1041
   18MOL   H51020944   7.633   7.704   4.639  1.5985 -1.2089 -0.8618
   18MOL   H51120945   7.745   7.619   4.738 -2.3475 -1.8337  0.1176
   18MOL   H51220946   7.526   7.616   4.839  0.4624 -0.2296  0.7269
   18MOL   H51320947   7.637   7.718   4.937  0.6030 -0.7907  0.0134
   18MOL   H51420948   7.403   0.068   4.753 -0.3915  2.0583 -0.0470
   18MOL   H51520949   7.518   0.164   4.834 -1.6670  0.3752  0.3199
   18MOL   H51620950   7.432   0.054   5.054 -0.1501  1.4498  0.3107
   18MOL   H51720951   7.316   7.727   4.961 -0.2671  1.0338  1.4395
   18MOL   H51820952   7.220   0.175   4.872 -1.5331  2.6937  0.4284
   18MOL   H51920953   7.332   0.267   4.964  0.7750 -1.3980  1.7947
   18MOL   H52020954   7.256   0.176   5.183  0.3362  0.9707 -0.5989
   18MOL   H52120955   7.132   0.087   5.112  0.9847 -0.2433  1.5020
   18MOL   H52220956   7.075   0.314   5.204  1.4797 -0.4394 -0.1144
   18MOL   H52320957   7.170   0.389   5.080 -1.6789  1.3326  0.2743
   18MOL   H52420958   7.024   0.309   4.893 -2.1484 -0.0752 -0.5366
   18MOL   H52520959   6.922   0.236   5.008 -1.6737  1.7310  0.2596
   18MOL   H52620960   6.787   0.636   5.070 -1.3623 -1.5505  0.0593
   18MOL   H52720961   6.680   0.630   4.936  0.6598  1.0615  0.7563
   18MOL   H52820962   6.869   0.722   4.782 -1.1157 -1.3305  0.5869
   18MOL   H52920963   6.965   0.715   4.928  0.1424  2.3380  1.3405
   18MOL   H53020964   6.776   0.866   5.040  0.0860 -0.1822  0.0991
   18MOL   H53120965   6.703   0.880   4.895  0.6911 -0.4463 -0.3623
   18MOL   H53220966   6.977   0.959   4.990  1.2437  0.9575 -0.2107
   18MOL   H53320967   6.850   1.067   4.937  0.4070 -0.2312 -0.5780
   18MOL   H53420968   7.049   0.907   4.767 -0.0921  0.0096 -1.5601
   18MOL   H53520969   6.899   0.975   4.703 -0.3093 -2.6476  0.7281
   18MOL   H53620970   6.976   1.198   4.717 -0.0846  0.8487  2.0811
   18MOL   H53720971   7.075   1.165   4.849  1.5979  1.1509 -0.7793
   18MOL   H53820972   7.130   1.054   4.572  1.3447  0.0973 -0.3573
   18MOL   H53920973   7.246   1.045   4.701 -0.3447 -0.3910  1.2775
   18MOL   H54020974   7.297   1.285   4.678  0.2937  0.2324 -0.5222
   18MOL   H54120975   7.302   1.214   4.530  1.3848 -2.6019  2.2234
   18MOL   O54220976   7.048   1.263   4.466 -0.2194 -0.7077  0.5316
   18MOL   C54320977   6.946   1.325   4.395  0.3782  0.9067 -0.0033
   18MOL   C54420978   6.808   1.247   4.417 -0.2236 -0.0452  0.2763
   18MOL   C54520979   6.811   1.104   4.356  0.7556  0.9307 -0.0624
   18MOL   C54620980   6.672   1.041   4.342 -0.2059 -0.7350  0.4414
   18MOL   C54720981   6.584   1.097   4.232 -0.1757  0.1935  0.2690
   18MOL   C54820982   6.461   1.005   4.199 -0.0710  0.2729 -0.5857
   18MOL   C54920983   6.362   1.054   4.094  0.0399 -0.4359  0.1159
   18MOL   C55020984   6.259   0.944   4.052  0.5612  0.0861  0.4978
   18MOL   C55120985   6.185   0.871   4.172  0.3827  0.4673 -0.7337
   18MOL   C55220986   6.073   0.778   4.132 -0.5938  0.6295 -0.6115
   18MOL   O55320987   6.027   0.705   4.247  0.3641  0.0041 -0.4485
   18MOL   C55420988   5.916   0.749   4.307  0.0077  0.4740 -0.1714
   18MOL   O55520989   5.862   0.854   4.273  0.4825  0.0832 -0.1713
   18MOL   C55620990   5.866   0.663   4.424 -0.2145 -0.1453  0.8986
   18MOL   C55720991   5.742   0.718   4.502 -0.1329  0.2235 -0.2045
   18MOL   C55820992   5.711   0.635   4.625 -0.3364 -0.0634  0.5256
   18MOL   C55920993   5.632   0.712   4.725  0.3358  0.1434  0.7643
   18MOL   C56020994   5.605   0.619   4.840 -0.0650 -0.3779  0.3754
   18MOL   C56120995   5.524   0.690   4.951 -0.1757  0.0187  0.6922
   18MOL   C56220996   5.615   0.763   5.044 -0.5391  1.0029 -0.4002
   18MOL   C56320997   5.529   0.800   5.171  0.3106  0.0345 -0.0394
   18MOL   C56420998   5.593   0.907   5.265  0.2548  0.5787  0.0929
   18MOL   O56520999   5.633   0.881   5.377 -0.8526  0.1464 -0.3929
   18MOL   H56621000   6.943   1.432   4.417  0.2248  0.9472 -0.2070
   18MOL   H56721001   6.957   1.309   4.288  0.1938 -2.4554  0.4472
   18MOL   H56821002   6.793   1.237   4.524  0.7061  0.4237  0.4626
   18MOL   H56921003   6.730   1.310   4.373 -1.7135 -1.6998  0.5178
   18MOL   H57021004   6.865   1.109   4.261  1.4050 -3.1728 -0.0010
   18MOL   H57121005   6.882   1.053   4.421 -0.1904 -0.1377  0.1326
   18MOL   H57221006   6.669   0.932   4.342 -0.1020 -0.7417 -0.6576
   18MOL   H57321007   6.635   1.070   4.440 -0.2189  1.8359 -0.2986
   18MOL   H57421008   6.644   1.122   4.144 -0.5135  0.4828  0.1174
   18MOL   H57521009   6.547   1.193   4.268 -1.3962 -0.2280  0.1732
   18MOL   H57621010   6.408   0.981   4.292  1.0881 -2.5816 -0.6029
   18MOL   H57721011   6.502   0.913   4.159 -0.2361  0.2890 -0.7890
   18MOL   H57821012   6.423   1.070   4.005  0.2613 -1.8174  0.0001
   18MOL   H57921013   6.316   1.146   4.131 -1.2891 -1.7280  1.7787
   18MOL   H58021014   6.316   0.874   3.992 -0.1316  0.0058 -0.0736
   18MOL   H58121015   6.180   0.983   3.987 -0.8827 -2.7622  0.4942
   18MOL   H58221016   6.261   0.808   4.218 -0.0803  0.1606 -0.3895
   18MOL   H58321017   6.155   0.940   4.250 -0.8071 -0.3269 -0.4719
   18MOL   H58421018   5.992   0.833   4.084 -3.2105 -2.4420  0.1366
   18MOL   H58521019   6.106   0.703   4.059  0.3129 -1.0796  1.4920
   18MOL   H58621020   5.942   0.648   4.500 -1.7419 -1.4756  2.1954
   18MOL   H58721021   5.839   0.566   4.382 -0.5661  0.8460 -1.2461
   18MOL   H58821022   5.660   0.750   4.437 -0.8202 -1.8659 -0.3811
   18MOL   H58921023   5.780   0.814   4.539 -0.7178  0.3585  0.0507
   18MOL   H59021024   5.803   0.590   4.664 -0.0480 -0.6083 -0.7379
   18MOL   H59121025   5.649   0.553   4.588 -0.6105  0.7448 -0.8051
   18MOL   H59221026   5.541   0.738   4.670  0.2174  0.9820  1.3513
   18MOL   H59321027   5.688   0.804   4.745 -0.2411 -0.0202  3.1764
   18MOL   H59421028   5.552   0.530   4.806  2.3642 -0.9639 -2.0189
   18MOL   H59521029   5.704   0.583   4.872 -0.0053 -0.8793 -0.3473
   18MOL   H59621030   5.437   0.744   4.915  2.5536  3.1351 -1.5486
   18MOL   H59721031   5.482   0.598   4.991 -1.4469  0.4110  0.2685
   18MOL   H59821032   5.643   0.856   4.995 -2.3335  1.1755 -1.1552
   18MOL   H59921033   5.702   0.702   5.067 -1.5279  0.9012  3.2992
   18MOL   H60021034   5.434   0.842   5.140  0.2889 -0.3205 -0.4515
   18MOL   H60121035   5.506   0.708   5.225  0.0046  1.6750  2.7015
   18MOL   O60221036   5.600   1.032   5.210 -0.0519 -0.2316  0.1266
   18MOL   C60321037   5.668   1.134   5.278  0.4023 -0.0927  0.3230
   18MOL   C60421038   5.645   1.271   5.208  0.3350  0.6866  0.3031
   18MOL   C60521039   5.706   1.378   5.284 -0.1240 -0.5406 -0.6140
   18MOL   C60621040   5.675   1.520   5.239 -0.4571 -0.2291 -0.5824
   18MOL   C60721041   5.757   1.634   5.314 -0.7023  0.1979 -0.6296
   18MOL   C60821042   5.735   1.632   5.467 -0.2075  0.4573 -0.0464
   18MOL   C60921043   5.814   1.748   5.537  0.2381  0.1315  0.1235
   18MOL   C61021044   5.803   1.745   5.694  0.1988 -0.4764  0.0952
   18MOL   C61121045   5.860   1.861   5.781  0.0279  0.6409 -0.2492
   18MOL   C61221046   6.010   1.861   5.794 -0.7194 -0.0977  0.1362
   18MOL   O61321047   6.080   1.889   5.678  0.0748  0.4627 -1.0730
   18MOL   C61421048   6.202   1.831   5.652 -0.5311  0.1916 -1.0208
   18MOL   O61521049   6.264   1.765   5.735  0.1919 -0.3511 -0.0584
   18MOL   C61621050   6.255   1.860   5.510 -0.1847 -0.9956  0.2284
   18MOL   C61721051   6.386   1.935   5.515 -0.8333  0.5185 -0.0715
   18MOL   C61821052   6.422   2.018   5.386  0.1337  0.5969  0.7723
   18MOL   C61921053   6.558   2.083   5.416 -0.0394  0.1418  1.2914
   18MOL   C62021054   6.613   2.138   5.286  0.5112  0.0645  0.8414
   18MOL   C62121055   6.743   2.218   5.306  0.2351 -0.1135  0.2298
   18MOL   C62221056   6.727   2.365   5.355  0.3672  0.2647  0.1844
   18MOL   C62321057   6.863   2.439   5.350 -0.0609  0.1609  0.5825
   18MOL   C62421058   6.848   2.592   5.361 -0.0361 -0.0041  0.1462
   18MOL   O62521059   6.846   2.664   5.259 -0.1123  0.0899 -0.3636
   18MOL   H62621060   5.632   1.134   5.380  0.4427  1.3401  0.3409
   18MOL   H62721061   5.775   1.122   5.293  0.5088 -3.6343 -2.4997
   18MOL   H62821062   5.697   1.270   5.113  1.8955  2.0893  1.1147
   18MOL   H62921063   5.539   1.289   5.187  0.6160  1.8753 -0.1256
   18MOL   H63021064   5.656   1.367   5.380 -2.4401  0.3959 -1.6681
   18MOL   H63121065   5.812   1.359   5.300  0.0938  0.3357 -0.9813
   18MOL   H63221066   5.697   1.523   5.133  3.0161  1.4645  0.0992
   18MOL   H63321067   5.568   1.541   5.251 -0.4536 -0.5859  0.0833
   18MOL   H63421068   5.718   1.727   5.272 -0.9767  1.3286  2.0472
   18MOL   H63521069   5.864   1.628   5.295 -0.7965  1.3480 -1.6109
   18MOL   H63621070   5.766   1.540   5.517 -1.5544  0.1731  0.2860
   18MOL   H63721071   5.627   1.644   5.481 -0.1836  1.9780 -1.0511
   18MOL   H63821072   5.775   1.844   5.503 -1.2545  0.2305  1.9949
   18MOL   H63921073   5.917   1.747   5.500  0.2657  0.6995  0.1844
   18MOL   H64021074   5.837   1.646   5.724 -1.1989 -1.1609 -0.5308
   18MOL   H64121075   5.699   1.746   5.728  0.2469 -0.9688  0.2667
   18MOL   H64221076   5.851   1.961   5.739  1.0404  1.2814  1.0083
   18MOL   H64321077   5.817   1.864   5.881 -1.4639 -0.0498 -0.8466
   18MOL   H64421078   6.041   1.936   5.866  0.9927 -1.0434  0.4292
   18MOL   H64521079   6.051   1.768   5.835 -1.2016 -0.2758  0.2154
   18MOL   H64621080   6.185   1.934   5.470 -1.4787 -2.4709 -0.3291
   18MOL   H64721081   6.258   1.767   5.452 -1.1475 -0.3477 -0.8710
   18MOL   H64821082   6.467   1.863   5.531 -1.3673  0.1688  1.1585
   18MOL   H64921083   6.382   2.005   5.599 -0.8610 -0.1966  0.5350
   18MOL   H65021084   6.339   2.087   5.367 -0.8699 -0.8228 -0.0504
   18MOL   H65121085   6.422   1.950   5.301  0.1484  2.0056 -0.3865
   18MOL   H65221086   6.624   2.003   5.449  1.5771  1.1602  0.6427
   18MOL   H65321087   6.543   2.162   5.490 -1.9066  1.2468 -0.2274
   18MOL   H65421088   6.640   2.054   5.222  2.6107  0.1906  1.5053
   18MOL   H65521089   6.543   2.209   5.241  0.8254 -1.9093 -3.0167
   18MOL   H65621090   6.814   2.160   5.364 -0.5088  0.7925  2.0785
   18MOL   H65721091   6.798   2.225   5.212  1.0201  1.7662  0.8085
   18MOL   H65821092   6.693   2.363   5.458  1.0005 -0.7499  0.3794
   18MOL   H65921093   6.653   2.420   5.297 -0.5736 -0.6038  0.5464
   18MOL   H66021094   6.932   2.394   5.421  1.1873 -2.9022 -2.4100
   18MOL   H66121095   6.897   2.424   5.247 -1.4689 -0.3055  0.1761
   18MOL   O66221096   6.807   2.633   5.480 -0.2145  0.6423  0.0676
   18MOL   C66321097   6.784   2.770   5.506 -0.5057 -0.2274  0.2819
   18MOL   C66421098   6.790   2.798   5.661 -0.3567 -0.3841  0.4126
   18MOL   C66521099   6.660   2.752   5.731  0.5399  0.0173  0.4118
   18MOL   C66621100   6.668   2.794   5.876  0.0161  0.4077  0.0315
   18MOL   C66721101   6.764   2.712   5.959  0.2192 -0.0047 -0.3637
   18MOL   C66821102   6.773   2.748   6.103 -0.7277  0.1197  0.0484
   18MOL   C66921103   6.871   2.655   6.176 -0.8052 -0.3308 -0.4377
   18MOL   C67021104   6.908   2.677   6.325 -0.1883  0.2295  0.6501
   18MOL   C67121105   6.988   2.807   6.356  0.7457  0.5363  0.3309
   18MOL   C67221106   7.020   2.835   6.495 -0.4804 -0.2500 -0.3799
   18MOL   O67321107   7.127   2.754   6.533  0.4422  0.0376  0.3647
   18MOL   C67421108   7.217   2.802   6.619 -0.2050  0.0940 -0.3717
   18MOL   O67521109   7.198   2.907   6.685  0.1926  0.2129  0.2357
   18MOL   C67621110   7.335   2.707   6.635  0.5654 -0.2149 -0.3604
   18MOL   C67721111   7.381   2.719   6.779  0.1599 -0.3951 -0.1717
   18MOL   C67821112   7.500   2.618   6.800  0.3059 -0.0486  0.3758
   18MOL   C67921113   7.524   2.583   6.950 -0.0425  0.2878 -0.0736
   18MOL   C68021114   7.666   2.530   6.984  0.0569 -1.1439 -0.0112
   18MOL   C68121115   7.695   2.393   6.918  0.2666 -0.5157  0.4254
   18MOL   C68221116   0.088   2.355   6.945  0.2548 -1.1008  0.4659
   18MOL   C68321117   0.133   2.228   6.884 -0.7233  0.0609  0.4949
   18MOL   C68421118   0.281   2.193   6.921  0.5960  0.3090 -0.3900
   18MOL   O68521119   0.351   2.272   6.984 -0.3180 -0.4055 -0.0369
   18MOL   H68621120   6.858   2.830   5.453  0.7887 -1.4290  0.6987
   18MOL   H68721121   6.692   2.806   5.460 -0.8019 -1.4556 -0.1062
   18MOL   H68821122   6.881   2.769   5.713 -1.1322 -1.7505  1.0477
   18MOL   H68921123   6.795   2.904   5.681  0.9853 -0.4008  0.1893
   18MOL   H69021124   6.578   2.782   5.666 -0.8286 -4.7227 -0.2434
   18MOL   H69121125   6.664   2.643   5.731 -0.0743 -0.0064 -0.1565
   18MOL   H69221126   6.679   2.901   5.896  1.9090  0.4053 -0.8812
   18MOL   H69321127   6.565   2.772   5.906  0.0246 -1.6561 -1.3672
   18MOL   H69421128   6.861   2.727   5.912 -1.2144  1.3424 -3.0238
   18MOL   H69521129   6.742   2.605   5.955  0.3202 -0.1257  1.9793
   18MOL   H69621130   6.673   2.740   6.145 -0.2623  1.0539  1.3872
   18MOL   H69721131   6.791   2.854   6.117 -1.1022  0.2264 -0.2802
   18MOL   H69821132   6.965   2.642   6.122  0.4732  0.7747  1.4607
   18MOL   H69921133   6.826   2.556   6.169 -0.3266 -0.5393 -0.5872
   18MOL   H70021134   6.957   2.585   6.356  0.8032  0.0406 -1.3758
   18MOL   H70121135   6.817   2.675   6.385  0.0030  0.7822  0.9567
   18MOL   H70221136   7.070   2.817   6.284  2.5889 -0.7769  2.1964
   18MOL   H70321137   6.922   2.889   6.331 -1.6608 -0.3990  3.4071
   18MOL   H70421138   7.042   2.941   6.506 -1.6710 -0.1891  1.5382
   18MOL   H70521139   6.931   2.824   6.556 -1.2287 -1.7074 -1.7041
   18MOL   H70621140   7.414   2.736   6.566 -1.6068 -1.3380 -3.4574
   18MOL   H70721141   7.307   2.604   6.615  0.4069 -0.1158 -0.6616
   18MOL   H70821142   7.298   2.685   6.842  1.9130  1.1167  3.0561
   18MOL   H70921143   7.416   2.820   6.799 -0.2318 -0.4484  0.8164
   18MOL   H71021144   7.593   2.661   6.763 -0.1920  0.1864 -0.6156
   18MOL   H71121145   7.491   2.534   6.731  1.5022  0.9779 -1.0899
   18MOL   H71221146   7.450   2.507   6.976 -0.4415  0.1657 -1.5480
   18MOL   H71321147   7.494   2.672   7.005 -0.7644  1.0428 -1.6597
   18MOL   H71421148   7.740   2.597   6.940  0.1006 -0.7289  0.6980
   18MOL   H71521149   7.678   2.518   7.092 -0.6028 -0.0276  0.1954
   18MOL   H71621150   7.629   2.321   6.966  0.0503 -2.4830 -2.7154
   18MOL   H71721151   7.664   2.392   6.814 -1.5267 -2.2444  0.9487
   18MOL   H71821152   0.115   2.350   7.051  0.5031 -1.2622  0.3938
   18MOL   H71921153   0.153   2.425   6.893  0.9408  0.3866  3.2066
   18MOL   H72021154   0.068   2.152   6.927  1.3199 -1.3534  1.1904
   18MOL   H72121155   0.116   2.228   6.776  0.2966 -3.5803  0.2688
   18MOL   O72221156   0.326   2.084   6.872  0.3583  0.1712  0.0979
   18MOL   C72321157   0.463   2.041   6.866  0.0363  0.0916 -0.3209
   18MOL   C72421158   0.483   1.915   6.957 -0.0617 -1.0142  0.0439
   18MOL   C72521159   0.629   1.862   6.949  0.1312  0.2001 -0.3328
   18MOL   C72621160   0.640   1.712   6.986  0.4321 -0.6165  0.0355
   18MOL   C72721161   0.779   1.663   6.936  0.3312 -0.1606 -0.6384
   18MOL   C72821162   0.798   1.510   6.960  0.3631  0.3480 -0.6522
   18MOL   C72921163   0.932   1.471   6.897 -0.8567  0.2785 -0.4442
   18MOL   C73021164   0.932   1.322   6.848  0.3760 -0.3768  0.4282
   18MOL   C73121165   1.069   1.282   6.791 -0.1383  0.2639  0.0924
   18MOL   C73221166   1.079   1.134   6.766  0.4151  0.4016 -0.2103
   18MOL   O73321167   1.006   1.098   6.641 -0.1045  0.0101 -0.1013
   18MOL   C73421168   1.066   1.117   6.526 -0.2070 -0.2094 -0.1561
   18MOL   O73521169   1.185   1.155   6.519 -0.6007 -0.1634 -0.1055
   18MOL   C73621170   0.970   1.096   6.408 -0.3986 -0.6094  0.3758
   18MOL   C73721171   0.908   1.230   6.382  0.4502 -0.1082 -0.1839
   18MOL   C73821172   0.810   1.223   6.267 -0.0528 -0.7561 -0.4980
   18MOL   C73921173   0.874   1.161   6.143  0.7128  0.4801 -0.2486
   18MOL   C74021174   0.774   1.161   6.029  0.1330  0.1764 -1.0982
   18MOL   C74121175   0.818   1.093   5.892  0.4411 -0.0349  0.1552
   18MOL   C74221176   0.716   1.107   5.783 -0.6735  0.4160  0.2658
   18MOL   C74321177   0.769   1.040   5.660 -0.1478 -0.5428  0.5578
   18MOL   C74421178   0.886   1.111   5.588 -0.0598  0.1582  0.1154
   18MOL   O74521179   0.940   1.055   5.495 -0.5366  0.3980 -0.3873
   18MOL   H74621180   0.488   2.027   6.761 -0.9270 -1.4068 -0.3702
   18MOL   H74721181   0.522   2.124   6.905  0.2729 -0.0436 -0.3913
   18MOL   H74821182   0.466   1.941   7.061  0.4450  0.1282 -0.1537
   18MOL   H74921183   0.407   1.844   6.925  1.1981 -1.5346 -1.8967
   18MOL   H75021184   0.665   1.892   6.850  0.6651  0.8454  0.0462
   18MOL   H75121185   0.701   1.911   7.015  2.8340 -1.9114 -1.6354
   18MOL   H75221186   0.634   1.694   7.093  0.7646  1.3219  0.3883
   18MOL   H75321187   0.559   1.661   6.933  0.1242 -1.3668  1.1981
   18MOL   H75421188   0.848   1.718   6.999 -0.1869 -1.1666  0.8337
   18MOL   H75521189   0.809   1.703   6.839 -1.2294  0.2596 -0.9592
   18MOL   H75621190   0.727   1.442   6.914  3.8778 -3.5308 -0.6443
   18MOL   H75721191   0.786   1.484   7.065 -1.0236 -0.2202 -0.9426
   18MOL   H75821192   1.017   1.492   6.961 -0.4207  1.2306 -1.3119
   18MOL   H75921193   0.960   1.536   6.814  0.3433  2.0887  1.3218
   18MOL   H76021194   0.860   1.310   6.767  1.1924  1.1013 -0.5324
   18MOL   H76121195   0.904   1.248   6.923 -0.3243  1.6836  2.2607
   18MOL   H76221196   1.094   1.352   6.711  0.2930  2.0616  1.7433
   18MOL   H76321197   1.145   1.295   6.868  0.2478  0.3243 -0.3021
   18MOL   H76421198   1.184   1.120   6.740  0.5684  2.4983 -0.9070
   18MOL   H76521199   1.051   1.073   6.851 -0.6957 -0.1296 -0.9391
   18MOL   H76621200   0.882   1.034   6.426 -0.5962 -1.3659 -2.9369
   18MOL   H76721201   1.027   1.055   6.326  1.3794  1.1919  0.6769
   18MOL   H76821202   0.978   1.314   6.373 -1.1020  1.6503  3.1251
   18MOL   H76921203   0.840   1.257   6.463  0.0175  0.8100 -0.8370
   18MOL   H77021204   0.784   1.328   6.249 -0.2998 -0.7332 -0.0005
   18MOL   H77121205   0.718   1.169   6.288 -0.9208  1.7327  2.4741
   18MOL   H77221206   0.899   1.056   6.160  1.8482  0.3241 -2.6963
   18MOL   H77321207   0.965   1.210   6.109  1.0987  0.9318  1.4187
   18MOL   H77421208   0.693   1.100   6.068  1.8276 -1.6709 -0.4171
   18MOL   H77521209   0.753   1.265   6.003  0.2356  0.8535  1.4344
   18MOL   H77621210   0.910   1.139   5.856 -0.3837  0.1595 -1.7633
   18MOL   H77721211   0.835   0.987   5.906  0.6463  0.1198  1.1402
   18MOL   H77821212   0.697   1.213   5.766 -1.2358 -0.2620 -3.8340
   18MOL   H77921213   0.627   1.055   5.818  0.6545 -1.3513  1.1246
   18MOL   H78021214   0.787   0.934   5.674  0.0495 -0.3150  2.0544
   18MOL   H78121215   0.696   1.035   5.579  0.0832 -1.6662  0.4086
   18MOL   O78221216   0.904   1.250   5.614 -0.2378 -0.0600 -0.0890
   18MOL   C78321217   1.028   1.314   5.574  0.8600 -0.0460 -0.3816
   18MOL   C78421218   0.999   1.462   5.557  0.3080  0.2135 -0.1570
   18MOL   C78521219   0.857   1.506   5.515  0.5149  0.2897  0.3624
   18MOL   C78621220   0.838   1.663   5.503  0.4246  0.1711 -0.2322
   18MOL   C78721221   0.695   1.701   5.471  0.2848 -0.2748  0.2504
   18MOL   C78821222   0.665   1.856   5.467 -0.3588 -0.0726 -1.3872
   18MOL   C78921223   0.757   1.928   5.371 -0.3577  0.4880  0.5711
   18MOL   C79021224   0.709   2.070   5.350 -0.1384  0.2040  0.2754
   18MOL   C79121225   0.810   2.180   5.316 -0.1257 -0.1488 -0.3184
   18MOL   C79221226   0.744   2.316   5.318 -0.4915 -0.3328 -0.1964
   18MOL   O79321227   0.628   2.314   5.227  0.0457  0.0192 -0.7662
   18MOL   C79421228   0.564   2.421   5.199 -0.1861  0.4923 -0.2618
   18MOL   O79521229   0.605   2.537   5.217 -0.0996  0.0975 -0.7408
   18MOL   C79621230   0.439   2.397   5.121 -0.0365 -0.4727 -0.2389
   18MOL   C79721231   0.334   2.513   5.113 -0.0765 -0.2073  0.4078
   18MOL   C79821232   0.240   2.495   4.990 -0.0123  0.1147 -0.5990
   18MOL   C79921233   0.102   2.576   4.984  0.0187 -0.4349 -0.5324
   18MOL   C80021234   0.030   2.576   4.848 -0.2025  0.0710  0.2422
   18MOL   C80121235   7.648   2.636   4.855  0.1878  0.0479 -0.0924
   18MOL   C80221236   7.638   2.792   4.861 -0.8772  0.6884  0.0732
   18MOL   C80321237   7.488   2.831   4.859 -0.1366 -0.4295  0.0527
   18MOL   C80421238   7.452   2.978   4.828 -0.5697 -0.3895 -0.1831
   18MOL   O80521239   7.333   3.011   4.816 -0.1243  0.1428 -0.4063
   18MOL   H80621240   1.106   1.288   5.646  0.2917  0.9446  0.6143
   18MOL   H80721241   1.062   1.280   5.477  2.2338  2.7875 -0.9571
   18MOL   H80821242   1.019   1.501   5.657  1.6865 -2.7638  0.7684
   18MOL   H80921243   1.074   1.507   5.493 -1.1874  0.2621 -1.9220
   18MOL   H81021244   0.833   1.459   5.420  1.5353 -0.3316  0.4007
   18MOL   H81121245   0.784   1.460   5.581  0.7299  1.3752  1.3815
   18MOL   H81221246   0.878   1.718   5.588  1.5297  0.0937 -0.6947
   18MOL   H81321247   0.904   1.691   5.421  1.1889 -0.1991  0.2537
   18MOL   H81421248   0.631   1.653   5.545 -2.0439  1.4061 -0.5990
   18MOL   H81521249   0.654   1.657   5.380  1.6414 -0.4367 -0.2967
   18MOL   H81621250   0.680   1.893   5.568  0.4586 -1.2446 -1.0638
   18MOL   H81721251   0.558   1.860   5.449 -0.4576 -1.4734 -1.1888
   18MOL   H81821252   0.737   1.877   5.277 -0.6017  0.0979  0.8324
   18MOL   H81921253   0.861   1.913   5.400 -0.8437 -0.8397  1.6848
   18MOL   H82021254   0.656   2.107   5.438 -1.2746 -0.2676 -0.2030
   18MOL   H82121255   0.627   2.069   5.279 -0.5425 -1.6575  0.7536
   18MOL   H82221256   0.891   2.180   5.388 -0.2671  0.9334 -0.1524
   18MOL   H82321257   0.866   2.169   5.222  0.8874  0.8128  0.1594
   18MOL   H82421258   0.705   2.339   5.417 -2.1337 -0.2964 -0.8271
   18MOL   H82521259   0.811   2.396   5.287 -0.3939 -0.1036  0.6068
   18MOL   H82621260   0.400   2.300   5.154 -0.8467  0.3147  1.1579
   18MOL   H82721261   0.474   2.396   5.018 -2.0358  0.5363 -0.9515
   18MOL   H82821262   0.380   2.611   5.118 -2.4011  1.0680 -1.9917
   18MOL   H82921263   0.288   2.495   5.211 -0.5649 -2.1249 -0.1424
   18MOL   H83021264   0.212   2.391   4.975  0.3571 -0.4418  2.3435
   18MOL   H83121265   0.291   2.530   4.900  1.1475  1.5665  0.5869
   18MOL   H83221266   0.115   2.681   5.010 -0.9705 -0.2408 -0.8169
   18MOL   H83321267   0.032   2.524   5.051  0.0077 -0.4902 -0.5856
   18MOL   H83421268   0.092   2.631   4.777 -2.9277  1.2940 -1.2445
   18MOL   H83521269   0.016   2.469   4.832  0.7046  0.0789 -0.7129
   18MOL   H83621270   7.591   2.595   4.772 -0.8625  1.5862 -0.1495
   18MOL   H83721271   7.597   2.596   4.942  0.6689  2.8786  1.5578
   18MOL   H83821272   7.703   2.844   4.791  0.7383  1.6492  2.2343
   18MOL   H83921273   7.665   2.829   4.960  0.8704  0.5998 -0.3605
   18MOL   H84021274   7.443   2.776   4.776 -0.7943  0.3747 -0.1311
   18MOL   H84121275   7.448   2.816   4.959  3.0190 -0.6777  1.3311
   18MOL   O84221276   7.562   3.053   4.801 -0.6286 -0.2340  0.3660
   18MOL   C84321277   7.542   3.186   4.753 -0.5888  0.8014 -0.3535
   18MOL   C84421278   7.539   3.277   4.886  0.0470 -0.5783 -0.2951
   18MOL   C84521279   7.574   3.423   4.866 -0.1419  0.6316 -0.0925
   18MOL   C84621280   7.634   3.493   4.992  0.3687 -0.0439 -0.0160
   18MOL   C84721281   7.647   3.650   4.968  0.3430  0.3105 -0.3643
   18MOL   C84821282   0.003   3.699   4.888 -0.3248 -0.3805  0.4455
   18MOL   C84921283   0.015   3.851   4.874  0.1537 -0.8023 -0.2481
   18MOL   C85021284   0.151   3.888   4.813  0.0642 -0.1181 -0.4422
   18MOL   C85121285   0.177   4.043   4.812  0.3936 -0.2006 -0.3674
   18MOL   C85221286   0.312   4.096   4.776  0.6793 -0.1347 -0.3838
   18MOL   O85321287   0.400   4.104   4.890  0.4832  0.3876  0.3805
   18MOL   C85421288   0.523   4.155   4.891  0.3823 -0.0315  0.0338
   18MOL   O85521289   0.586   4.195   4.793  0.4242 -0.0843  0.4793
   18MOL   C85621290   0.584   4.155   5.037 -0.1444 -0.0198 -0.4132
   18MOL   C85721291   0.604   4.012   5.089  0.1236 -0.4917 -0.2183
   18MOL   C85821292   0.536   3.988   5.221  0.2510 -0.0206 -0.2098
   18MOL   C85921293   0.385   4.004   5.223 -0.2758 -0.3121  0.0300
   18MOL   C86021294   0.302   3.892   5.167 -0.0810 -0.2839  0.4109
   18MOL   C86121295   0.302   3.764   5.261  0.2990 -0.7065  0.1327
   18MOL   C86221296   0.210   3.646   5.217  0.8108  0.2327 -0.7720
   18MOL   C86321297   0.177   3.538   5.326  1.0535 -0.1764  0.4193
   18MOL   C86421298   0.287   3.441   5.351  0.2672  0.4709 -0.2196
   18MOL   O86521299   0.402   3.459   5.324 -0.3450  1.5329 -0.1888
   18MOL   H86621300   7.621   3.223   4.687  0.4077  0.5592  0.6732
   18MOL   H86721301   7.448   3.190   4.699 -0.5238 -0.1033 -0.5359
   18MOL   H86821302   7.443   3.279   4.938 -0.5593  1.2184 -1.4517
   18MOL   H86921303   7.613   3.240   4.957 -1.2247 -0.3257  1.1849
   18MOL   H87021304   7.654   3.426   4.793  0.4587 -0.7697  0.4760
   18MOL   H87121305   7.493   3.483   4.825  1.9467  1.5030 -3.1006
   18MOL   H87221306   7.564   3.478   5.074 -1.2571  0.2661 -1.3202
   18MOL   H87321307   7.730   3.454   5.027  0.1154 -1.7360 -1.1561
   18MOL   H87421308   7.655   3.698   5.065  0.0364 -0.9225  0.2908
   18MOL   H87521309   7.557   3.688   4.921  1.1776  0.2630 -2.0245
   18MOL   H87621310   7.737   3.658   4.790 -0.8455 -0.8774  0.7724
   18MOL   H87721311   0.097   3.651   4.915  0.5505  0.5288 -0.9183
   18MOL   H87821312   0.005   3.895   4.974  0.8612 -0.5699 -0.2777
   18MOL   H87921313   7.695   3.887   4.805 -0.5784  1.6957  1.7873
   18MOL   H88021314   0.161   3.850   4.712 -1.3471  0.6650 -0.8940
   18MOL   H88121315   0.231   3.834   4.865 -1.7758 -0.9398  1.6048
   18MOL   H88221316   0.106   4.098   4.751 -2.0950  0.1483  2.7240
   18MOL   H88321317   0.146   4.095   4.903 -0.3315 -1.4550  0.1048
   18MOL   H88421318   0.360   4.042   4.694  0.1590 -0.3604 -0.5433
   18MOL   H88521319   0.305   4.200   4.745  0.5700  0.5737  1.8870
   18MOL   H88621320   0.514   4.215   5.095 -0.1140 -3.0064  2.8307
   18MOL   H88721321   0.669   4.223   5.028 -0.2069  0.2100  0.6656
   18MOL   H88821322   0.711   4.000   5.105  0.4278  2.4175  0.1210
   18MOL   H88921323   0.571   3.936   5.018  1.2580 -0.6522 -0.5825
   18MOL   H89021324   0.582   4.061   5.287  0.5885 -0.0776 -0.3845
   18MOL   H89121325   0.567   3.889   5.254 -1.4181 -0.7264 -0.7076
   18MOL   H89221326   0.353   4.088   5.162 -1.9124 -1.0064 -0.0880
   18MOL   H89321327   0.356   4.020   5.326  3.8502 -0.7650  1.3828
   18MOL   H89421328   0.200   3.928   5.155  0.2211  0.5532  0.3288
   18MOL   H89521329   0.340   3.847   5.075  0.5053  1.2370 -0.0921
   18MOL   H89621330   0.396   3.741   5.311  0.8082 -0.6130 -0.7724
   18MOL   H89721331   0.252   3.801   5.351  0.3001 -1.2659  0.3668
   18MOL   H89821332   0.259   3.608   5.127 -3.1297 -0.0831 -2.9083
   18MOL   H89921333   0.121   3.694   5.177  0.6783  0.6921  0.0590
   18MOL   H90021334   0.129   3.581   5.414 -0.8975  0.3678 -0.8855
   18MOL   H90121335   0.103   3.468   5.287  1.2477  0.3097 -0.8395
   18MOL   O90221336   0.241   3.333   5.408 -0.0279 -0.0361  0.1463
   18MOL   C90321337   0.335   3.236   5.452 -0.1820  0.7614  0.1252
   18MOL   C90421338   0.265   3.104   5.443  0.8099 -0.2448 -0.3097
   18MOL   C90521339   0.347   2.992   5.520 -0.3012 -0.1592  0.4948
   18MOL   C90621340   0.281   2.855   5.502  0.2396  0.2842  0.1526
   18MOL   C90721341   0.361   2.729   5.544  0.0892  0.1477  0.0979
   18MOL   C90821342   0.295   2.595   5.528  0.1234 -0.0359 -0.8586
   18MOL   C90921343   0.398   2.472   5.547 -0.9305  0.0810  0.9649
   18MOL   C91021344   0.324   2.341   5.523 -0.0033  0.2576  0.1634
   18MOL   C91121345   0.411   2.221   5.512 -0.2479  0.7173 -0.3725
   18MOL   C91221346   0.346   2.093   5.455  0.1786  0.2423 -0.6680
   18MOL   O91321347   0.289   2.116   5.324 -0.2171  0.3715 -0.6062
   18MOL   C91421348   0.304   2.022   5.232 -0.2612  0.7302  0.6463
   18MOL   O91521349   0.371   1.919   5.243  0.5613 -0.1619 -0.1918
   18MOL   C91621350   0.230   2.056   5.102  0.8536 -0.5125  0.1909
   18MOL   C91721351   0.078   2.052   5.112 -0.0061 -0.7033  0.6129
   18MOL   C91821352   0.017   2.179   5.062  0.2015  0.0213  0.0641
   18MOL   C91921353   7.621   2.167   5.044  0.8779 -0.3484  0.0395
   18MOL   C92021354   7.554   2.252   4.937 -0.1462 -0.1551 -0.3099
   18MOL   C92121355   7.416   2.215   4.888 -0.5701  0.2949 -0.3055
   18MOL   C92221356   7.397   2.070   4.830  0.0298 -0.0207  0.3830
   18MOL   C92321357   7.252   2.040   4.782 -0.3218 -0.4718 -0.5412
   18MOL   C92421358   7.244   1.907   4.709  0.0702 -0.0506  0.5865
   18MOL   O92521359   7.180   1.906   4.601  0.8123 -0.3485 -0.3450
   18MOL   H92621360   0.428   3.241   5.395 -1.1403  2.3215 -1.3271
   18MOL   H92721361   0.367   3.260   5.553  0.5843  1.7796 -0.3619
   18MOL   H92821362   0.161   3.113   5.473  0.6905  3.9755 -1.7439
   18MOL   H92921363   0.255   3.072   5.339 -0.3497 -0.5623 -0.1050
   18MOL   H93021364   0.445   2.978   5.474 -0.1202 -2.9604  1.6140
   18MOL   H93121365   0.365   3.023   5.623 -1.0920 -3.8650  1.8564
   18MOL   H93221366   0.198   2.869   5.572 -0.4981  2.9437 -1.1833
   18MOL   H93321367   0.255   2.841   5.398  0.8075  0.4714 -0.0195
   18MOL   H93421368   0.382   2.729   5.651 -0.2681 -2.0051  0.2034
   18MOL   H93521369   0.455   2.726   5.489 -1.3056  3.4632 -2.6019
   18MOL   H93621370   0.241   2.591   5.433  0.0222 -1.0200 -0.7675
   18MOL   H93721371   0.225   2.592   5.611 -0.0743 -1.8022 -1.0653
   18MOL   H93821372   0.448   2.486   5.643  0.8025 -1.3800  0.3123
   18MOL   H93921373   0.470   2.488   5.466 -1.1717 -0.4655  0.6418
   18MOL   H94021374   0.271   2.362   5.430  0.9362  0.6142 -0.2962
   18MOL   H94121375   0.243   2.331   5.596  0.0057 -1.5533 -0.0629
   18MOL   H94221376   0.505   2.237   5.460  0.2344  2.7895  1.0604
   18MOL   H94321377   0.451   2.197   5.611 -1.0872 -4.7111 -1.2108
   18MOL   H94421378   0.419   2.012   5.454  1.3975  1.3361 -0.2603
   18MOL   H94521379   0.274   2.059   5.530  2.1751  0.6604  1.4787
   18MOL   H94621380   0.254   1.989   5.019  0.8533  0.7285 -0.8427
   18MOL   H94721381   0.249   2.160   5.078  0.6048 -0.9050 -1.8337
   18MOL   H94821382   0.042   2.026   5.211  0.0221 -1.1183  0.5120
   18MOL   H94921383   0.052   1.969   5.046  0.8943  1.5543 -2.7419
   18MOL   H95021384   0.063   2.188   4.963  1.7583  0.6546  0.8340
   18MOL   H95121385   0.044   2.259   5.131 -1.9465  0.9463 -0.1351
   18MOL   H95221386   7.580   2.190   5.143  0.6485 -0.6204  0.0110
   18MOL   H95321387   7.585   2.069   5.013 -0.7076  1.2333 -3.2900
   18MOL   H95421388   7.552   2.357   4.968  0.6530 -0.4446  0.7300
   18MOL   H95521389   7.613   2.250   4.846  1.0093  1.7572  0.3563
   18MOL   H95621390   7.347   2.240   4.968  1.5975 -0.0123  1.7291
   18MOL   H95721391   7.395   2.289   4.811 -0.4554  0.6891  0.0393
   18MOL   H95821392   7.429   1.991   4.899 -0.4424 -0.3766  0.1984
   18MOL   H95921393   7.465   2.063   4.746  0.7369  0.1312  0.9370
   18MOL   H96021394   7.183   2.034   4.866  0.9575  1.2896  0.6760
   18MOL   H96121395   7.232   2.128   4.720  0.9849 -0.7577 -1.4063
   18MOL   O96221396   7.304   1.806   4.760  0.0692  0.1858 -0.1455
   18MOL   C96321397   7.278   1.673   4.724  0.1026 -1.0036 -0.0859
   18MOL   C96421398   7.268   1.592   4.854 -0.2795  0.0783 -1.1086
   18MOL   C96521399   7.175   1.643   4.968 -0.3392  0.8153 -0.0586
   18MOL   C96621400   7.178   1.555   5.094  0.5820  0.0321 -0.3447
   18MOL   C96721401   7.074   1.445   5.105 -0.2765 -0.2903 -0.5745
   18MOL   C96821402   7.103   1.342   5.219  0.9648 -0.3629 -0.0230
   18MOL   C96921403   6.999   1.223   5.219  0.4742  0.4371 -0.1920
   18MOL   C97021404   6.996   1.150   5.358 -0.1660  0.3020  0.4656
   18MOL   C97121405   6.864   1.071   5.361 -0.1208 -0.2028  0.3948
   18MOL   C97221406   6.875   0.941   5.457 -0.2583  0.4443 -0.3583
   18MOL   O97321407   6.969   0.845   5.424 -0.4841  0.2170 -0.6487
   18MOL   C97421408   6.948   0.761   5.326 -0.7334  0.2308  0.3654
   18MOL   O97521409   6.838   0.727   5.280  0.3063  0.4156  0.2176
   18MOL   C97621410   7.071   0.681   5.285  0.6201 -0.2613  0.3040
   18MOL   C97721411   7.192   0.773   5.267  0.3169 -0.1679  0.5260
   18MOL   C97821412   7.186   0.881   5.148  0.6889 -0.5651  0.2667
   18MOL   C97921413   7.323   0.954   5.145  0.3442  0.7005  1.0183
   18MOL   C98021414   7.310   1.062   5.043  0.3065 -0.0667 -0.0010
   18MOL   C98121415   7.432   1.153   5.046 -0.0691  0.2517  0.5804
   18MOL   C98221416   7.447   1.241   4.923 -0.3308  0.6222 -0.9080
   18MOL   C98321417   7.549   1.353   4.944  0.2987 -0.0790 -0.1655
   18MOL   C98421418   7.588   1.422   4.815 -0.0083 -0.2561  0.0564
   18MOL   O98521419   7.603   1.371   4.706  0.0794 -0.1482  0.2237
   18MOL   H98621420   7.177   1.673   4.683  0.4668 -0.2234 -1.0098
   18MOL   H98721421   7.353   1.634   4.654  0.3660  1.7285 -1.4076
   18MOL   H98821422   7.234   1.491   4.829  4.6848 -1.9569 -0.2385
   18MOL   H98921423   7.371   1.599   4.888 -0.5333  0.4392 -0.4141
   18MOL   H99021424   7.189   1.746   5.002 -0.5782  1.6664 -2.4100
   18MOL   H99121425   7.072   1.635   4.934  0.9847 -0.0435 -4.1020
   18MOL   H99221426   7.279   1.513   5.097  0.3317 -0.5536  0.0813
   18MOL   H99321427   7.162   1.622   5.178 -1.4814  0.9459 -1.4277
   18MOL   H99421428   7.076   1.394   5.009  0.0300  0.1774 -0.8205
   18MOL   H99521429   6.975   1.489   5.112  0.8923  2.2177  1.1751
   18MOL   H99621430   7.090   1.389   5.317 -1.4669 -0.3921 -0.3065
   18MOL   H99721431   7.206   1.307   5.216  1.1792  0.1309  1.4361
   18MOL   H99821432   7.030   1.150   5.144  0.9196 -1.0335  1.3812
   18MOL   H99921433   6.900   1.261   5.193 -0.1466 -0.1838  1.1968
   18MOL     H121434   6.997   1.220   5.441 -1.3679  2.0840 -0.9614
   18MOL     H221435   7.081   1.083   5.368 -0.0870  0.0845 -1.4183
   18MOL     H321436   6.794   1.142   5.405 -1.2016 -0.6314 -0.6224
   18MOL     H421437   6.823   1.048   5.263 -1.5949  1.2880  0.6396
   18MOL     H521438   6.911   0.973   5.555 -0.0478  0.3815 -0.4157
   18MOL     H621439   6.774   0.900   5.465  0.4005 -0.9629  1.0684
   18MOL     H721440   7.036   0.624   5.199 -1.0758  1.4039 -0.1437
   18MOL     H821441   7.078   0.616   5.373  2.0159 -3.8788 -2.3588
   18MOL     H921442   7.275   0.706   5.247 -0.2411 -1.7966  3.4341
   18MOL    H1021443   7.233   0.827   5.352  0.0106  0.8931  0.0120
   18MOL    H1121444   7.099   0.939   5.176 -0.0882 -1.1313 -0.9119
   18MOL    H1221445   7.157   0.829   5.057  0.2880  0.4988 -0.2255
   18MOL    H1321446   7.412   0.892   5.135  1.2030  1.9994  0.4362
   18MOL    H1421447   7.339   1.009   5.238 -1.4538  0.8380  1.2533
   18MOL    H1521448   7.312   1.016   4.944  0.4864 -0.6403  0.2634
   18MOL    H1621449   7.220   1.124   5.048 -0.1355 -0.8069  1.9915
   18MOL    H1721450   7.419   1.224   5.128  0.6480  1.4872 -0.3609
   18MOL    H1821451   7.524   1.099   5.069  0.1380  0.1762 -0.4081
   18MOL    H1921452   7.346   1.281   4.911 -0.3863  0.6218 -0.4532
   18MOL    H2021453   7.457   1.184   4.830 -1.4612  0.4542 -0.9380
   18MOL    H2121454   7.505   1.419   5.019  0.4962 -0.5884  0.4128
   18MOL    H2221455   7.639   1.322   4.999  0.6269  1.5270  0.2459
   18MOL    O2321456   7.619   1.544   4.835 -0.2768  0.4158 -0.7132
   18MOL    C2421457   7.634   1.648   4.737  0.1845  0.2422 -0.1357
   18MOL    C2521458   0.019   1.682   4.705 -0.5910 -0.7440  0.0562
   18MOL    C2621459   0.018   1.793   4.595  0.2898 -0.0922 -0.4386
   18MOL    C2721460   0.152   1.834   4.545  0.5725 -0.0662  0.2113
   18MOL    C2821461   0.221   1.724   4.453 -0.7378  0.7892  0.1154
   18MOL    C2921462   0.358   1.765   4.400  0.0699  0.6943 -0.0355
   18MOL    C3021463   0.439   1.654   4.333 -0.2248  0.1609 -0.4506
   18MOL    C3121464   0.567   1.697   4.254 -0.0178  0.2225 -0.7555
   18MOL    C3221465   0.623   1.590   4.155 -0.5705  0.0529 -0.5250
   18MOL    C3321466   0.697   1.482   4.231 -0.1692  0.3150  0.3683
   18MOL    O3421467   0.769   1.403   4.132  0.0418  0.1535  0.2918
   18MOL    C3521468   0.716   1.305   4.072  0.2047 -0.3451  0.6851
   18MOL    O3621469   0.595   1.286   4.078 -0.4398 -0.3799 -0.2091
   18MOL    C3721470   0.819   1.213   4.001  0.0492  0.3318 -0.5176
   18MOL    C3821471   0.757   1.080   3.954  0.4605 -0.0437 -0.3841
   18MOL    C3921472   0.751   0.965   4.061  0.2967 -0.7455 -1.3291
   18MOL    C4021473   0.884   0.904   4.110 -0.2926  0.2417  0.5264
   18MOL    C4121474   0.883   0.792   4.221  0.2456 -0.7659 -0.9173
   18MOL    C4221475   1.036   0.779   4.262 -0.7849 -0.0971 -0.4960
   18MOL    C4321476   1.056   0.701   4.390  0.2656 -0.5688  0.3186
   18MOL    C4421477   1.198   0.697   4.441  0.4925  0.5241  0.0951
   18MOL    C4521478   1.218   0.599   4.559  0.1360 -0.6890 -0.2145
   18MOL    O4621479   1.155   0.496   4.564  0.1006  0.2505 -0.1564
   18MOL    H4721480   7.592   1.625   4.639 -1.0370  2.4684 -0.1583
   18MOL    H4821481   7.575   1.730   4.777  1.8696  2.1511 -1.4633
   18MOL    H4921482   0.071   1.719   4.793 -1.5085  2.9925 -0.8561
   18MOL    H5021483   0.073   1.592   4.674  1.2397  0.3831 -0.0936
   18MOL    H5121484   7.712   1.754   4.514 -2.0418  1.0457  0.7535
   18MOL    H5221485   7.716   1.877   4.634 -0.1191  0.0972 -1.4516
   18MOL    H5321486   0.140   1.933   4.500 -0.6711 -1.0077 -1.5775
   18MOL    H5421487   0.217   1.836   4.632  1.1119 -1.9330 -0.1205
   18MOL    H5521488   0.161   1.701   4.366 -0.1547 -0.7388  0.0930
   18MOL    H5621489   0.233   1.626   4.499 -2.0922 -0.4912 -2.2015
   18MOL    H5721490   0.420   1.782   4.488  1.5583  0.2370 -0.9683
   18MOL    H5821491   0.357   1.859   4.346  0.1419 -0.7107 -2.5678
   18MOL    H5921492   0.363   1.612   4.267 -1.1699  1.7938 -0.4306
   18MOL    H6021493   0.465   1.568   4.395 -1.8716  1.7166  2.5054
   18MOL    H6121494   0.644   1.737   4.320 -2.1722  0.5278  1.6553
   18MOL    H6221495   0.536   1.778   4.188  0.8508  3.6936  2.9286
   18MOL    H6321496   0.542   1.543   4.100 -0.9900  1.2585 -0.9643
   18MOL    H6421497   0.682   1.644   4.081 -0.7196  0.3002 -0.4628
   18MOL    H6521498   0.767   1.526   4.301  0.7834  1.9267 -1.5436
   18MOL    H6621499   0.622   1.426   4.287  0.2152 -2.2386 -1.5785
   18MOL    H6721500   0.891   1.179   4.076  0.9299  0.1122 -1.4529
   18MOL    H6821501   0.871   1.270   3.924  0.8470  0.8316  0.3831
   18MOL    H6921502   0.813   1.041   3.869 -0.3288 -1.2182 -0.3728
   18MOL    H7021503   0.658   1.108   3.919  0.7959  3.2103  1.0209
   18MOL    H7121504   0.693   0.880   4.024 -0.2512 -0.0131 -2.1668
   18MOL    H7221505   0.693   1.005   4.145  0.2409  0.9867 -2.1787
   18MOL    H7321506   0.934   0.991   4.152 -2.6887  2.2629 -0.6564
   18MOL    H7421507   0.940   0.880   4.019  1.6262  1.9524  1.2248
   18MOL    H7521508   0.831   0.825   4.311  0.5080  1.4871 -1.5773
   18MOL    H7621509   0.834   0.703   4.183 -2.6345  1.1497 -1.8011
   18MOL    H7721510   1.101   0.733   4.187  0.9587  1.3233  0.1041
   18MOL    H7821511   1.062   0.883   4.278  0.0851 -0.4949  0.7543
   18MOL    H7921512   1.028   0.597   4.371 -0.2504 -0.9363  2.9666
   18MOL    H8021513   0.982   0.732   4.464 -0.6728 -0.2694 -0.7315
   18MOL    H8121514   1.262   0.684   4.354  1.0464 -0.6637  0.6564
   18MOL    H8221515   1.219   0.795   4.484 -0.5310  0.7170  0.1619
   18MOL    O8321516   1.315   0.638   4.646  0.0078 -0.5822 -0.2871
   18MOL    C8421517   1.339   0.562   4.768 -0.1149 -0.1423  0.0975
   18MOL    C8521518   1.404   0.634   4.883  0.7698 -0.1478 -0.1611
   18MOL    C8621519   1.545   0.684   4.847  0.7793 -0.2185 -0.4629
   18MOL    C8721520   1.634   0.737   4.962  1.1866  0.2998 -0.4824
   18MOL    C8821521   1.577   0.864   5.034 -0.2182 -0.5800 -0.0139
   18MOL    C8921522   1.678   0.903   5.146  0.3337  0.1378  0.6784
   18MOL    C9021523   1.638   1.048   5.202  0.8124  0.0141 -0.4170
   18MOL    C9121524   1.745   1.095   5.300 -0.0403  0.2547 -0.0006
   18MOL    C9221525   1.862   1.172   5.232  0.1923  0.6439 -0.1039
   18MOL    C9321526   1.991   1.175   5.314  0.2617  0.1810  0.2780
   18MOL    O9421527   2.054   1.052   5.293  0.2705 -0.0716 -0.3309
   18MOL    C9521528   2.042   0.957   5.385 -0.5567  0.5000 -0.4325
   18MOL    O9621529   2.011   0.965   5.500  0.4573 -0.3400  0.3861
   18MOL    C9721530   2.080   0.816   5.337  0.0140  0.9534  0.3136
   18MOL    C9821531   1.967   0.739   5.263  0.0249  0.8684  0.4358
   18MOL    C9921532   2.006   0.599   5.222  0.5468  0.5305 -0.0037
   18MOL   C10021533   1.894   0.516   5.157 -0.3115  0.4193  0.5512
   18MOL   C10121534   1.942   0.374   5.127  0.3274 -0.2235 -0.6166
   18MOL   C10221535   1.845   0.290   5.046 -0.1375 -0.6519  0.3767
   18MOL   C10321536   1.888   0.157   4.997  0.1108 -0.1920  0.0676
   18MOL   C10421537   1.789   0.069   4.919 -0.1835  0.6165  0.5723
   18MOL   C10521538   1.674   0.023   5.004 -0.2776  0.5737 -0.2416
   18MOL   O10621539   1.556   0.063   4.993 -0.2501  0.3038  0.4245
   18MOL   H10721540   1.245   0.516   4.799 -0.2719 -0.6918 -1.1498
   18MOL   H10821541   1.408   0.482   4.742 -1.0260 -0.7365 -0.5544
   18MOL   H10921542   1.347   0.720   4.919  1.0243 -0.6994  1.5712
   18MOL   H11021543   1.406   0.572   4.973  0.1157 -0.4913 -0.3796
   18MOL   H11121544   1.593   0.595   4.806  0.3016 -0.7586  0.1439
   18MOL   H11221545   1.548   0.754   4.763  0.5916  0.8587  0.4137
   18MOL   H11321546   1.653   0.655   5.031  0.6151  1.8463  1.5872
   18MOL   H11421547   1.735   0.756   4.927  1.3573 -1.2397 -0.8638
   18MOL   H11521548   1.472   0.851   5.063 -0.4801 -0.2440 -0.7989
   18MOL   H11621549   1.591   0.946   4.965 -1.3272 -1.4875 -1.3385
   18MOL   H11721550   1.779   0.909   5.103 -0.8284  0.5441 -2.1416
   18MOL   H11821551   1.675   0.826   5.222 -1.3986  0.7674  1.2562
   18MOL   H11921552   1.543   1.031   5.252  0.9599 -1.3596 -0.5685
   18MOL   H12021553   1.630   1.117   5.119  0.1211  3.0635  2.1230
   18MOL   H12121554   1.785   1.016   5.365  2.7073  1.4457 -0.1626
   18MOL   H12221555   1.708   1.174   5.364 -0.9417  1.3516 -1.8379
   18MOL   H12321556   1.888   1.133   5.134 -0.2427 -1.2329  0.5135
   18MOL   H12421557   1.830   1.274   5.210  0.9664  0.9223  0.0485
   18MOL   H12521558   2.060   1.245   5.266 -2.9874  3.3501  0.0737
   18MOL   H12621559   1.974   1.219   5.412 -2.4098 -1.9225  0.8131
   18MOL   H12721560   2.101   0.767   5.432 -0.8121  0.7168  0.3782
   18MOL   H12821561   2.167   0.811   5.272 -1.7317 -3.4783 -1.8227
   18MOL   H12921562   1.935   0.796   5.175 -0.0594 -1.3113 -0.9877
   18MOL   H13021563   1.887   0.727   5.335  0.6498 -1.4239  0.7928
   18MOL   H13121564   2.056   0.552   5.307  0.9764 -0.1603 -0.6329
   18MOL   H13221565   2.080   0.611   5.142 -0.4031  3.3770 -0.4985
   18MOL   H13321566   1.869   0.557   5.060  2.4271 -2.5156 -1.4893
   18MOL   H13421567   1.802   0.505   5.216  0.2008  0.8067  1.4355
   18MOL   H13521568   2.042   0.375   5.085  1.1480  1.1416  1.3431
   18MOL   H13621569   1.962   0.323   5.221  1.6154  1.8941  0.2859
   18MOL   H13721570   1.750   0.299   5.098  0.9731 -2.7755  2.9207
   18MOL   H13821571   1.843   0.342   4.950 -0.6757 -2.5017 -0.6507
   18MOL   H13921572   1.926   0.099   5.081  0.2915 -1.1510 -0.6609
   18MOL   H14021573   1.979   0.163   4.938 -0.9659 -0.5051 -1.6666
   18MOL   H14121574   1.746   0.127   4.837 -1.7357  1.4628  1.9515
   18MOL   H14221575   1.824   7.739   4.864  2.2432  1.8150  0.1799
   18MOL   O14321576   1.715   7.681   5.094 -0.6290  0.2478  0.0268
   18MOL   C14421577   1.609   7.631   5.176 -0.1805 -0.1943 -0.7281
   18MOL   C14521578   1.660   7.515   5.254 -0.1529  1.1385 -0.7294
   18MOL   C14621579   1.732   7.406   5.166  0.1843 -0.1835  0.0314
   18MOL   C14721580   1.791   7.292   5.248  0.0890  0.3569  0.1457
   18MOL   C14821581   1.881   7.206   5.161  0.1358 -0.3822  0.3245
   18MOL   C14921582   1.924   7.078   5.239 -0.6938 -0.7511  0.3101
   18MOL   C15021583   2.034   6.988   5.172 -0.5552  0.1307 -0.5377
   18MOL   C15121584   2.065   6.858   5.254  0.0086  0.5740  0.3183
   18MOL   C15221585   2.184   6.774   5.200 -0.3668  0.5207 -0.0686
   18MOL   C15321586   2.211   6.637   5.265  0.3711 -0.7077  0.1131
   18MOL   O15421587   2.320   6.575   5.199 -0.5522  0.3470  0.0655
   18MOL   C15521588   2.314   6.433   5.164  0.3643  0.2236 -0.1286
   18MOL   O15621589   2.207   6.371   5.170 -0.6073  0.5936 -0.0000
   18MOL   C15721590   2.442   6.369   5.120  0.2384  0.3385 -0.3645
   18MOL   C15821591   2.548   6.385   5.230  0.0472 -0.2273 -0.4181
   18MOL   C15921592   2.633   6.511   5.203  0.1169  0.5478  0.1295
   18MOL   C16021593   2.736   6.537   5.314 -0.5809  0.3146 -0.5912
   18MOL   C16121594   2.691   6.526   5.465 -0.1470  0.0956  0.4161
   18MOL   C16221595   2.581   6.625   5.512  0.2324 -0.3638  0.3008
   18MOL   C16321596   2.624   6.775   5.511  0.2757 -0.3642 -0.6065
   18MOL   C16421597   2.531   6.878   5.569 -0.7287 -0.0330  0.4724
   18MOL   C16521598   2.589   7.023   5.580  0.0781 -0.4420 -0.3746
   18MOL   O16621599   2.710   7.044   5.595 -0.3904 -0.1603  0.2517
   18MOL   H16721600   1.568   7.704   5.246 -0.2172  0.3448 -1.3038
   18MOL   H16821601   1.533   7.598   5.105  0.1723 -1.3827 -0.5551
   18MOL   H16921602   1.739   7.540   5.325  0.1095 -1.0989 -0.1755
   18MOL   H17021603   1.589   7.458   5.315  1.0451  0.3772 -0.0249
   18MOL   H17121604   1.671   7.375   5.082 -0.1378  2.7944 -0.8681
   18MOL   H17221605   1.819   7.453   5.120 -0.6542  0.0639 -1.3016
   18MOL   H17321606   1.835   7.347   5.331 -0.0928  1.7816 -0.6960
   18MOL   H17421607   1.720   7.226   5.299  0.4058 -0.1788 -0.1062
   18MOL   H17521608   1.967   7.261   5.122  0.0151 -0.5384 -0.1690
   18MOL   H17621609   1.815   7.170   5.082  0.9177 -0.0205 -0.4905
   18MOL   H17721610   1.836   7.020   5.268 -1.3280  0.0329 -0.0095
   18MOL   H17821611   1.964   7.113   5.334 -1.5265  0.8098  0.1144
   18MOL   H17921612   2.116   7.053   5.141 -0.9357  0.7221 -0.3097
   18MOL   H18021613   1.997   6.952   5.076  0.4696  2.2405 -1.7673
   18MOL   H18121614   1.974   6.798   5.255 -1.5228  2.8272 -0.4833
   18MOL   H18221615   2.089   6.877   5.359 -1.6196 -3.0670  1.4385
   18MOL   H18321616   2.158   6.753   5.096  1.4261 -0.9139 -0.2522
   18MOL   H18421617   2.278   6.828   5.193 -0.1179 -0.0504 -1.3470
   18MOL   H18521618   2.224   6.645   5.373 -0.5170  1.9855  0.0686
   18MOL   H18621619   2.121   6.579   5.246  0.7397 -1.5212  0.8398
   18MOL   H18721620   2.475   6.420   5.029  2.0487 -0.3365 -0.1066
   18MOL   H18821621   2.428   6.262   5.101 -2.6156  0.5250  0.5132
   18MOL   H18921622   2.597   6.288   5.236 -0.5476 -0.4608  0.9282
   18MOL   H19021623   2.485   6.391   5.319  1.4278 -1.1012  0.6283
   18MOL   H19121624   2.577   6.603   5.191 -0.5300  0.0903 -0.4039
   18MOL   H19221625   2.677   6.488   5.106  0.1952  1.1262  0.0309
   18MOL   H19321626   2.802   6.623   5.298 -1.4615  1.5056  1.9564
   18MOL   H19421627   2.812   6.459   5.309 -0.6253  0.1924  0.5339
   18MOL   H19521628   2.661   6.423   5.486  3.4099 -1.4274 -1.4327
   18MOL   H19621629   2.783   6.530   5.524  1.0391 -1.1677 -1.2757
   18MOL   H19721630   2.485   6.603   5.465  0.4702 -0.0447 -0.3304
   18MOL   H19821631   2.557   6.589   5.612  1.4341 -0.0130  0.7157
   18MOL   H19921632   2.661   6.801   5.412  0.7482  1.2694 -0.0156
   18MOL   H20021633   2.712   6.782   5.574 -1.3370  0.6833  1.5834
   18MOL   H20121634   2.445   6.889   5.503 -0.3973 -0.8488 -0.1092
   18MOL   H20221635   2.511   6.835   5.666  0.8782  1.3808  1.4705
   18MOL   H20321636   2.510   7.097   5.594  0.5259 -0.1121  0.4443
   19MOL     O121637   3.172   6.177   2.859 -0.1981  0.1373  0.7112
   19MOL     C221638   3.249   6.154   2.745 -0.2350 -0.7906 -0.1762
   19MOL     C321639   3.362   6.060   2.780 -0.5233  0.9040 -0.4372
   19MOL     C421640   3.458   6.126   2.879 -0.6733  0.0228  0.5705
   19MOL     C521641   3.589   6.036   2.905  0.2682 -0.3333  0.7130
   19MOL     C621642   3.689   6.101   3.000 -0.0328  0.7628 -0.1970
   19MOL     C721643   3.801   6.016   3.047 -1.0621  0.2872 -0.6388
   19MOL     C821644   3.879   6.090   3.153 -0.2824 -0.1735 -0.1218
   19MOL     C921645   4.017   6.028   3.201  0.4112  0.1395 -0.3549
   19MOL    C1021646   4.136   6.057   3.112  1.2127 -0.1859 -0.3710
   19MOL    C1121647   4.260   5.968   3.130 -0.0848 -0.1742  0.6257
   19MOL    O1221648   4.232   5.829   3.094  0.2939 -0.0681  0.6325
   19MOL    C1321649   4.213   5.795   2.965  0.0406  0.0147 -0.8212
   19MOL    O1421650   4.249   5.877   2.879  0.6702  0.5164  0.1305
   19MOL    C1521651   4.146   5.665   2.933 -0.1901  0.4007  1.3402
   19MOL    C1621652   3.998   5.661   2.980  0.5005 -0.2995 -0.0979
   19MOL    C1721653   3.902   5.666   2.857  1.0852 -0.3590  0.2732
   19MOL    C1821654   3.756   5.659   2.897 -0.0560  0.1926  0.4358
   19MOL    C1921655   3.668   5.638   2.776 -0.3051 -0.3773 -0.1422
   19MOL    C2021656   3.514   5.619   2.810 -0.3453 -0.5570  0.4686
   19MOL    C2121657   3.416   5.617   2.693  0.5961  0.5424  0.1891
   19MOL    C2221658   3.299   5.517   2.719  0.1818  0.3627 -0.5283
   19MOL    C2321659   3.208   5.553   2.840 -0.1297 -0.1878  0.1413
   19MOL    O2421660   3.097   5.608   2.820 -0.4749  0.2227  0.5924
   19MOL    H2521661   3.180   6.119   2.668 -0.8744  0.5748 -0.2390
   19MOL    H2621662   3.302   6.243   2.710 -0.4916 -0.0148  1.3709
   19MOL    H2721663   3.337   5.966   2.830  3.1702  0.9604  1.7486
   19MOL    H2821664   3.415   6.030   2.690  2.0690  1.3366  0.8881
   19MOL    H2921665   3.488   6.225   2.844 -2.6072  0.5399  0.3175
   19MOL    H3021666   3.409   6.139   2.976  1.7548 -0.8434  1.9696
   19MOL    H3121667   3.558   5.942   2.952  0.9152 -0.8369  0.1567
   19MOL    H3221668   3.629   6.009   2.807  0.2521  0.2470  0.5483
   19MOL    H3321669   3.638   6.138   3.088 -1.4378 -2.4061  0.4055
   19MOL    H3421670   3.735   6.188   2.952 -0.4536  1.1336  0.0766
   19MOL    H3521671   3.864   5.990   2.963  0.3046  1.3365  0.0422
   19MOL    H3621672   3.760   5.923   3.087 -0.0969  0.4882  0.8777
   19MOL    H3721673   3.820   6.103   3.244  0.5159 -2.5388  0.7790
   19MOL    H3821674   3.898   6.193   3.123  1.7399 -0.1816  0.9908
   19MOL    H3921675   3.997   5.924   3.225 -1.7913  1.2520  3.0534
   19MOL    H4021676   4.039   6.067   3.301  1.0254 -0.6105 -0.1916
   19MOL    H4121677   4.108   6.034   3.010  0.9895 -0.5168 -0.2364
   19MOL    H4221678   4.174   6.159   3.127  1.2835 -0.3633  0.7450
   19MOL    H4321679   4.346   6.013   3.080  1.4202 -1.5205  1.9483
   19MOL    H4421680   4.298   5.967   3.232  3.0956  0.8909 -0.4731
   19MOL    H4521681   4.200   5.583   2.981 -1.8908 -0.4082  1.9218
   19MOL    H4621682   4.137   5.655   2.825  2.1999  0.6066  1.0951
   19MOL    H4721683   3.982   5.751   3.038  0.8954 -0.9942  1.0919
   19MOL    H4821684   3.979   5.579   3.049 -2.9768 -1.4292 -2.2076
   19MOL    H4921685   3.931   5.574   2.807  0.1481 -1.5715  1.9164
   19MOL    H5021686   3.920   5.755   2.796  0.2255 -0.0141  0.5149
   19MOL    H5121687   3.726   5.753   2.944  0.6396  1.3985 -1.4771
   19MOL    H5221688   3.740   5.576   2.965 -2.2059 -0.8768 -1.3292
   19MOL    H5321689   3.687   5.727   2.716 -2.3690 -0.5547 -1.0837
   19MOL    H5421690   3.694   5.544   2.728  1.9494  1.2444 -2.3004
   19MOL    H5521691   3.501   5.524   2.862 -3.5093 -0.4261  0.0600
   19MOL    H5621692   3.476   5.700   2.873  0.3993  0.9255 -0.9595
   19MOL    H5721693   3.470   5.600   2.600 -0.4994  3.1296 -0.9636
   19MOL    H5821694   3.371   5.716   2.683  0.4732  0.5404  0.7204
   19MOL    H5921695   3.239   5.523   2.629  0.8547 -0.7402 -1.0635
   19MOL    H6021696   3.328   5.412   2.721  0.8906  0.5554  3.6114
   19MOL    H6121697   3.087   6.143   2.833  0.5682 -2.3081  1.3206
   19MOL    O6221698   3.253   5.505   2.953 -0.5215  0.1870 -0.1352
   19MOL    C6321699   3.174   5.516   3.069  0.4574  0.4128  0.1129
   19MOL    C6421700   3.248   5.453   3.188  0.4154 -0.1666  0.4960
   19MOL    C6521701   3.239   5.288   3.192  0.2878  0.1599 -0.0080
   19MOL    C6621702   3.301   5.202   3.081 -0.2915  0.0869  0.9717
   19MOL    C6721703   3.448   5.215   3.058 -0.3545 -0.3611  0.1120
   19MOL    C6821704   3.514   5.099   2.977  0.0971  0.8137 -0.3402
   19MOL    C6921705   3.520   4.959   3.052 -0.4509  0.2934 -0.2949
   19MOL    C7021706   3.611   4.859   2.976  0.3195 -0.3945  0.7719
   19MOL    C7121707   3.671   4.749   3.068  0.1466 -0.2192  0.2998
   19MOL    C7221708   3.813   4.707   3.015 -0.1367  0.2888 -1.0920
   19MOL    O7321709   3.808   4.624   2.900  0.8853  0.0592  0.4886
   19MOL    C7421710   3.913   4.547   2.866  0.3884  0.6941 -0.1296
   19MOL    O7521711   4.027   4.548   2.914  0.1726 -0.0561 -0.1440
   19MOL    C7621712   3.882   4.460   2.743 -0.2850 -0.2737 -0.2254
   19MOL    C7721713   3.951   4.516   2.621  0.4392 -0.4361  0.1913
   19MOL    C7821714   3.949   4.423   2.500  0.3399  0.1500 -0.6641
   19MOL    C7921715   3.994   4.503   2.376  0.3654  0.1433  0.7375
   19MOL    C8021716   4.020   4.419   2.257  0.0083  0.0504  0.9001
   19MOL    C8121717   3.894   4.359   2.197  0.1779 -0.4532  0.2000
   19MOL    C8221718   3.800   4.466   2.131  0.3135  1.0107  0.4234
   19MOL    C8321719   3.663   4.417   2.080 -0.0173  0.6162 -0.2905
   19MOL    C8421720   3.580   4.347   2.187 -0.3225 -0.2082 -0.3187
   19MOL    O8521721   3.585   4.227   2.205  0.2991 -0.5081  0.2146
   19MOL    H8621722   3.161   5.620   3.100  0.1992  0.5606 -0.4682
   19MOL    H8721723   3.077   5.470   3.050 -0.9421  3.9226 -1.8537
   19MOL    H8821724   3.355   5.474   3.185  0.3717 -0.0715 -0.5922
   19MOL    H8921725   3.206   5.489   3.281 -1.4817  0.8895 -0.7581
   19MOL    H9021726   3.275   5.260   3.291  1.0246 -1.9280 -0.8286
   19MOL    H9121727   3.135   5.257   3.193  0.0469  0.9417 -0.2067
   19MOL    H9221728   3.280   5.098   3.104 -0.3876 -0.8780 -3.1944
   19MOL    H9321729   3.250   5.212   2.986  1.6969 -3.5696 -0.5491
   19MOL    H9421730   3.502   5.221   3.153  0.1072  1.8057 -0.2481
   19MOL    H9521731   3.470   5.302   2.996  1.7233 -0.2074  1.0045
   19MOL    H9621732   3.618   5.121   2.951  1.0636 -2.4691  0.5170
   19MOL    H9721733   3.479   5.092   2.874  1.2102  0.0438 -0.6781
   19MOL    H9821734   3.418   4.925   3.069 -0.8212  0.0146 -2.8167
   19MOL    H9921735   3.558   4.967   3.154  1.7638 -0.3369 -1.0237
   19MOL   H10021736   3.695   4.910   2.931  0.0185 -0.9374 -0.4324
   19MOL   H10121737   3.570   4.821   2.882  0.3344  1.0262  0.1822
   19MOL   H10221738   3.679   4.781   3.173 -2.5355  0.0281  0.4759
   19MOL   H10321739   3.595   4.671   3.069  0.8537 -0.9794 -2.8872
   19MOL   H10421740   3.880   4.790   2.993  2.0381 -1.0174  0.3270
   19MOL   H10521741   3.869   4.648   3.088  1.2508  0.8003 -1.7145
   19MOL   H10621742   3.779   4.432   2.720  0.1712 -3.1018  0.9144
   19MOL   H10721743   3.916   4.357   2.758 -0.8159 -0.1536  1.8219
   19MOL   H10821744   4.049   4.562   2.636 -0.4763  0.9506  2.1501
   19MOL   H10921745   3.897   4.608   2.601 -1.3733 -1.5395 -0.1332
   19MOL   H11021746   3.848   4.386   2.481  0.1146 -0.3413  1.3498
   19MOL   H11121747   4.023   4.343   2.512  0.9418  0.3957 -2.5703
   19MOL   H11221748   4.087   4.556   2.394  1.3007 -1.1488 -0.2691
   19MOL   H11321749   3.924   4.585   2.357 -0.6960 -0.9400 -0.1047
   19MOL   H11421750   4.070   4.478   2.180 -0.7934 -0.2122  0.1622
   19MOL   H11521751   4.094   4.346   2.290 -0.6318 -0.0247  2.1679
   19MOL   H11621752   3.920   4.285   2.121 -0.0562  0.9284 -1.2541
   19MOL   H11721753   3.836   4.300   2.269 -3.2382  1.8391 -0.5212
   19MOL   H11821754   3.845   4.513   2.043  0.1356  0.3313 -0.0375
   19MOL   H11921755   3.770   4.536   2.208  0.6417  0.3813  1.1265
   19MOL   H12021756   3.615   4.505   2.037  1.8061  1.5070 -0.5454
   19MOL   H12121757   3.680   4.360   1.988 -1.2284  1.1115 -0.8327
   19MOL   O12221758   3.510   4.440   2.256  0.1075 -0.3963  0.1477
   19MOL   C12321759   3.418   4.398   2.352  0.0693 -0.0101 -0.5983
   19MOL   C12421760   3.461   4.401   2.505  0.6401  0.1295 -0.2201
   19MOL   C12521761   3.470   4.537   2.575  0.1015  0.7322 -0.3426
   19MOL   C12621762   3.590   4.618   2.527 -0.2491 -0.0269  0.7633
   19MOL   C12721763   3.582   4.768   2.559  0.5103  0.1933  0.3119
   19MOL   C12821764   3.722   4.827   2.599  0.1625 -0.0266  0.3642
   19MOL   C12921765   3.725   4.976   2.630  0.5387  0.0693 -0.5407
   19MOL   C13021766   3.677   5.073   2.523 -0.0231 -0.2761 -0.1379
   19MOL   C13121767   3.649   5.217   2.572 -0.1638 -0.2135  0.3146
   19MOL   C13221768   3.641   5.318   2.449  0.1520 -0.4358  0.8361
   19MOL   O13321769   3.534   5.288   2.357 -0.6990 -0.2129  0.3846
   19MOL   C13421770   3.549   5.302   2.221 -0.3877  0.1665 -0.2085
   19MOL   O13521771   3.651   5.346   2.166 -0.0572  0.0454 -0.3388
   19MOL   C13621772   3.425   5.259   2.143  0.6062 -0.3008 -0.4878
   19MOL   C13721773   3.376   5.114   2.177 -0.5547 -0.8082  0.2558
   19MOL   C13821774   3.472   4.997   2.150 -0.8422  0.2942 -0.2855
   19MOL   C13921775   3.512   4.979   2.008  0.0115  0.3664 -0.2826
   19MOL   C14021776   3.639   4.892   2.006 -0.3389  0.1161 -0.1773
   19MOL   C14121777   3.767   4.941   2.064  0.5089  0.0779 -0.9406
   19MOL   C14221778   3.895   4.863   2.031  0.4480  0.1073 -0.1270
   19MOL   C14321779   3.921   4.835   1.883  0.5428  0.0331 -0.0078
   19MOL   C14421780   4.059   4.771   1.845 -0.2915 -0.1226 -0.3558
   19MOL   O14521781   4.121   4.701   1.923  0.5011 -0.4488  0.0494
   19MOL   H14621782   3.341   4.474   2.359 -1.2100 -1.4145  1.3556
   19MOL   H14721783   3.372   4.304   2.322  2.1812 -0.3964 -2.7908
   19MOL   H14821784   3.392   4.344   2.567 -0.6809  0.3284 -1.4755
   19MOL   H14921785   3.553   4.345   2.521 -0.7076 -1.8568  0.8103
   19MOL   H15021786   3.373   4.585   2.563 -0.2199  0.0211 -0.6347
   19MOL   H15121787   3.483   4.520   2.682  0.1560  1.7483 -0.1808
   19MOL   H15221788   3.676   4.571   2.574 -1.0139 -3.0876 -0.7950
   19MOL   H15321789   3.610   4.596   2.422  2.1447 -0.4875  1.3011
   19MOL   H15421790   3.511   4.773   2.642  1.4102  0.0996  1.0963
   19MOL   H15521791   3.537   4.826   2.478  0.4319  0.0987  0.2877
   19MOL   H15621792   3.796   4.812   2.520 -2.7875  0.6821 -2.6444
   19MOL   H15721793   3.756   4.769   2.684  0.4462 -0.7340 -0.2232
   19MOL   H15821794   3.831   5.002   2.640  0.8958 -1.2594 -0.7999
   19MOL   H15921795   3.672   4.986   2.725 -0.1389 -1.3666 -0.7689
   19MOL   H16021796   3.586   5.027   2.485 -1.3957  1.7501  0.6430
   19MOL   H16121797   3.742   5.078   2.436  0.2615  1.4588  0.1490
   19MOL   H16221798   3.561   5.226   2.635 -0.3954 -0.4976  0.0309
   19MOL   H16321799   3.733   5.255   2.631 -1.0834 -0.6586  1.9568
   19MOL   H16421800   3.617   5.417   2.489  0.4639  0.7600 -1.8304
   19MOL   H16521801   3.733   5.311   2.392  1.9318 -1.1110  3.6906
   19MOL   H16621802   3.439   5.266   2.035  0.0995  1.8056 -0.4365
   19MOL   H16721803   3.355   5.338   2.170  0.0300 -0.9023 -0.2235
   19MOL   H16821804   3.283   5.102   2.120  0.8726  2.1391 -2.8609
   19MOL   H16921805   3.350   5.121   2.283 -1.1131 -0.1159  0.0756
   19MOL   H17021806   3.433   4.902   2.188  1.1470  0.2383  1.6755
   19MOL   H17121807   3.560   5.001   2.213 -1.5047 -0.4725  0.7045
   19MOL   H17221808   3.528   5.080   1.971 -1.7130  1.9544  3.0484
   19MOL   H17321809   3.422   4.940   1.961  0.6099 -0.5587 -0.6715
   19MOL   H17421810   3.621   4.799   2.061  0.2187 -0.8344 -1.5639
   19MOL   H17521811   3.638   4.854   1.904 -1.4499  2.3007 -0.9975
   19MOL   H17621812   3.769   5.040   2.019 -0.1997  1.1547  1.3123
   19MOL   H17721813   3.757   4.951   2.173 -0.7915 -0.6408 -0.9851
   19MOL   H17821814   3.882   4.764   2.076 -3.4463  0.0340 -1.2304
   19MOL   H17921815   3.974   4.923   2.076 -0.6290  0.7612  0.8998
   19MOL   H18021816   3.846   4.767   1.841 -1.0069 -0.2658  3.1274
   19MOL   H18121817   3.903   4.921   1.819 -1.1885 -1.8823 -2.1972
   19MOL   O18221818   4.100   4.794   1.718 -0.8502  0.0640 -1.0021
   19MOL   C18321819   4.220   4.731   1.668  0.2331 -0.2250  0.0770
   19MOL   C18421820   4.264   4.786   1.537 -0.2438 -0.1385  0.1987
   19MOL   C18521821   4.220   4.713   1.418  1.1320 -1.0459 -0.2400
   19MOL   C18621822   4.249   4.782   1.288 -0.6551  0.3363 -0.6585
   19MOL   C18721823   4.239   4.694   1.170 -0.1400  0.0910 -0.1139
   19MOL   C18821824   4.286   4.786   1.051  0.7126 -0.0784 -0.3332
   19MOL   C18921825   4.287   4.731   0.916  0.1469 -0.9239  0.5013
   19MOL   C19021826   4.285   4.837   0.804  0.4204  0.0321 -0.3994
   19MOL   C19121827   4.276   4.775   0.666 -0.3122 -0.1710  0.4989
   19MOL   C19221828   4.279   4.864   0.545 -0.0357  0.2163 -0.7238
   19MOL   O19321829   4.273   4.784   0.427 -0.4524 -0.1523  0.3352
   19MOL   C19421830   4.195   4.832   0.329  0.1140 -0.6590  0.6862
   19MOL   O19521831   4.140   4.942   0.325  0.1214 -0.4404 -0.1595
   19MOL   C19621832   4.181   4.726   0.223  0.0701 -0.1888 -0.2731
   19MOL   C19721833   4.085   4.756   0.112  0.2679  0.0029 -0.4655
   19MOL   C19821834   4.143   4.678   7.752 -0.0656 -0.2247  0.2258
   19MOL   C19921835   4.037   4.654   7.637  0.2648 -0.5812 -0.8008
   19MOL   C20021836   4.095   4.580   7.520  0.5648 -0.9035  0.4851
   19MOL   C20121837   3.994   4.536   7.412 -0.1822  0.9121  0.1099
   19MOL   C20221838   3.923   4.651   7.335  0.0448 -0.1378 -0.0697
   19MOL   C20321839   3.834   4.591   7.225 -0.2484 -0.0724 -0.3495
   19MOL   C20421840   3.755   4.678   7.130 -0.3984 -0.9924 -0.6137
   19MOL   O20521841   3.739   4.801   7.147  0.0182  0.4346 -0.1314
   19MOL   H20621842   4.306   4.753   1.733  0.2308 -2.1451  0.7513
   19MOL   H20721843   4.199   4.624   1.673 -2.8211  0.4126  3.6145
   19MOL   H20821844   4.233   4.890   1.527 -0.9358 -0.2787  0.8961
   19MOL   H20921845   4.373   4.783   1.529 -0.2338  0.0227  0.2690
   19MOL   H21021846   4.270   4.616   1.428  1.2260 -0.6569  3.4258
   19MOL   H21121847   4.113   4.693   1.417  0.9479 -0.0844 -1.7474
   19MOL   H21221848   4.179   4.866   1.284 -0.5985  0.3893 -0.5648
   19MOL   H21321849   4.341   4.841   1.284  0.2382 -1.0810 -1.1849
   19MOL   H21421850   4.141   4.649   1.156  0.1577 -0.8535  0.7915
   19MOL   H21521851   4.318   4.619   1.161  0.7954  1.3895 -3.6269
   19MOL   H21621852   4.388   4.825   1.053  0.8052 -0.3283  0.1739
   19MOL   H21721853   4.221   4.873   1.060 -4.2635 -3.7802  1.6602
   19MOL   H21821854   4.216   4.649   0.904  1.5616 -2.2548  1.0295
   19MOL   H21921855   4.382   4.677   0.920  0.3320 -0.6127  0.3425
   19MOL   H22021856   4.372   4.901   0.812  0.7154 -0.4940  0.6012
   19MOL   H22121857   4.198   4.901   0.821  1.3752  1.2218  0.0794
   19MOL   H22221858   4.354   4.700   0.653 -1.1703 -0.7957 -1.1641
   19MOL   H22321859   4.181   4.723   0.659  0.1355 -0.7143 -2.4735
   19MOL   H22421860   4.193   4.930   0.553 -0.2885  0.0345 -1.8902
   19MOL   H22521861   4.367   4.928   0.540  1.5201 -1.8726 -0.9118
   19MOL   H22621862   4.152   4.633   0.271  1.3831 -0.4941 -0.0563
   19MOL   H22721863   4.277   4.721   0.171  0.3239  1.0170  0.0533
   19MOL   H22821864   4.098   4.861   0.088  2.4057  0.2010  1.4229
   19MOL   H22921865   3.983   4.727   0.139  0.8169 -0.2483  1.3951
   19MOL   H23021866   4.182   4.582   0.030 -3.0100 -1.5299  0.0808
   19MOL   H23121867   4.227   4.740   7.722  0.4553 -1.6518 -1.2968
   19MOL   H23221868   3.998   4.751   7.607  2.1514  0.5806  0.4285
   19MOL   H23321869   3.954   4.596   7.677 -2.7220  1.8665 -3.2378
   19MOL   H23421870   4.178   4.637   7.478 -2.2637  1.3448 -2.2911
   19MOL   H23521871   4.150   4.490   7.550 -0.5348 -0.8935  2.5921
   19MOL   H23621872   4.044   4.482   7.331 -1.1376  0.7104 -0.3514
   19MOL   H23721873   3.925   4.467   7.460  1.8336 -0.3589  1.2710
   19MOL   H23821874   3.994   4.716   7.283  0.7894 -1.4493 -0.7031
   19MOL   H23921875   3.857   4.711   7.397 -0.0421 -3.0719  2.7506
   19MOL   H24021876   3.907   4.546   7.159 -0.5081  0.6520 -1.1340
   19MOL   H24121877   3.774   4.510   7.266  0.7819 -0.7967 -0.2774
   19MOL   O24221878   3.711   4.606   7.021  0.0923 -0.0390 -0.4974
   19MOL   C24321879   3.696   4.677   6.901  0.6084 -0.3584  0.7075
   19MOL   C24421880   3.683   4.567   6.795  0.4895  0.4045  0.1365
   19MOL   C24521881   3.538   4.504   6.789  0.1523  0.1436 -0.6076
   19MOL   C24621882   3.503   4.428   6.656  0.2743 -0.2425 -0.7716
   19MOL   C24721883   3.603   4.319   6.619  0.0720 -0.1817  0.4140
   19MOL   C24821884   3.534   4.222   6.522  0.0179  0.0783 -0.0192
   19MOL   C24921885   3.479   4.282   6.389 -0.3616  0.6383  0.1134
   19MOL   C25021886   3.591   4.336   6.295 -0.3305  0.0941  0.0510
   19MOL   C25121887   3.541   4.395   6.159  0.2592  0.8524 -0.2288
   19MOL   C25221888   3.653   4.415   6.064  0.3898  0.0339  0.1818
   19MOL   O25321889   3.604   4.471   5.939 -0.2805  0.3656 -0.3196
   19MOL   C25421890   3.562   4.387   5.848  0.1465  1.1413  0.5242
   19MOL   O25521891   3.537   4.269   5.856 -0.2766 -0.2026  0.0983
   19MOL   C25621892   3.565   4.455   5.707  0.4463  0.2522 -0.3178
   19MOL   C25721893   3.425   4.505   5.673 -0.7534 -0.1260 -0.2662
   19MOL   C25821894   3.434   4.580   5.546 -0.7386  0.0231 -0.6524
   19MOL   C25921895   3.301   4.647   5.518  0.3690 -0.3422 -0.2834
   19MOL   C26021896   3.295   4.718   5.385 -0.3777  0.2666  0.0420
   19MOL   C26121897   3.162   4.768   5.337  0.0568  0.0330  0.3747
   19MOL   C26221898   3.171   4.860   5.209  0.9573  0.2590 -0.5389
   19MOL   C26321899   3.257   4.803   5.094  0.0353  0.8319  0.1160
   19MOL   C26421900   3.252   4.890   4.970 -0.1004  0.4418  0.4751
   19MOL   O26521901   3.205   4.851   4.865  0.2485  0.6325 -0.7422
   19MOL   H26621902   3.607   4.740   6.909  0.2230 -0.9363  0.9828
   19MOL   H26721903   3.785   4.739   6.890 -0.3277  0.6562 -1.4161
   19MOL   H26821904   3.711   4.606   6.697  0.0947  0.9879  0.2489
   19MOL   H26921905   3.752   4.484   6.809 -2.5299 -2.3493 -0.9916
   19MOL   H27021906   3.522   4.438   6.874 -2.1646  0.4657 -0.7610
   19MOL   H27121907   3.465   4.583   6.804 -0.3218 -0.3398 -0.3323
   19MOL   H27221908   3.402   4.393   6.674 -0.0541  2.0352  2.4009
   19MOL   H27321909   3.487   4.498   6.573 -1.8298 -1.2520 -1.2408
   19MOL   H27421910   3.624   4.259   6.707 -2.2318  0.9516  1.7724
   19MOL   H27521911   3.701   4.361   6.594 -0.9030  1.7425 -0.2351
   19MOL   H27621912   3.455   4.177   6.582 -1.3199 -1.1218 -2.5987
   19MOL   H27721913   3.602   4.139   6.506 -0.6250 -0.5425  0.4479
   19MOL   H27821914   3.398   4.352   6.406 -1.0335  0.5660 -2.5718
   19MOL   H27921915   3.429   4.204   6.333 -0.2012  0.6291 -0.0171
   19MOL   H28021916   3.664   4.258   6.274  0.3157  0.4591  0.8563
   19MOL   H28121917   3.642   4.413   6.354 -1.9159  2.1894 -1.2464
   19MOL   H28221918   3.464   4.325   6.127 -0.0194  1.2032 -0.3291
   19MOL   H28321919   3.495   4.491   6.183 -1.1858  0.3157 -0.8391
   19MOL   H28421920   3.718   4.477   6.125 -1.4507  0.6050  1.6244
   19MOL   H28521921   3.703   4.321   6.041 -0.5648 -0.2151 -0.9395
   19MOL   H28621922   3.596   4.389   5.625  2.9485 -0.5169  1.1884
   19MOL   H28721923   3.637   4.536   5.699  0.8093  0.3480  3.2706
   19MOL   H28821924   3.408   4.570   5.759 -0.1212 -0.0321 -0.2101
   19MOL   H28921925   3.351   4.426   5.678 -0.6907 -0.1074  1.5439
   19MOL   H29021926   3.457   4.524   5.456 -0.9235 -0.5774 -0.3261
   19MOL   H29121927   3.514   4.653   5.558 -0.5149 -0.3732  0.2599
   19MOL   H29221928   3.267   4.719   5.593  0.3498 -1.4699  0.7936
   19MOL   H29321929   3.219   4.577   5.529  0.4888 -0.3781  0.3786
   19MOL   H29421930   3.362   4.804   5.390 -0.6483  0.3764  2.0047
   19MOL   H29521931   3.339   4.642   5.321  0.1347 -0.1586  0.8838
   19MOL   H29621932   3.093   4.688   5.314  0.3339 -0.1179  0.0688
   19MOL   H29721933   3.112   4.829   5.412  2.5745  1.7232  0.7765
   19MOL   H29821934   3.205   4.955   5.250 -0.3986  0.1835  0.8005
   19MOL   H29921935   3.070   4.868   5.168  0.5845  0.2355  0.3535
   19MOL   H30021936   3.356   4.787   5.137  0.0226  0.6078  0.0583
   19MOL   H30121937   3.212   4.706   5.074  0.9091  0.0761  1.7239
   19MOL   O30221938   3.304   5.010   4.992 -0.6191 -0.4151  0.1215
   19MOL   C30321939   3.303   5.107   4.889 -0.6969  0.1335 -0.7090
   19MOL   C30421940   3.429   5.103   4.802  0.5298 -0.4009  0.3030
   19MOL   C30521941   3.417   5.172   4.655 -0.1702  0.8349  0.4957
   19MOL   C30621942   3.543   5.144   4.571  0.3818  0.0995  0.0937
   19MOL   C30721943   3.540   5.215   4.429 -0.3695  1.1133  0.2241
   19MOL   C30821944   3.595   5.362   4.434 -0.8089 -0.3623 -0.3551
   19MOL   C30921945   3.645   5.397   4.294  0.0385 -0.3178 -0.3263
   19MOL   C31021946   3.705   5.536   4.288  0.0124 -0.0618  0.0626
   19MOL   C31121947   3.842   5.545   4.354  0.0859 -0.4654 -0.1777
   19MOL   C31221948   3.901   5.690   4.370  0.7205  0.4131  0.0841
   19MOL   O31321949   3.829   5.743   4.480  0.0722  0.5755 -0.5075
   19MOL   C31421950   3.864   5.865   4.509 -0.5600 -0.3204  0.5103
   19MOL   O31521951   3.937   5.937   4.443 -0.9655 -0.3834 -0.4389
   19MOL   C31621952   3.776   5.922   4.625  0.2587  1.2589  0.7213
   19MOL   C31721953   3.862   6.018   4.703 -0.4196 -0.3592  0.0016
   19MOL   C31821954   3.775   6.107   4.791  0.0640  0.6267  0.1427
   19MOL   C31921955   3.679   6.026   4.879  0.6192  0.0471  0.1370
   19MOL   C32021956   3.664   6.102   5.009  1.1561  0.1838 -0.0746
   19MOL   C32121957   3.575   6.031   5.111  0.1257  0.4624  0.2350
   19MOL   C32221958   3.434   5.975   5.070  0.0446 -0.1482 -0.1885
   19MOL   C32321959   3.368   5.907   5.187 -0.5053  0.4146  0.4944
   19MOL   C32421960   3.244   5.835   5.148 -0.6783  0.7353 -0.8627
   19MOL   O32521961   3.199   5.835   5.031  0.1886  0.4458 -0.0522
   19MOL   H32621962   3.205   5.114   4.841 -0.9986  0.3608 -0.0657
   19MOL   H32721963   3.307   5.200   4.945  1.2429 -1.7462  2.3666
   19MOL   H32821964   3.512   5.147   4.856 -1.2711  2.5587  0.7395
   19MOL   H32921965   3.448   4.997   4.783 -0.2159 -0.6610  0.9680
   19MOL   H33021966   3.327   5.140   4.602  0.5348 -0.0166 -0.2193
   19MOL   H33121967   3.398   5.278   4.667  0.4126  0.8044  1.7433
   19MOL   H33221968   3.636   5.163   4.624  0.3037 -0.7937  0.5651
   19MOL   H33321969   3.540   5.036   4.553  0.5647  0.3992 -1.8730
   19MOL   H33421970   3.445   5.229   4.378 -0.6040 -0.3013  0.2410
   19MOL   H33521971   3.604   5.166   4.356  0.9213  1.4563  1.1212
   19MOL   H33621972   3.669   5.373   4.513 -2.4222  2.1193  0.8598
   19MOL   H33721973   3.522   5.437   4.463 -0.1420 -0.0623  0.5276
   19MOL   H33821974   3.574   5.406   4.211 -2.4314  1.0203  1.8620
   19MOL   H33921975   3.725   5.331   4.261  1.8214  1.1980  0.8544
   19MOL   H34021976   3.634   5.609   4.327  2.1610  1.0624  1.9766
   19MOL   H34121977   3.706   5.561   4.181 -0.4348 -0.8329 -0.1270
   19MOL   H34221978   3.858   5.483   4.442  1.6019 -0.8742 -0.7229
   19MOL   H34321979   3.911   5.493   4.287  0.4676 -0.4536  0.2102
   19MOL   H34421980   4.008   5.689   4.391  0.4083 -0.2006  1.7143
   19MOL   H34521981   3.888   5.752   4.281 -0.4948  0.6483  0.4262
   19MOL   H34621982   3.735   5.837   4.679  0.1131  0.0833 -1.1919
   19MOL   H34721983   3.687   5.970   4.584  1.1450  1.0596 -1.4894
   19MOL   H34821984   3.910   6.090   4.637 -1.6632  0.5730  0.0918
   19MOL   H34921985   3.945   5.969   4.755 -1.2013  0.2763  1.8849
   19MOL   H35021986   3.731   6.184   4.726  1.1440  2.3844  1.4483
   19MOL   H35121987   3.848   6.171   4.840  0.4351 -0.4045  0.9350
   19MOL   H35221988   3.722   5.929   4.903 -1.0892 -0.6853  0.3386
   19MOL   H35321989   3.584   6.018   4.825  1.4935 -0.1906 -1.3846
   19MOL   H35421990   3.763   6.116   5.052  1.4869  2.1188 -1.3715
   19MOL   H35521991   3.613   6.197   4.991  0.2378 -0.4117 -0.6941
   19MOL   H35621992   3.628   5.941   5.140  2.7962  1.3935 -1.5904
   19MOL   H35721993   3.564   6.102   5.193  1.5430  0.3556  0.5293
   19MOL   H35821994   3.446   5.910   4.983  0.4522  0.7220 -0.7985
   19MOL   H35921995   3.380   6.061   5.030  0.2884  0.2918  0.4192
   19MOL   H36021996   3.430   5.834   5.240 -0.3776 -0.8708 -1.3768
   19MOL   H36121997   3.338   5.989   5.252  0.3454  1.5921 -0.5963
   19MOL   O36221998   3.190   5.763   5.248 -0.4986 -0.3568  0.0417
   19MOL   C36321999   3.060   5.712   5.224  0.5156 -0.0015  0.0576
   19MOL   C36422000   3.022   5.631   5.352  0.1847  0.4327 -0.6850
   19MOL   C36522001   2.871   5.602   5.348 -0.2622  0.7569  0.3838
   19MOL   C36622002   2.816   5.535   5.474  0.2848 -0.1733  0.1873
   19MOL   C36722003   2.671   5.481   5.450  0.4268  0.4909  0.5267
   19MOL   C36822004   2.600   5.417   5.570 -0.4548  0.1836  0.4346
   19MOL   C36922005   2.457   5.374   5.545 -0.1627  0.4674  0.5697
   19MOL   C37022006   2.403   5.303   5.674 -0.0028  0.0480  0.1963
   19MOL   C37122007   2.259   5.262   5.659 -0.5654 -0.7339  0.5779
   19MOL   C37222008   2.211   5.191   5.791 -0.1981  0.1105 -0.4214
   19MOL   O37322009   2.072   5.148   5.783 -0.3582 -0.5078 -0.8769
   19MOL   C37422010   2.027   5.029   5.736  0.2580 -0.3816  0.0246
   19MOL   O37522011   2.098   4.931   5.717 -0.0002 -0.0821 -0.1113
   19MOL   C37622012   1.880   5.037   5.710  0.8749 -0.6495  0.6208
   19MOL   C37722013   1.836   5.090   5.576  0.5138 -0.3294 -1.0307
   19MOL   C37822014   1.871   5.238   5.551 -0.1905  0.2903  0.2301
   19MOL   C37922015   1.821   5.288   5.414  0.4035 -0.6286  0.2188
   19MOL   C38022016   1.670   5.273   5.388  0.3317  0.1793  0.5704
   19MOL   C38122017   1.623   5.359   5.264 -0.1197  0.0926 -0.0615
   19MOL   C38222018   1.468   5.345   5.239  0.4555  0.0307  0.0825
   19MOL   C38322019   1.411   5.444   5.133  0.1200  1.2422  0.0520
   19MOL   C38422020   1.257   5.424   5.094 -0.1769  0.5807 -1.1997
   19MOL   O38522021   1.186   5.338   5.142  0.3236  0.0385  0.0895
   19MOL   H38622022   2.990   5.789   5.190  1.6457  1.3198  0.6751
   19MOL   H38722023   3.073   5.636   5.147  1.5143  1.2786 -1.0690
   19MOL   H38822024   3.074   5.538   5.377 -2.6236 -1.3362 -1.1672
   19MOL   H38922025   3.028   5.702   5.434 -0.0184 -1.4057  0.9753
   19MOL   H39022026   2.820   5.695   5.321 -0.9402 -0.6670 -3.4735
   19MOL   H39122027   2.856   5.537   5.263  1.1786 -0.4942  1.0636
   19MOL   H39222028   2.880   5.447   5.480 -1.8234 -1.7391  0.2820
   19MOL   H39322029   2.823   5.589   5.568  0.0558 -1.5033  0.9836
   19MOL   H39422030   2.663   5.407   5.370 -1.0765  0.6247  0.5355
   19MOL   H39522031   2.608   5.564   5.418 -0.1698 -0.3677 -0.5686
   19MOL   H39622032   2.593   5.492   5.649 -3.0017 -0.7768  1.1677
   19MOL   H39722033   2.661   5.338   5.615 -1.2961 -0.5594  0.2885
   19MOL   H39822034   2.467   5.300   5.465 -0.7188  0.2464  0.7025
   19MOL   H39922035   2.389   5.457   5.526 -0.7264 -0.7667 -3.1297
   19MOL   H40022036   2.411   5.366   5.764 -1.0521 -1.4819  1.3833
   19MOL   H40122037   2.469   5.219   5.693 -0.4950 -0.7251 -1.4863
   19MOL   H40222038   2.194   5.345   5.632 -1.2864 -1.8148 -1.1007
   19MOL   H40322039   2.252   5.205   5.566  1.4432 -0.1510  0.0309
   19MOL   H40422040   2.287   5.122   5.828  0.1819 -0.7844 -2.8280
   19MOL   H40522041   2.214   5.260   5.876  1.6990  0.3850 -0.7031
   19MOL   H40622042   1.837   5.099   5.789  1.4686  0.0628  0.3873
   19MOL   H40722043   1.842   4.935   5.722 -0.2300 -0.2258  0.7482
   19MOL   H40822044   1.729   5.070   5.570  0.1649  0.8426  1.0157
   19MOL   H40922045   1.884   5.025   5.502  0.5160 -0.6363 -0.7587
   19MOL   H41022046   1.979   5.251   5.560 -0.1316 -0.0080 -0.0042
   19MOL   H41122047   1.820   5.298   5.626  1.6907  3.1693 -0.7042
   19MOL   H41222048   1.888   5.238   5.344  2.1413 -1.0370  2.1151
   19MOL   H41322049   1.858   5.388   5.391  0.5511 -0.2967  1.8368
   19MOL   H41422050   1.638   5.171   5.368  2.0775 -0.0557 -1.1795
   19MOL   H41522051   1.618   5.309   5.476  1.2080  1.3125  0.6421
   19MOL   H41622052   1.634   5.465   5.286 -1.6005  0.5829 -1.5907
   19MOL   H41722053   1.676   5.332   5.173  1.1152  0.9511  0.3863
   19MOL   H41822054   1.409   5.368   5.328 -1.7414 -1.2749 -1.0041
   19MOL   H41922055   1.439   5.243   5.215  0.5448 -0.6031  2.4820
   19MOL   H42022056   1.418   5.548   5.162  1.2207  0.1228  4.1603
   19MOL   H42122057   1.469   5.439   5.041  1.2979  0.8817  0.7967
   19MOL   O42222058   1.212   5.522   5.012 -0.0094 -0.7820 -0.4024
   19MOL   C42322059   1.067   5.517   4.978 -0.7270  0.2732  0.6895
   19MOL   C42422060   0.978   5.544   5.101  0.1404  0.2676  0.1128
   19MOL   C42522061   0.831   5.523   5.066  0.0103 -0.2341 -0.0485
   19MOL   C42622062   0.736   5.541   5.190 -0.3648 -0.0353 -0.0900
   19MOL   C42722063   0.592   5.497   5.162  0.1878 -0.1310  0.1545
   19MOL   C42822064   0.498   5.517   5.278  0.4987 -0.9767  0.1345
   19MOL   C42922065   0.390   5.414   5.308 -0.2783 -0.0800  0.4021
   19MOL   C43022066   0.284   5.405   5.195  1.2430  0.6347 -0.0943
   19MOL   C43122067   0.162   5.494   5.231 -0.3218 -0.0819  0.1848
   19MOL   C43222068   0.056   5.502   5.115 -0.4940  0.1998  0.6703
   19MOL   O43322069   7.743   5.382   5.131 -0.0325  0.3620 -0.4800
   19MOL   C43422070   7.705   5.313   5.013 -1.2859  0.1171 -0.2520
   19MOL   O43522071   7.711   5.362   4.897 -0.2090  0.6757  0.2634
   19MOL   C43622072   7.651   5.171   5.047 -0.2228 -0.4664 -0.3162
   19MOL   C43722073   7.631   5.089   4.914 -0.5824 -0.1342 -0.5407
   19MOL   C43822074   7.590   4.940   4.932  0.5176 -0.2452 -0.1483
   19MOL   C43922075   7.705   4.837   4.927 -0.0803  0.3227 -0.2553
   19MOL   C44022076   7.650   4.700   4.946  0.0692 -0.0150 -0.1900
   19MOL   C44122077   0.008   4.594   4.952  0.0253  1.1124 -0.6090
   19MOL   C44222078   7.701   4.455   4.954 -0.0856 -0.1212 -0.2723
   19MOL   C44322079   0.048   4.345   4.982 -0.2269  0.7763 -0.1670
   19MOL   C44422080   0.142   4.354   5.097  0.1040  0.0761  0.1474
   19MOL   O44522081   0.263   4.328   5.077  0.1385  0.2156 -0.3557
   19MOL   H44622082   1.048   5.595   4.904 -0.6040 -0.8793 -0.5655
   19MOL   H44722083   1.040   5.420   4.936  0.9138  0.8308 -1.7880
   19MOL   H44822084   0.996   5.476   5.184 -0.1356  0.8426  0.6388
   19MOL   H44922085   0.982   5.644   5.143 -0.8856  0.8150 -1.0604
   19MOL   H45022086   0.799   5.600   4.995  1.7083  1.8187  1.3408
   19MOL   H45122087   0.817   5.428   5.015 -0.8552  0.0732 -0.4085
   19MOL   H45222088   0.786   5.479   5.264  0.2802  0.3792 -0.1728
   19MOL   H45322089   0.741   5.644   5.226  0.9262 -0.2657  0.4459
   19MOL   H45422090   0.586   5.391   5.136 -0.1722 -0.3205  0.9967
   19MOL   H45522091   0.550   5.550   5.076  1.1300  1.3077  0.5614
   19MOL   H45622092   0.443   5.611   5.268  1.7942 -0.1851  0.2393
   19MOL   H45722093   0.547   5.519   5.376  0.2494  0.2785  0.2447
   19MOL   H45822094   0.333   5.427   5.400 -1.0359 -0.6123  0.0125
   19MOL   H45922095   0.433   5.315   5.318 -0.0100  0.0064  0.1426
   19MOL   H46022096   0.248   5.302   5.188 -1.9781  1.7196 -0.1562
   19MOL   H46122097   0.329   5.426   5.098  0.9574  1.2698 -0.0881
   19MOL   H46222098   0.111   5.470   5.324  1.4757  0.7909  1.4051
   19MOL   H46322099   0.200   5.595   5.244  2.1986 -0.7970 -1.3414
   19MOL   H46422100   7.733   5.572   5.138 -0.5735  0.2049  0.3762
   19MOL   H46522101   0.101   5.525   5.019 -2.4430 -1.3202 -0.6353
   19MOL   H46622102   7.556   5.167   5.098 -0.5559  1.2930 -0.7588
   19MOL   H46722103   7.725   5.110   5.099  0.7631  1.3377  0.4365
   19MOL   H46822104   7.719   5.079   4.850 -0.6920 -1.3900 -0.5075
   19MOL   H46922105   7.560   5.130   4.843  0.7615  1.7297 -0.8343
   19MOL   H47022106   7.508   4.926   4.862  0.5544  1.6945 -0.6030
   19MOL   H47122107   7.546   4.925   5.031 -0.7934  2.2525 -0.3086
   19MOL   H47222108   0.012   4.864   5.011  0.4396 -1.6181 -0.0119
   19MOL   H47322109   0.011   4.849   4.839  0.7649 -1.6877  0.0443
   19MOL   H47422110   7.590   4.688   5.037  0.7258 -1.0801  0.1107
   19MOL   H47522111   7.580   4.682   4.865  0.0442 -1.1738  0.0825
   19MOL   H47622112   0.080   4.608   4.871  3.3741 -1.8190  1.7384
   19MOL   H47722113   0.055   4.616   5.048 -0.9555  1.4082 -0.1901
   19MOL   H47822114   7.659   4.431   4.856 -1.0963 -0.3621  0.2123
   19MOL   H47922115   7.619   4.442   5.025  0.2166 -1.9936 -0.2388
   19MOL   H48022116   0.003   4.246   4.977  0.1421  0.5362  1.2148
   19MOL   H48122117   0.123   4.342   4.903  0.0202 -4.1493  0.0685
   19MOL   O48222118   0.076   4.377   5.215  0.4749  0.5330 -0.3239
   19MOL   C48322119   0.148   4.383   5.340  0.2284  0.2023 -0.3775
   19MOL   C48422120   0.221   4.509   5.366  0.9331  0.6160  0.6180
   19MOL   C48522121   0.323   4.496   5.483  0.3323 -0.3348  0.3137
   19MOL   C48622122   0.416   4.619   5.496  0.2372  0.1137  0.4395
   19MOL   C48722123   0.514   4.624   5.613  0.2050 -1.0286  0.3633
   19MOL   C48822124   0.608   4.742   5.601  0.5605 -0.2551 -0.3136
   19MOL   C48922125   0.693   4.752   5.730 -0.5773 -0.3563  0.0025
   19MOL   C49022126   0.801   4.853   5.722  0.4124  0.3066  0.2158
   19MOL   C49122127   0.888   4.877   5.850 -0.1228  0.5694 -0.1223
   19MOL   C49222128   1.008   4.971   5.820 -0.0046 -0.5287  0.6776
   19MOL   O49322129   0.957   5.092   5.770  0.5238  0.7986  0.5466
   19MOL   C49422130   0.871   5.173   5.834 -0.9525 -0.1665 -1.0134
   19MOL   O49522131   0.844   5.167   5.956 -0.2119 -0.3322  0.7213
   19MOL   C49622132   0.820   5.296   5.760  0.2952 -0.7666  0.4418
   19MOL   C49722133   0.698   5.354   5.836  0.2228 -0.2270 -0.2456
   19MOL   C49822134   0.626   5.473   5.758  0.2554 -0.1634 -0.1738
   19MOL   C49922135   0.524   5.549   5.840  0.1733  0.3614  0.1912
   19MOL   C50022136   0.496   5.693   5.786  0.1546  0.1087 -0.2515
   19MOL   C50122137   0.409   5.772   5.887  0.2147 -0.1393 -0.4948
   19MOL   C50222138   0.365   5.905   5.833  0.1237  0.0364  1.2280
   19MOL   C50322139   0.291   6.002   5.935 -0.0883  0.0401  0.5710
   19MOL   C50422140   0.367   6.131   5.971  0.3761 -0.1362 -0.4223
   19MOL   O50522141   0.419   6.141   6.085 -0.7623 -0.0095 -0.2536
   19MOL   H50622142   0.068   4.360   5.410 -0.8172  0.0262 -1.6051
   19MOL   H50722143   0.207   4.292   5.340 -0.6771 -0.3902 -0.8562
   19MOL   H50822144   0.269   4.550   5.277  1.2811 -1.5647 -0.2088
   19MOL   H50922145   0.147   4.583   5.399  0.5730 -0.8117  3.1651
   19MOL   H51022146   0.257   4.488   5.570  2.2456 -1.6644  1.6688
   19MOL   H51122147   0.375   4.402   5.469  2.1747  0.4339  1.7110
   19MOL   H51222148   0.474   4.625   5.403 -0.4358  0.4188  0.0339
   19MOL   H51322149   0.351   4.706   5.503  0.6261  0.6360 -1.9735
   19MOL   H51422150   0.580   4.538   5.609  1.3043 -0.1375 -1.1615
   19MOL   H51522151   0.455   4.618   5.704  0.5828  2.1489  0.8710
   19MOL   H51622152   0.548   4.831   5.585  0.8759 -0.5082 -3.1102
   19MOL   H51722153   0.667   4.720   5.513  0.7437 -1.1926  0.0387
   19MOL   H51822154   0.726   4.659   5.778  0.1495 -0.2231 -0.2277
   19MOL   H51922155   0.620   4.795   5.798  0.2995  1.2696 -0.0479
   19MOL   H52022156   0.757   4.937   5.668  0.9277 -0.1194 -0.8887
   19MOL   H52122157   0.863   4.812   5.642  0.5453 -0.4714  0.7124
   19MOL   H52222158   0.833   4.926   5.931 -1.3651  0.0341 -0.6283
   19MOL   H52322159   0.908   4.776   5.886  1.1274  0.6240 -0.6591
   19MOL   H52422160   1.060   4.994   5.913 -0.8015  3.0786  0.3061
   19MOL   H52522161   1.076   4.927   5.747 -1.3958 -1.4206 -0.1001
   19MOL   H52622162   0.795   5.268   5.658 -2.1947 -0.7870  1.0186
   19MOL   H52722163   0.889   5.378   5.744 -0.6694  0.3437  1.7611
   19MOL   H52822164   0.729   5.398   5.931 -0.4015 -2.3557  0.9712
   19MOL   H52922165   0.619   5.283   5.860  1.2956 -2.0841 -2.0434
   19MOL   H53022166   0.585   5.444   5.661  1.0305  0.1319 -0.5991
   19MOL   H53122167   0.705   5.545   5.737  0.4893 -0.4145 -0.1678
   19MOL   H53222168   0.557   5.555   5.943 -1.2107 -0.1380  0.6722
   19MOL   H53322169   0.428   5.497   5.839  1.7939 -2.7635  0.7730
   19MOL   H53422170   0.585   5.748   5.756  0.2031  1.1696  1.7881
   19MOL   H53522171   0.429   5.697   5.700 -0.6142  2.0620  0.4192
   19MOL   H53622172   0.315   5.718   5.897 -0.5586  0.9625 -1.6596
   19MOL   H53722173   0.460   5.768   5.983 -0.8601  1.3239  0.1689
   19MOL   H53822174   0.317   5.892   5.736  3.6548 -0.9686 -0.4841
   19MOL   H53922175   0.457   5.958   5.807 -0.8073 -0.0157 -2.3937
   19MOL   H54022176   0.190   6.027   5.902  0.4186  2.9606  1.0917
   19MOL   H54122177   0.287   5.943   6.026 -0.7969 -2.5334 -1.0623
   19MOL   O54222178   0.380   6.206   5.865  0.3552 -0.4189  0.0871
   19MOL   C54322179   0.457   6.329   5.868 -0.9378  0.2311 -0.0540
   19MOL   C54422180   0.504   6.363   5.724 -0.1233 -0.1525 -0.8297
   19MOL   C54522181   0.395   6.357   5.621  0.1113 -0.6625  0.4777
   19MOL   C54622182   0.455   6.392   5.480 -0.3113 -0.2422 -0.3579
   19MOL   C54722183   0.352   6.405   5.363 -0.4115 -0.6716 -1.1985
   19MOL   C54822184   0.408   6.417   5.224  0.6330  0.4250 -0.5937
   19MOL   C54922185   0.296   6.413   5.113 -0.0339 -0.4365  0.1803
   19MOL   C55022186   0.349   6.346   4.983 -0.6662 -0.1290 -0.1012
   19MOL   C55122187   0.240   6.350   4.885 -0.7673  0.0787 -0.8799
   19MOL   C55222188   0.291   6.304   4.743 -0.3994  0.7070 -0.3896
   19MOL   O55322189   0.185   6.269   4.655  0.5842 -0.0365  0.1377
   19MOL   C55422190   0.223   6.226   4.531 -0.5730  0.0720 -0.3222
   19MOL   O55522191   0.343   6.224   4.488  0.5747 -0.5225 -0.6140
   19MOL   C55622192   0.100   6.197   4.441  0.8498 -0.6142  0.2369
   19MOL   C55722193   0.139   6.100   4.324  0.6879 -0.5610 -0.8485
   19MOL   C55822194   0.140   6.167   4.185 -0.6064  0.4240  0.2601
   19MOL   C55922195   0.152   6.066   4.062 -1.1961  0.3257 -0.2688
   19MOL   C56022196   0.108   6.139   3.939  0.1643  0.4658 -0.3701
   19MOL   C56122197   0.149   6.060   3.804 -1.1770 -0.0549 -0.6099
   19MOL   C56222198   0.116   6.129   3.675  0.4024 -0.0548 -0.0149
   19MOL   C56322199   0.182   6.063   3.560  0.2116 -0.7447  0.1337
   19MOL   C56422200   0.117   6.079   3.423  0.0134 -0.0961  0.0709
   19MOL   O56522201   0.055   5.988   3.366 -0.0272 -0.1669 -0.2875
   19MOL   H56622202   0.398   6.414   5.904 -1.4744  0.0772 -0.5573
   19MOL   H56722203   0.539   6.327   5.940 -0.9688  2.6587  0.0922
   19MOL   H56822204   0.553   6.460   5.725 -0.2196 -0.1089 -0.5445
   19MOL   H56922205   0.583   6.297   5.687  0.2132 -0.9073  1.1791
   19MOL   H57022206   0.349   6.258   5.619 -1.9729  0.2619  1.7883
   19MOL   H57122207   0.310   6.421   5.646 -0.6592 -0.6764 -1.9398
   19MOL   H57222208   0.502   6.489   5.493  0.6167 -0.6549 -0.5766
   19MOL   H57322209   0.546   6.337   5.454  0.5975  0.8608  0.4138
   19MOL   H57422210   0.285   6.488   5.389  0.8549 -0.7711  2.7200
   19MOL   H57522211   0.284   6.320   5.365 -0.6283 -0.5318 -2.2861
   19MOL   H57622212   0.471   6.328   5.215  1.9198  1.1056  1.3487
   19MOL   H57722213   0.476   6.502   5.221 -0.7855  1.8268  3.3036
   19MOL   H57822214   0.269   6.516   5.089 -0.1702  0.1021  2.5299
   19MOL   H57922215   0.204   6.359   5.134 -0.9156  1.5458  1.6095
   19MOL   H58022216   0.377   6.244   5.008  1.8510  0.6382  0.3230
   19MOL   H58122217   0.443   6.378   4.940  0.4224  0.2032  2.4153
   19MOL   H58222218   0.152   6.296   4.919  0.5928 -0.5160  1.8235
   19MOL   H58322219   0.204   6.452   4.873  1.3199  1.2881  2.4866
   19MOL   H58422220   0.349   6.389   4.706  1.9009 -0.0892  1.2667
   19MOL   H58522221   0.357   6.218   4.760  0.8237  1.5009 -1.0584
   19MOL   H58622222   0.073   6.293   4.396  1.4598 -0.2075  0.7329
   19MOL   H58722223   0.020   6.164   4.508 -0.1655  1.2304 -0.0354
   19MOL   H58822224   0.065   6.020   4.325 -0.5063  0.5214  1.4251
   19MOL   H58922225   0.235   6.054   4.348  0.6952  1.2131  3.0254
   19MOL   H59022226   0.220   6.240   4.188  0.8137 -1.0208 -1.4383
   19MOL   H59122227   0.049   6.227   4.176 -0.4769  0.6223  0.2760
   19MOL   H59222228   0.093   5.976   4.079 -1.2273  0.0129 -1.9747
   19MOL   H59322229   0.258   6.046   4.050 -1.7863 -2.1947 -1.5894
   19MOL   H59422230   7.755   6.142   3.941  0.0601 -1.6476 -0.8114
   19MOL   H59522231   0.144   6.241   3.930  0.2384  0.5106  0.4057
   19MOL   H59622232   0.258   6.048   3.809 -1.3260 -0.9269  1.0207
   19MOL   H59722233   0.109   5.958   3.807 -0.9010 -0.1264  0.7117
   19MOL   H59822234   0.150   6.232   3.669  2.4114 -0.5667  1.8284
   19MOL   H59922235   0.007   6.126   3.673  0.3741  0.6905  0.0931
   19MOL   H60022236   0.283   6.102   3.548 -0.6450  1.8580  1.0482
   19MOL   H60122237   0.176   5.957   3.583  0.0053 -0.1796  2.8124
   19MOL   O60222238   0.130   6.205   3.379  0.1330  0.0116  0.0448
   19MOL   C60322239   0.057   6.238   3.261 -0.5394  0.0596  0.0980
   19MOL   C60422240   0.123   6.350   3.181  0.7271 -0.1465 -0.5377
   19MOL   C60522241   0.042   6.423   3.076  0.0943 -0.6021  1.1553
   19MOL   C60622242   7.663   6.480   3.114  0.3023 -0.1973 -0.1924
   19MOL   C60722243   7.589   6.535   2.990  1.1592  0.4581  0.3096
   19MOL   C60822244   7.666   6.643   2.909  0.3423  0.6008  0.7662
   19MOL   C60922245   7.701   6.771   2.997 -0.1492 -0.0657  0.2185
   19MOL   C61022246   7.740   6.900   2.922 -0.4903 -0.2349 -0.2610
   19MOL   C61122247   7.737   7.010   3.025  0.4649 -0.1470  0.4002
   19MOL   C61222248   7.618   7.097   3.000 -0.4168 -0.4098  0.1649
   19MOL   O61322249   7.620   7.147   2.871 -0.7323  0.2867  1.2301
   19MOL   C61422250   7.658   7.271   2.840  0.3022  0.1725  0.6218
   19MOL   O61522251   7.704   7.354   2.916  0.0926  0.4743  0.0506
   19MOL   C61622252   7.649   7.295   2.689 -0.0702  0.4995 -0.1769
   19MOL   C61722253   0.032   7.311   2.623  0.0973 -0.2621  0.0004
   19MOL   C61822254   0.118   7.184   2.615 -0.4447 -0.5289 -0.5269
   19MOL   C61922255   0.259   7.188   2.565 -0.0022  0.1596  0.3990
   19MOL   C62022256   0.359   7.078   2.621  0.4792  0.3287  0.5225
   19MOL   C62122257   0.429   7.132   2.750  0.5830 -0.4885  0.4653
   19MOL   C62222258   0.498   7.019   2.832  0.5070  0.1898 -0.2892
   19MOL   C62322259   0.615   6.949   2.768 -0.3372 -0.9304  0.6383
   19MOL   C62422260   0.727   7.045   2.736 -0.2900 -0.5561 -0.5198
   19MOL   O62522261   0.779   7.119   2.825 -0.0614  0.1161  0.2509
   19MOL   H62622262   0.037   6.157   3.191  0.7712  0.4000 -0.6826
   19MOL   H62722263   7.717   6.267   3.304  0.4319  2.2490  0.9186
   19MOL   H62822264   0.155   6.424   3.255 -0.0655 -1.3935  1.0670
   19MOL   H62922265   0.223   6.331   3.140  1.7010  1.6671  0.9035
   19MOL   H63022266   0.107   6.503   3.043  0.5943 -1.1364  0.8448
   19MOL   H63122267   0.031   6.359   2.989 -0.0335  0.2702  0.5248
   19MOL   H63222268   7.603   6.409   3.171  1.8109 -1.7757 -0.5061
   19MOL   H63322269   7.675   6.567   3.178  0.5806 -0.6189  0.3248
   19MOL   H63422270   7.499   6.589   3.022  1.4828  1.6746 -0.7959
   19MOL   H63522271   7.550   6.455   2.927  0.6525  0.2377  0.8953
   19MOL   H63622272   7.624   6.680   2.815  1.1752  0.5923  0.3888
   19MOL   H63722273   0.008   6.606   2.882  0.7247  2.1362 -0.0301
   19MOL   H63822274   0.025   6.743   3.064  0.9676  0.8308 -0.7301
   19MOL   H63922275   7.614   6.793   3.059 -0.3734 -1.5136  0.4252
   19MOL   H64022276   7.671   6.916   2.838  0.7248 -1.4785 -1.5322
   19MOL   H64122277   0.083   6.885   2.880 -0.2940  2.2343 -0.7174
   19MOL   H64222278   7.741   6.986   3.131  1.4067  0.8046  0.5922
   19MOL   H64322279   0.069   7.072   3.009  0.9919 -0.6826  1.2224
   19MOL   H64422280   7.515   7.061   3.009 -0.4316 -0.2732  0.5487
   19MOL   H64522281   7.621   7.183   3.066 -0.9151  1.7458 -2.5024
   19MOL   H64622282   7.587   7.382   2.667 -0.0781  0.3864 -0.6150
   19MOL   H64722283   7.595   7.209   2.651  0.8717 -0.9099  1.5976
   19MOL   H64822284   0.089   7.396   2.662  1.9179 -1.1807 -0.6046
   19MOL   H64922285   0.009   7.332   2.519  0.8088  1.7838  0.2210
   19MOL   H65022286   0.060   7.101   2.574  1.1331 -0.5452 -2.8821
   19MOL   H65122287   0.141   7.158   2.718  0.3640 -0.1007 -0.5952
   19MOL   H65222288   0.296   7.289   2.583 -0.0131  0.2521 -0.0779
   19MOL   H65322289   0.259   7.166   2.458  4.3728  1.2253  0.0754
   19MOL   H65422290   0.292   6.999   2.656 -0.3213  1.4911  1.6423
   19MOL   H65522291   0.425   7.036   2.545 -0.8250 -0.2183 -0.3139
   19MOL   H65622292   0.505   7.204   2.718 -0.7450  0.9869  0.5893
   19MOL   H65722293   0.358   7.187   2.812  2.5850  1.3996  1.1658
   19MOL   H65822294   0.429   6.940   2.862  2.6828 -1.6444  0.0361
   19MOL   H65922295   0.533   7.058   2.928 -1.7157  1.5725 -0.0059
   19MOL   H66022296   0.657   6.879   2.839 -0.0176 -0.0915  1.2872
   19MOL   H66122297   0.584   6.908   2.672 -1.5453 -0.7132  0.9335
   19MOL   O66222298   0.761   7.049   2.611  0.2535 -0.2428  0.0630
   19MOL   C66322299   0.857   7.143   2.561 -0.7197 -0.1684 -0.0744
   19MOL   C66422300   0.779   7.261   2.497  0.5790 -0.0991  0.1319
   19MOL   C66522301   0.673   7.213   2.391  0.0071 -0.2068 -0.0340
   19MOL   C66622302   0.612   7.328   2.307 -0.7560  0.5173 -0.1545
   19MOL   C66722303   0.515   7.407   2.390  0.6736 -0.4093  0.1300
   19MOL   C66822304   0.419   7.501   2.320  0.9397  0.3006  0.3548
   19MOL   C66922305   0.314   7.564   2.417 -0.6525 -0.0622  0.6128
   19MOL   C67022306   0.218   7.672   2.357  0.2546 -1.0125  0.3159
   19MOL   C67122307   0.109   7.719   2.455  0.0520  0.4479  0.8241
   19MOL   C67222308   7.739   0.032   2.401  0.2163 -0.0750 -0.0488
   19MOL   O67322309   7.657   7.692   2.352  0.3774 -0.4701  0.4001
   19MOL   C67422310   7.543   7.725   2.304 -0.1018  0.2075 -0.1396
   19MOL   O67522311   7.514   0.084   2.284 -0.0508 -0.3039  0.1021
   19MOL   C67622312   7.456   7.607   2.264  0.1953 -0.2937  0.4631
   19MOL   C67722313   7.424   7.498   2.370  0.1434  0.4562  0.3383
   19MOL   C67822314   7.358   7.533   2.500  0.3011  0.1116 -0.0155
   19MOL   C67922315   7.307   7.409   2.564  0.1228 -0.1293  0.3992
   19MOL   C68022316   7.227   7.438   2.692  0.1398 -0.0501  0.5064
   19MOL   C68122317   7.210   7.332   2.795  0.5401  0.6816 -0.1047
   19MOL   C68222318   7.119   7.381   2.902 -0.2010 -0.1449  0.4465
   19MOL   C68322319   7.081   7.290   3.019 -0.0903 -0.3315 -0.3792
   19MOL   C68422320   7.188   7.252   3.127  0.1783 -0.5980 -0.1656
   19MOL   O68522321   7.303   7.235   3.102  0.1403  0.1406 -0.2389
   19MOL   H68622322   0.917   7.182   2.643  3.2675 -0.2797 -2.8069
   19MOL   H68722323   0.923   7.104   2.483 -1.0782  0.5710 -0.7444
   19MOL   H68822324   0.725   7.306   2.580  0.4664  3.2793 -1.7147
   19MOL   H68922325   0.851   7.327   2.449 -2.5742  1.6075 -2.3772
   19MOL   H69022326   0.713   7.136   2.326 -1.2201 -1.9241  1.2102
   19MOL   H69122327   0.597   7.156   2.444  0.9964  0.0440  1.7071
   19MOL   H69222328   0.689   7.396   2.270  0.4848  0.3006  1.9961
   19MOL   H69322329   0.555   7.280   2.227  0.0517 -1.0751  0.1888
   19MOL   H69422330   0.571   7.471   2.458  0.5047  1.4954 -1.4863
   19MOL   H69522331   0.460   7.332   2.447 -1.0333  0.5311 -0.2375
   19MOL   H69622332   0.371   7.446   2.239  0.4591  3.9171 -1.9473
   19MOL   H69722333   0.476   7.574   2.263  0.4505 -0.2986 -0.9395
   19MOL   H69822334   0.369   7.609   2.499  0.3737 -2.5500  1.3463
   19MOL   H69922335   0.257   7.488   2.470 -1.8839  0.8468  0.6120
   19MOL   H70022336   0.180   7.622   2.267 -0.6549 -1.6407  1.0356
   19MOL   H70122337   0.280   0.002   2.336 -1.1732  0.0796  0.4977
   19MOL   H70222338   0.082   7.634   2.518  0.1474 -0.0161  0.2418
   19MOL   H70322339   0.158   0.028   2.528  0.5549  1.5404 -0.4774
   19MOL   H70422340   7.693   0.074   2.491  1.1210  0.5513  0.1332
   19MOL   H70522341   0.005   0.110   2.330 -0.2306  2.0989  2.1259
   19MOL   H70622342   7.502   7.565   2.175 -0.2160 -1.5463  0.8235
   19MOL   H70722343   7.361   7.644   2.226 -0.2827  0.0525  1.9485
   19MOL   H70822344   7.522   7.451   2.379 -1.0946 -2.3702 -0.3716
   19MOL   H70922345   7.361   7.426   2.318  2.2038 -1.4022  0.3438
   19MOL   H71022346   7.267   7.590   2.482  0.7294  0.9539  0.4528
   19MOL   H71122347   7.426   7.587   2.567 -0.5112  1.5939 -0.3590
   19MOL   H71222348   7.395   7.348   2.585  1.1729  1.1235 -0.3250
   19MOL   H71322349   7.240   7.353   2.498 -0.1866  0.7951 -0.0691
   19MOL   H71422350   7.289   7.512   2.741  0.6131  0.1725 -0.4301
   19MOL   H71522351   7.128   7.476   2.668 -0.6558 -3.2356 -1.6535
   19MOL   H71622352   7.158   7.245   2.755  1.7993 -0.9045  1.6218
   19MOL   H71722353   7.305   7.289   2.827  0.5311  0.2447 -0.6567
   19MOL   H71822354   7.021   7.416   2.870  0.6273  2.6010  0.8297
   19MOL   H71922355   7.161   7.472   2.945  1.4475  0.5507 -2.5416
   19MOL   H72022356   7.000   7.336   3.076  0.2641  0.3440 -0.4111
   19MOL   H72122357   7.035   7.194   2.998  1.1694 -1.8634  3.4318
   19MOL   O72222358   7.128   7.241   3.250 -0.5673 -0.7459 -0.3442
   19MOL   C72322359   7.211   7.210   3.364 -0.3959 -0.3827 -0.7545
   19MOL   C72422360   7.201   7.332   3.456  0.6045 -0.0226 -0.2710
   19MOL   C72522361   7.072   7.353   3.537 -0.7831 -0.7026  0.6283
   19MOL   C72622362   7.071   7.471   3.636  0.1163 -0.3307  0.1379
   19MOL   C72722363   6.932   7.494   3.696  0.4082 -0.0615  0.6249
   19MOL   C72822364   6.933   7.600   3.802  0.2684 -0.5566  0.0096
   19MOL   C72922365   6.797   7.623   3.875  0.6611  0.6632 -0.1554
   19MOL   C73022366   6.697   7.683   3.774 -0.4389 -0.4102 -0.1405
   19MOL   C73122367   6.554   7.716   3.822 -0.2467 -0.8695  0.5417
   19MOL   C73222368   6.472   0.012   3.709  0.0806 -0.6660  0.3366
   19MOL   O73322369   6.356   0.069   3.770  0.0248 -0.5156 -0.2818
   19MOL   C73422370   6.273   0.136   3.685  0.7556  0.1776  0.3637
   19MOL   O73522371   6.270   0.127   3.566  0.3038  0.4369  0.0416
   19MOL   C73622372   6.171   0.226   3.766 -0.1039 -0.5592  0.1615
   19MOL   C73722373   6.134   0.163   3.907 -0.6688  0.1504  0.4958
   19MOL   C73822374   6.041   0.256   3.984  0.4054 -0.1794 -0.5175
   19MOL   C73922375   6.001   0.206   4.121  0.3673  0.3907  0.1957
   19MOL   C74022376   5.972   0.314   4.228 -0.0650 -0.4401  0.0191
   19MOL   C74122377   5.975   0.260   4.371 -1.0930 -0.0746 -0.1479
   19MOL   C74222378   5.848   0.193   4.417  0.3402  0.0129  0.1131
   19MOL   C74322379   5.843   0.127   4.558  0.9633  0.3477  1.3404
   19MOL   C74422380   5.839   0.229   4.676 -0.1550  0.6603  0.2280
   19MOL   O74522381   5.749   0.308   4.696 -0.3683 -0.0464 -0.3264
   19MOL   H74622382   7.187   7.119   3.418  0.2374 -0.6411 -0.9064
   19MOL   H74722383   7.314   7.197   3.330 -0.3076 -0.9790 -0.2713
   19MOL   H74822384   7.279   7.332   3.532  1.5979 -3.6046 -1.2293
   19MOL   H74922385   7.217   7.420   3.393 -2.5241  1.0314  0.2872
   19MOL   H75022386   6.989   7.360   3.466  0.2947 -0.1637 -0.5898
   19MOL   H75122387   7.043   7.262   3.589 -1.9921 -0.3302  0.6258
   19MOL   H75222388   7.149   7.447   3.709 -0.2184 -1.2869  0.1845
   19MOL   H75322389   7.108   7.561   3.588 -0.9784 -0.2022 -0.4727
   19MOL   H75422390   6.887   7.403   3.735 -0.2233  0.6882  1.6658
   19MOL   H75522391   6.877   7.522   3.606  0.7702 -0.9255  0.1286
   19MOL   H75622392   6.961   7.692   3.750 -1.3742 -1.2702 -2.2421
   19MOL   H75722393   7.007   7.569   3.875  0.9752 -0.4066 -0.6324
   19MOL   H75822394   6.804   7.692   3.959  1.3053 -0.5507  0.8146
   19MOL   H75922395   6.758   7.531   3.919 -3.6801  2.3044 -0.3328
   19MOL   H76022396   6.690   7.604   3.699  1.5030  0.7193 -1.5611
   19MOL   H76122397   6.743   0.015   3.730  1.4616 -1.3265 -0.0644
   19MOL   H76222398   6.503   7.626   3.855 -0.4497 -0.7880  0.4550
   19MOL   H76322399   6.572   0.025   3.907  0.5359 -0.6387  0.2076
   19MOL   H76422400   6.527   0.090   3.658  1.4283 -2.6194 -1.2650
   19MOL   H76522401   6.440   7.690   3.640 -0.0605 -0.7397  0.4825
   19MOL   H76622402   6.090   0.235   3.693 -0.7856 -4.2207  0.3760
   19MOL   H76722403   6.206   0.328   3.785  0.5766 -0.3743 -1.9132
   19MOL   H76822404   6.228   0.160   3.962  1.3668  0.3830 -2.8872
   19MOL   H76922405   6.092   0.065   3.887 -1.9458  1.1502 -1.9483
   19MOL   H77022406   5.955   0.277   3.920  0.7736  1.7012 -0.4465
   19MOL   H77122407   6.098   0.349   3.994  0.6727 -0.3827 -0.1611
   19MOL   H77222408   6.083   0.140   4.149 -1.0694 -1.3180  0.4936
   19MOL   H77322409   5.915   0.139   4.121  0.9251 -0.3254 -0.4313
   19MOL   H77422410   6.046   0.394   4.224 -1.2136  0.6029 -0.5933
   19MOL   H77522411   5.873   0.358   4.215  1.3612  2.5690 -1.0873
   19MOL   H77622412   6.059   0.193   4.389  0.8610  2.4122  0.4157
   19MOL   H77722413   6.000   0.343   4.438 -0.4765 -0.6331  0.3231
   19MOL   H77822414   5.824   0.116   4.343 -2.9489  1.8176 -0.7861
   19MOL   H77922415   5.763   0.261   4.420 -0.9069 -1.5972  2.5454
   19MOL   H78022416   5.757   0.063   4.581  0.0813  0.8047 -0.6136
   19MOL   H78122417   5.929   0.060   4.557  0.6769 -0.0258  1.1667
   19MOL   O78222418   5.945   0.217   4.754  0.0542 -0.0654 -0.2661
   19MOL   C78322419   5.956   0.298   4.874 -0.8254  0.0910  0.9517
   19MOL   C78422420   6.011   0.445   4.849  0.5610 -0.0044 -0.5700
   19MOL   C78522421   5.980   0.545   4.957  0.3865 -0.1428 -0.2837
   19MOL   C78622422   6.041   0.683   4.925  0.3427  0.4734 -0.3559
   19MOL   C78722423   6.008   0.792   5.030  0.2206  0.5510  0.6586
   19MOL   C78822424   6.068   0.927   4.998  0.9092 -0.3454 -0.7282
   19MOL   C78922425   6.006   1.039   5.088  0.1451  0.1999 -0.6174
   19MOL   C79022426   6.024   1.181   5.041  0.0675 -0.3777 -0.1416
   19MOL   C79122427   5.925   1.226   4.927  0.6460 -0.1400 -0.5853
   19MOL   C79222428   5.907   1.382   4.916 -0.8332  0.3283  1.1435
   19MOL   O79322429   6.041   1.449   4.907  0.1319 -0.2643  0.3421
   19MOL   C79422430   6.042   1.578   4.879  0.2987 -0.2333 -0.2437
   19MOL   O79522431   5.943   1.649   4.889 -0.3588 -0.7844  0.5390
   19MOL   C79622432   6.172   1.639   4.827 -0.5785  0.1057 -0.1182
   19MOL   C79722433   6.190   1.645   4.674  0.2010  0.0784  0.5691
   19MOL   C79822434   6.085   1.721   4.594 -0.4524 -0.4296  0.2339
   19MOL   C79922435   6.111   1.708   4.446  0.3471 -0.4209  0.1032
   19MOL   C80022436   5.991   1.739   4.354  0.6145  0.0451  0.2791
   19MOL   C80122437   6.030   1.757   4.210 -0.0151  0.5615  0.1123
   19MOL   C80222438   5.920   1.799   4.114 -0.1444  0.2489  0.6315
   19MOL   C80322439   5.976   1.839   3.979  0.1267 -0.4807 -0.0247
   19MOL   C80422440   6.008   1.985   3.964 -0.8437 -0.0438  1.0586
   19MOL   O80522441   5.955   2.045   3.869  0.1104  0.0682 -0.4206
   19MOL   H80622442   5.858   0.302   4.922 -1.5946 -0.9735 -0.5114
   19MOL   H80722443   6.022   0.255   4.949 -1.0686  0.3348  1.3111
   19MOL   H80822444   6.117   0.427   4.833  0.3815 -1.8457  0.1369
   19MOL   H80922445   5.972   0.480   4.754  2.4483 -0.2389 -1.4414
   19MOL   H81022446   5.876   0.546   4.989  0.3012 -0.7405 -0.5367
   19MOL   H81122447   6.028   0.507   5.047 -0.9906  0.3433  0.6685
   19MOL   H81222448   6.150   0.676   4.921  0.4254  1.9543 -1.5225
   19MOL   H81322449   6.004   0.717   4.828 -2.4046 -0.6015  0.2769
   19MOL   H81422450   6.046   0.757   5.127 -1.9208 -1.3002  0.8839
   19MOL   H81522451   5.900   0.807   5.038  0.2124  1.4692 -1.0686
   19MOL   H81622452   6.041   0.955   4.896 -2.1238 -0.1001  0.0864
   19MOL   H81722453   6.176   0.922   5.003  0.8083 -1.1809  0.9466
   19MOL   H81822454   6.037   1.027   5.192  1.7285  0.5204 -1.0284
   19MOL   H81922455   5.901   1.014   5.094  0.5195 -1.4858 -0.7530
   19MOL   H82022456   6.125   1.206   5.006  0.3379  0.8243  1.4869
   19MOL   H82122457   6.018   1.246   5.128  1.3041  0.0810 -0.3919
   19MOL   H82222458   5.962   1.178   4.837  2.0520 -1.0652  0.4686
   19MOL   H82322459   5.831   1.182   4.960  0.4178 -0.7655 -2.0485
   19MOL   H82422460   5.840   1.413   4.836 -0.6738  0.1825  0.9516
   19MOL   H82522461   5.856   1.420   5.004 -1.9368  0.0986  0.6097
   19MOL   H82622462   6.250   1.576   4.871 -1.9298 -0.7383  1.1170
   19MOL   H82722463   6.204   1.734   4.871  0.3371 -0.7543  1.1312
   19MOL   H82822464   6.182   1.541   4.640 -2.5260  0.0938  1.0167
   19MOL   H82922465   6.292   1.680   4.661 -0.5365  1.7090 -0.9746
   19MOL   H83022466   6.075   1.826   4.621  0.3280 -0.2378 -0.2201
   19MOL   H83122467   5.986   1.679   4.613 -1.3594  2.0001  0.9983
   19MOL   H83222468   6.147   1.610   4.414 -1.4872 -1.9057  2.4264
   19MOL   H83322469   6.193   1.777   4.426  0.6000 -0.3794  1.2625
   19MOL   H83422470   5.907   1.671   4.365 -0.7271  1.9361  2.1837
   19MOL   H83522471   5.941   1.833   4.380 -0.2078 -0.2691 -0.1751
   19MOL   H83622472   6.121   1.818   4.211  1.9675 -2.2818  0.5761
   19MOL   H83722473   6.066   1.661   4.173  0.6454  1.2298 -1.0412
   19MOL   H83822474   5.865   1.882   4.160 -0.1790  0.5373  0.0714
   19MOL   H83922475   5.845   1.721   4.102 -1.9079  2.0426 -0.2938
   19MOL   H84022476   6.069   1.793   3.944  0.6867  0.0524  0.7383
   19MOL   H84122477   5.906   1.811   3.900 -0.3974 -2.0998  0.9835
   19MOL   O84222478   6.088   2.040   4.062  0.3171  0.5331 -0.0428
   19MOL   C84322479   6.083   2.180   4.081  0.1456 -0.4303  0.3625
   19MOL   C84422480   5.980   2.232   4.185  0.5989 -0.5736 -0.5706
   19MOL   C84522481   5.994   2.157   4.314  0.1711  0.3545  0.3283
   19MOL   C84622482   5.872   2.200   4.398 -0.3297 -0.1758 -0.2229
   19MOL   C84722483   5.876   2.134   4.537 -0.0775 -0.4697 -0.1145
   19MOL   C84822484   5.764   2.180   4.637  0.1050 -0.1053 -0.1336
   19MOL   C84922485   5.771   2.325   4.679  0.0863  0.4025  0.0514
   19MOL   C85022486   5.642   2.370   4.757 -0.6269  0.1501  0.0677
   19MOL   C85122487   5.628   2.524   4.777  0.0387  0.7842  0.4957
   19MOL   C85222488   5.529   2.557   4.886 -0.4126  0.4436 -0.1488
   19MOL   O85322489   5.393   2.522   4.856  0.5281 -0.4616 -0.0536
   19MOL   C85422490   5.294   2.600   4.901  0.9471 -0.3287 -0.2972
   19MOL   O85522491   5.312   2.706   4.967 -0.3227 -0.1551  0.2043
   19MOL   C85622492   5.155   2.561   4.853 -0.4279 -0.3207  0.0583
   19MOL   C85722493   5.136   2.619   4.711 -0.7062  0.9536  0.2809
   19MOL   C85822494   5.106   2.773   4.723  0.3354  0.8352  0.1207
   19MOL   C85922495   5.013   2.830   4.615 -0.2397 -0.0775  0.3897
   19MOL   C86022496   5.010   2.982   4.641 -0.2639  1.3021  0.0102
   19MOL   C86122497   4.909   3.063   4.568 -0.7800  0.3602 -0.6973
   19MOL   C86222498   4.919   3.215   4.611  0.5300  0.4379  0.4991
   19MOL   C86322499   5.038   3.286   4.538  0.2641  0.0935 -0.3835
   19MOL   C86422500   5.068   3.427   4.603 -0.3464 -0.5335 -0.2473
   19MOL   O86522501   5.160   3.496   4.564 -0.1213  0.7616  0.2470
   19MOL   H86622502   6.173   2.231   4.118 -1.2183 -0.3490  3.8039
   19MOL   H86722503   6.071   2.236   3.989  1.2253 -0.4919  0.1751
   19MOL   H86822504   5.987   2.339   4.206  2.1390 -1.0646  1.6017
   19MOL   H86922505   5.887   2.219   4.130 -1.6963  1.0013  2.7666
   19MOL   H87022506   6.000   2.051   4.289  0.3446  1.0158 -2.6688
   19MOL   H87122507   6.082   2.178   4.375  1.0277  1.4578 -1.2687
   19MOL   H87222508   5.886   2.308   4.410  1.8913 -0.4996  0.4336
   19MOL   H87322509   5.780   2.181   4.344 -1.5545  1.4081  1.2485
   19MOL   H87422510   5.971   2.151   4.587 -0.3010 -1.1365  0.5489
   19MOL   H87522511   5.862   2.026   4.525  0.5660 -0.5923  0.2142
   19MOL   H87622512   5.765   2.124   4.731 -2.1218  1.1655  0.6947
   19MOL   H87722513   5.662   2.159   4.605 -0.5872  2.1048  0.5208
   19MOL   H87822514   5.791   2.392   4.596 -2.6245  2.0018  0.6221
   19MOL   H87922515   5.852   2.348   4.748  0.8983  0.7857 -1.0125
   19MOL   H88022516   5.650   2.320   4.854 -0.6205  4.2341  2.2754
   19MOL   H88122517   5.559   2.334   4.696  0.6346  0.2423 -1.7415
   19MOL   H88222518   5.731   2.557   4.795 -0.0479  2.0148 -1.1771
   19MOL   H88322519   5.588   2.558   4.681 -2.0528 -0.0365  1.0568
   19MOL   H88422520   5.563   2.514   4.981  0.1392  0.7730 -0.1920
   19MOL   H88522521   5.532   2.665   4.901 -2.2926  0.1534  2.7583
   19MOL   H88622522   5.070   2.592   4.913  0.7621  2.6341  0.2868
   19MOL   H88722523   5.139   2.454   4.840 -2.0556  0.1001 -1.5623
   19MOL   H88822524   5.062   2.550   4.671 -0.7356  0.7970  0.5988
   19MOL   H88922525   5.222   2.615   4.644  0.0779  0.0829  1.3201
   19MOL   H89022526   5.203   2.821   4.717  0.5004  0.5559  0.5435
   19MOL   H89122527   5.062   2.800   4.819  0.5284 -0.9501  0.7303
   19MOL   H89222528   4.910   2.796   4.612 -0.8747  1.8269 -0.5492
   19MOL   H89322529   5.054   2.811   4.515  0.8324 -1.7865  1.1194
   19MOL   H89422530   4.998   2.995   4.748  0.4529 -1.5615  0.5000
   19MOL   H89522531   5.110   3.021   4.623  0.7992 -0.9715  0.7218
   19MOL   H89622532   4.919   3.062   4.460 -0.4046  1.1563 -0.6771
   19MOL   H89722533   4.816   3.018   4.603 -0.7175  2.2065  2.0004
   19MOL   H89822534   4.922   3.222   4.720 -0.7622 -0.5864  0.6230
   19MOL   H89922535   4.820   3.259   4.596  0.1907 -0.3115  0.4783
   19MOL   H90022536   5.128   3.230   4.565 -1.8742 -1.7922  3.1229
   19MOL   H90122537   5.022   3.290   4.431 -0.1613  1.7638 -0.2698
   19MOL   O90222538   4.970   3.468   4.676 -0.2578  0.2167 -0.4520
   19MOL   C90322539   4.965   3.605   4.707  0.2563  0.3991  0.2996
   19MOL   C90422540   4.831   3.634   4.778 -0.9421 -0.1787 -0.6100
   19MOL   C90522541   4.827   3.776   4.828 -0.1736  0.8215 -0.0624
   19MOL   C90622542   4.850   3.887   4.721 -0.1612 -0.3449 -0.5530
   19MOL   C90722543   4.849   4.031   4.774  0.0030 -0.6904 -0.2225
   19MOL   C90822544   4.880   4.133   4.665 -0.5879 -0.1222  0.3380
   19MOL   C90922545   4.885   4.275   4.710  0.3283 -0.5620 -0.4224
   19MOL   C91022546   4.847   4.377   4.601 -0.4633  0.0169 -0.8366
   19MOL   C91122547   4.971   4.449   4.544 -0.1980  0.6815 -0.8559
   19MOL   C91222548   5.061   4.356   4.459  0.5821 -0.2738  0.2401
   19MOL   O91322549   4.986   4.296   4.354 -0.2786 -0.2789 -0.1865
   19MOL   C91422550   5.064   4.240   4.259  0.3233  0.5846  0.3172
   19MOL   O91522551   5.189   4.242   4.265  0.1037 -0.0605  0.1526
   19MOL   C91622552   4.985   4.184   4.142 -0.1770 -0.2927  0.0107
   19MOL   C91722553   4.878   4.085   4.193  0.5011  0.4244 -0.3442
   19MOL   C91822554   4.930   3.958   4.266  0.1331 -0.3156 -0.2153
   19MOL   C91922555   4.804   3.877   4.295  0.8280  0.7708  1.2751
   19MOL   C92022556   4.832   3.733   4.334  0.6714 -0.3658  0.1399
   19MOL   C92122557   4.716   3.641   4.322  0.1939  0.4344  0.2810
   19MOL   C92222558   4.736   3.500   4.369 -0.4781 -0.4921 -0.6499
   19MOL   C92322559   4.612   3.403   4.348  0.3267  0.3406 -0.7534
   19MOL   C92422560   4.601   3.364   4.204 -0.0640 -0.0265  0.6708
   19MOL   O92522561   4.511   3.399   4.127  0.0576 -0.0564  0.3474
   19MOL   H92622562   5.055   3.636   4.759  0.0282  2.2891 -0.3632
   19MOL   H92722563   4.969   3.655   4.610  0.9029 -1.0668 -0.4313
   19MOL   H92822564   4.742   3.621   4.717 -1.2661 -2.0377  0.2134
   19MOL   H92922565   4.813   3.573   4.866  2.1312 -0.5595 -0.1920
   19MOL   H93022566   4.727   3.795   4.865 -0.4618 -0.5308 -0.1336
   19MOL   H93122567   4.887   3.794   4.918  0.3183  0.0037 -0.2218
   19MOL   H93222568   4.945   3.874   4.671  0.2050  3.4115 -0.9697
   19MOL   H93322569   4.767   3.885   4.651 -0.8723 -0.5601  0.2844
   19MOL   H93422570   4.926   4.029   4.851  0.0069 -1.7886 -0.2489
   19MOL   H93522571   4.751   4.055   4.815 -0.9900 -3.0105 -1.1308
   19MOL   H93622572   4.804   4.111   4.590 -1.6444 -2.2326  1.9534
   19MOL   H93722573   4.966   4.111   4.602 -0.0982 -0.6044  1.1734
   19MOL   H93822574   4.984   4.301   4.747  0.3507 -1.6746  0.3276
   19MOL   H93922575   4.819   4.289   4.795 -0.2247 -0.2609 -0.8967
   19MOL   H94022576   4.779   4.448   4.648 -0.1092 -0.6714  0.7243
   19MOL   H94122577   4.772   4.349   4.526  0.8331  2.0753 -2.9512
   19MOL   H94222578   4.945   4.535   4.482  1.0818  1.0760 -0.8638
   19MOL   H94322579   5.035   4.490   4.622 -1.6737 -1.2314  1.4114
   19MOL   H94422580   5.147   4.417   4.431 -0.6018  0.3468 -2.2115
   19MOL   H94522581   5.096   4.276   4.524  2.4603  0.2847 -0.0507
   19MOL   H94622582   5.056   4.133   4.077  0.7791  1.7620 -0.6023
   19MOL   H94722583   4.939   4.265   4.085 -3.4518 -2.0998 -0.0297
   19MOL   H94822584   4.812   4.055   4.113 -1.5784  0.7934  1.1932
   19MOL   H94922585   4.803   4.142   4.247  1.6282  1.6293 -0.0125
   19MOL   H95022586   4.998   3.986   4.346 -1.9861  2.4201  0.7352
   19MOL   H95122587   4.988   3.901   4.194  0.8318 -0.1049  0.1769
   19MOL   H95222588   4.743   3.870   4.205  1.3656  1.6941  0.8190
   19MOL   H95322589   4.749   3.920   4.379  0.1567 -0.4047  1.4425
   19MOL   H95422590   4.895   3.710   4.248  0.4958 -0.1923 -0.0352
   19MOL   H95522591   4.879   3.726   4.432 -1.5937  0.0117  1.2867
   19MOL   H95622592   4.651   3.693   4.393 -0.3698  2.2512 -1.5201
   19MOL   H95722593   4.680   3.654   4.220  0.6981  1.3031  0.2063
   19MOL   H95822594   4.745   3.501   4.478  2.5185  1.2087 -0.8285
   19MOL   H95922595   4.828   3.455   4.332 -0.1713 -0.9920  0.6897
   19MOL   H96022596   4.632   3.318   4.412 -1.4761 -0.4907 -1.2565
   19MOL   H96122597   4.521   3.447   4.389  1.4357  2.1768 -0.2160
   19MOL   O96222598   4.692   3.268   4.183 -0.5131  0.0533  0.0587
   19MOL   C96322599   4.700   3.209   4.054 -0.1158 -0.4478  0.0389
   19MOL   C96422600   4.694   3.059   4.073 -0.3635  0.4364 -0.0325
   19MOL   C96522601   4.818   2.995   4.129  0.5092 -0.5739  0.0722
   19MOL   C96622602   4.808   2.841   4.136  0.6970  0.2735  0.1472
   19MOL   C96722603   4.931   2.758   4.148 -0.0705  0.0363 -0.1032
   19MOL   C96822604   4.889   2.611   4.156 -0.3082  0.3226 -0.1590
   19MOL   C96922605   5.010   2.524   4.175  0.5059 -0.2008 -0.0159
   19MOL   C97022606   4.977   2.387   4.239 -0.0031 -0.2769 -0.7304
   19MOL   C97122607   5.007   2.400   4.388 -0.2351 -0.2273  0.3691
   19MOL   C97222608   4.988   2.271   4.462  0.3227  0.0992 -0.2548
   19MOL   O97322609   5.074   2.162   4.419  0.1874 -0.1735  0.6504
   19MOL   C97422610   5.190   2.146   4.486  0.0723 -0.3205  0.9322
   19MOL   O97522611   5.226   2.210   4.586  0.1702 -0.0022  0.0732
   19MOL   C97622612   5.280   2.036   4.424 -0.3219  0.2822  0.2300
   19MOL   C97722613   5.428   2.048   4.464  0.0392 -0.3916  0.5121
   19MOL   C97822614   5.530   1.961   4.382 -0.6991 -0.0790 -0.0633
   19MOL   C97922615   5.489   1.816   4.372  0.1189 -0.1935 -0.5246
   19MOL   C98022616   5.594   1.738   4.288 -0.3628  0.3435 -0.1933
   19MOL   C98122617   5.573   1.585   4.296 -0.0568  0.4057  0.5329
   19MOL   C98222618   5.623   1.514   4.429  0.3350 -0.2390  0.0502
   19MOL   C98322619   5.598   1.365   4.421 -0.1851 -0.6225  0.6756
   19MOL   C98422620   5.655   1.286   4.540 -0.4801 -0.1461  0.3733
   19MOL   O98522621   5.754   1.331   4.597 -0.1271 -0.4164  0.3695
   19MOL   H98622622   4.607   3.230   4.000  0.0899  1.2666  0.3441
   19MOL   H98722623   4.790   3.250   4.009 -0.1474 -1.0345 -0.5653
   19MOL   H98822624   4.619   3.032   4.147  1.5091  0.9640  2.1346
   19MOL   H98922625   4.676   3.013   3.977  0.2802 -1.1376  0.5882
   19MOL   H99022626   4.900   3.028   4.064 -0.1744 -1.3698 -1.2128
   19MOL   H99122627   4.843   3.017   4.233  0.1609 -0.1455  0.0651
   19MOL   H99222628   4.737   2.823   4.217 -0.0864 -0.7024 -0.7347
   19MOL   H99322629   4.759   2.817   4.041  0.6151 -2.2743  0.7997
   19MOL   H99422630   4.989   2.790   4.235 -1.0848 -0.5948  0.8199
   19MOL   H99522631   4.992   2.782   4.061 -0.1970 -3.8497 -1.3503
   19MOL   H99622632   4.837   2.587   4.063 -0.7553 -1.2290  0.4806
   19MOL   H99722633   4.817   2.599   4.236  1.1305 -2.2891  0.8220
   19MOL   H99822634   5.078   2.576   4.242 -0.9070  0.6982  0.7519
   19MOL   H99922635   5.072   2.507   4.087 -0.1347 -1.4558 -0.2351
   19MOL     H122636   5.039   2.309   4.195  1.5889 -0.0435  1.0294
   19MOL     H222637   4.874   2.353   4.229 -1.6617  4.5265 -1.6364
   19MOL     H322638   5.107   2.440   4.405  0.5673 -1.8577 -0.3938
   19MOL     H422639   4.941   2.471   4.438 -0.3466 -0.5260  0.6473
   19MOL     H522640   5.002   2.278   4.570  0.8669 -0.4519 -0.2859
   19MOL     H622641   4.883   2.241   4.458  0.2603  0.0083  1.5641
   19MOL     H722642   5.269   2.030   4.316 -1.2497  1.4404  0.2458
   19MOL     H822643   5.229   1.952   4.472 -0.2780 -1.1813 -2.2324
   19MOL     H922644   5.445   2.013   4.566 -0.2193 -2.2316 -0.0446
   19MOL    H1022645   5.466   2.148   4.446  0.2567 -0.3444  1.2443
   19MOL    H1122646   5.629   1.953   4.426 -1.4505 -0.5825  1.5668
   19MOL    H1222647   5.544   2.007   4.284  1.4023 -1.2332 -0.3402
   19MOL    H1322648   5.384   1.801   4.344 -0.2461  2.4688 -0.7553
   19MOL    H1422649   5.489   1.770   4.470  2.6737  0.7802 -0.0385
   19MOL    H1522650   5.576   1.768   4.184  1.0900  0.4382 -0.4227
   19MOL    H1622651   5.699   1.753   4.312  0.2379 -2.0054 -1.2006
   19MOL    H1722652   5.469   1.552   4.302  0.3803 -1.5861 -1.8035
   19MOL    H1822653   5.608   1.539   4.204  1.5185  0.3406  1.1536
   19MOL    H1922654   5.576   1.564   4.514 -0.6921 -2.6854  0.9562
   19MOL    H2022655   5.722   1.547   4.459 -0.3760  2.5347 -0.4865
   19MOL    H2122656   5.493   1.345   4.401  0.1887 -0.7114 -1.3232
   19MOL    H2222657   5.637   1.325   4.327  0.8257  0.3576  0.6654
   19MOL    O2322658   5.591   1.168   4.568  0.0015  0.2682 -0.3886
   19MOL    C2422659   5.637   1.081   4.674 -0.4197 -0.0316  0.4795
   19MOL    C2522660   5.560   1.119   4.800  0.0278 -0.3532  0.0940
   19MOL    C2622661   5.405   1.103   4.782 -0.0957  0.2856 -0.0783
   19MOL    C2722662   5.328   1.119   4.914  0.3516  0.1215 -0.3891
   19MOL    C2822663   5.176   1.109   4.908  0.5981 -0.1421 -0.0821
   19MOL    C2922664   5.111   1.154   5.040  0.2456  0.2142 -0.0569
   19MOL    C3022665   4.961   1.132   5.044  0.9724 -0.3701 -0.5048
   19MOL    C3122666   4.898   1.154   5.182 -0.2718 -0.3080  0.0619
   19MOL    C3222667   4.755   1.097   5.205 -0.1212  0.2580  0.5222
   19MOL    C3322668   4.654   1.149   5.097 -0.4281 -1.2579  0.2177
   19MOL    O3422669   4.524   1.097   5.093  0.7131 -0.0912 -0.3126
   19MOL    C3522670   4.508   0.983   5.026  0.0705  0.7883 -0.1497
   19MOL    O3622671   4.594   0.913   4.979  0.3689  0.1968  0.3326
   19MOL    C3722672   4.362   0.942   5.022  0.1042 -0.3531 -0.0318
   19MOL    C3822673   4.333   0.799   4.988 -0.4545 -0.3179 -0.3646
   19MOL    C3922674   4.359   0.768   4.845  0.3055  0.5238 -0.0045
   19MOL    C4022675   4.357   0.616   4.805 -0.0450 -0.8047  0.2741
   19MOL    C4122676   4.368   0.604   4.650 -0.0848  0.0665 -0.0069
   19MOL    C4222677   4.229   0.621   4.589  0.6718  0.0017  0.6710
   19MOL    C4322678   4.204   0.601   4.443  0.6057  0.1107  0.2033
   19MOL    C4422679   4.300   0.677   4.347  0.5597  0.0987 -0.7195
   19MOL    C4522680   4.275   0.827   4.341  0.7345 -0.1983  0.1647
   19MOL    O4622681   4.164   0.871   4.318 -0.3967 -0.0841 -0.0261
   19MOL    H4722682   5.610   0.979   4.649 -1.5989  0.6157 -1.0329
   19MOL    H4822683   5.745   1.081   4.689 -0.2684 -3.2514 -0.2224
   19MOL    H4922684   5.609   1.067   4.882 -0.4392 -0.4885  0.2905
   19MOL    H5022685   5.574   1.222   4.831 -0.6061 -0.8292  2.0034
   19MOL    H5122686   5.368   1.184   4.719 -0.1861  1.2957  1.2421
   19MOL    H5222687   5.377   1.011   4.731  2.2029  1.0142 -2.7700
   19MOL    H5322688   5.368   1.052   4.990  0.4726  0.7763  0.1308
   19MOL    H5422689   5.351   1.222   4.942 -0.4046  0.1411  0.1623
   19MOL    H5522690   5.151   1.007   4.878 -0.3591  0.1450 -0.2663
   19MOL    H5622691   5.148   1.163   4.818  2.5895  0.4014 -0.4157
   19MOL    H5722692   5.133   1.260   5.052 -2.3959  0.7370  0.5284
   19MOL    H5822693   5.157   1.106   5.126 -0.2278 -0.0640  0.0423
   19MOL    H5922694   4.949   1.030   5.010  0.9021 -0.5709  0.1077
   19MOL    H6022695   4.916   1.204   4.976 -1.1392 -1.9769 -0.8728
   19MOL    H6122696   4.893   1.256   5.220  0.3285 -0.0466 -0.5404
   19MOL    H6222697   4.966   1.104   5.251  0.8159  1.6990  0.4693
   19MOL    H6322698   4.764   0.989   5.215 -0.1278  0.4141  2.5377
   19MOL    H6422699   4.720   1.131   5.303 -1.2508 -1.3396  0.7023
   19MOL    H6522700   4.657   1.258   5.095 -0.1724 -1.2778 -0.7205
   19MOL    H6622701   4.689   1.135   4.995 -1.1600 -1.2664 -0.0363
   19MOL    H6722702   4.312   1.017   4.961 -0.4940 -0.7972 -0.0852
   19MOL    H6822703   4.319   0.954   5.121  0.7129 -0.1138  0.2069
   19MOL    H6922704   4.230   0.767   5.009 -0.3486 -0.6909 -0.4070
   19MOL    H7022705   4.393   0.730   5.047 -2.3236 -2.0308 -0.4056
   19MOL    H7122706   4.452   0.810   4.809  0.3607  0.5451  0.1643
   19MOL    H7222707   4.274   0.812   4.793 -0.2757  0.1593  0.6261
   19MOL    H7322708   4.275   0.558   4.847  1.0403 -1.1036  2.0280
   19MOL    H7422709   4.451   0.573   4.839  0.3136  1.1306  1.8586
   19MOL    H7522710   4.436   0.684   4.619 -2.2866  2.1175  0.3335
   19MOL    H7622711   4.409   0.504   4.637 -2.9636 -1.3866  1.5351
   19MOL    H7722712   4.166   0.545   4.634 -0.4349  0.3960 -0.1817
   19MOL    H7822713   4.191   0.719   4.616 -0.7317 -0.2757 -0.2474
   19MOL    H7922714   4.099   0.626   4.425  0.9571  0.9319 -0.7316
   19MOL    H8022715   4.215   0.494   4.427 -1.9007 -0.3222  1.1121
   19MOL    H8122716   4.404   0.652   4.366  0.6784  1.6584  0.8127
   19MOL    H8222717   4.273   0.653   4.244 -2.4085 -3.1942  0.7028
   19MOL    O8322718   4.381   0.893   4.377 -0.6122 -0.8322  0.5186
   19MOL    C8422719   4.383   1.029   4.397  0.2153 -1.1098 -0.4929
   19MOL    C8522720   4.445   1.103   4.278 -0.1331 -0.4054 -0.4080
   19MOL    C8622721   4.604   1.076   4.270  0.5393  0.3990 -0.5879
   19MOL    C8722722   4.668   1.129   4.141  0.3024 -0.1847 -0.1763
   19MOL    C8822723   4.641   1.273   4.116  0.1541 -0.5754 -0.4550
   19MOL    C8922724   4.756   1.330   4.029  0.9420 -0.5630 -0.6922
   19MOL    C9022725   4.719   1.482   4.015 -0.4298  0.4352 -0.5343
   19MOL    C9122726   4.818   1.559   3.931  0.6102  0.1537  0.0606
   19MOL    C9222727   4.782   1.707   3.918 -0.0097 -0.0157  0.6745
   19MOL    C9322728   4.887   1.791   3.839 -0.1017 -0.4860  0.3259
   19MOL    O9422729   4.887   1.725   3.711  0.0311 -0.6864 -0.7254
   19MOL    C9522730   4.994   1.739   3.627 -0.3867  0.0391  0.0567
   19MOL    O9622731   5.099   1.793   3.651  0.3140 -0.7768 -0.1858
   19MOL    C9722732   4.964   1.672   3.493  0.3006  0.4057  0.7866
   19MOL    C9822733   4.929   1.519   3.515 -0.3708 -0.6807  0.6233
   19MOL    C9922734   5.049   1.440   3.573 -0.7274 -0.2333 -0.5432
   19MOL   C10022735   4.991   1.306   3.632  0.4676  0.0538  0.3278
   19MOL   C10122736   5.075   1.258   3.753  0.1520 -0.4762 -0.5187
   19MOL   C10222737   5.018   1.124   3.797 -0.4369 -0.0267 -0.0630
   19MOL   C10322738   5.050   1.080   3.941  0.0674  0.2588 -0.4636
   19MOL   C10422739   5.035   0.928   3.980 -0.0176 -0.0007 -0.4557
   19MOL   C10522740   5.130   0.842   3.903  0.7437 -0.7309  0.8482
   19MOL   O10622741   5.096   0.732   3.862  0.2477  0.1921 -0.0470
   19MOL   H10722742   4.284   1.065   4.425  0.6826 -0.1582 -0.0471
   19MOL   H10822743   4.446   1.031   4.486  1.6211  1.4252 -1.4907
   19MOL   H10922744   4.385   1.079   4.190 -0.6772 -0.3737 -0.0443
   19MOL   H11022745   4.425   1.209   4.292 -0.8367 -0.6255  0.2232
   19MOL   H11122746   4.648   1.113   4.362  0.2930 -1.0476  0.1237
   19MOL   H11222747   4.614   0.968   4.283  0.8979  0.3039 -1.5987
   19MOL   H11322748   4.776   1.110   4.146  0.5635  1.3716  0.2002
   19MOL   H11422749   4.626   1.062   4.066 -1.0545  0.9107 -0.3978
   19MOL   H11522750   4.649   1.328   4.210  0.5259 -0.1555 -0.7252
   19MOL   H11622751   4.542   1.285   4.073 -0.2633  0.1963  0.6989
   19MOL   H11722752   4.760   1.285   3.930  0.6297 -1.0228 -0.4959
   19MOL   H11822753   4.859   1.310   4.059  0.5165 -3.3220 -0.9422
   19MOL   H11922754   4.703   1.529   4.112  0.7876 -0.0834 -0.0775
   19MOL   H12022755   4.624   1.498   3.965 -1.0921 -0.3593  0.4478
   19MOL   H12122756   4.810   1.509   3.834 -2.7975 -2.3226  1.4865
   19MOL   H12222757   4.920   1.550   3.967  1.0591  2.3775 -0.5664
   19MOL   H12322758   4.689   1.720   3.863  0.1264  3.0862  1.0869
   19MOL   H12422759   4.761   1.756   4.013 -0.4749 -1.7725  1.5081
   19MOL   H12522760   4.866   1.898   3.834 -0.3986 -0.6089 -1.5084
   19MOL   H12622761   4.982   1.783   3.890  1.9379  2.4759 -2.7557
   19MOL   H12722762   5.055   1.675   3.433 -0.8277 -0.5436 -0.9944
   19MOL   H12822763   4.881   1.723   3.445  0.4412 -1.0870 -1.0753
   19MOL   H12922764   4.878   1.484   3.425  0.6723 -0.2016 -0.1706
   19MOL   H13022765   4.853   1.511   3.593 -0.0078 -3.0287  0.7812
   19MOL   H13122766   5.095   1.492   3.657 -0.1328 -2.5320  0.6038
   19MOL   H13222767   5.128   1.418   3.501  0.9994  3.5928  0.0578
   19MOL   H13322768   4.993   1.237   3.547 -1.8217 -1.5915  1.5557
   19MOL   H13422769   4.887   1.324   3.658 -0.0659 -0.5578 -1.2531
   19MOL   H13522770   5.179   1.252   3.724  0.3345 -1.3666  0.3081
   19MOL   H13622771   5.066   1.328   3.836  1.1750 -1.9618  0.8815
   19MOL   H13722772   4.910   1.116   3.793 -0.6429 -0.3149  4.0200
   19MOL   H13822773   5.055   1.048   3.728 -0.4306  0.5856 -0.7407
   19MOL   H13922774   4.991   1.132   4.015  1.9972  1.2206  0.4222
   19MOL   H14022775   5.150   1.119   3.957  0.7473 -1.4164 -0.4761
   19MOL   H14122776   5.054   0.931   4.088 -3.8236  1.1787  0.2598
   19MOL   H14222777   4.936   0.887   3.960 -1.7638  3.6279  0.4106
   19MOL   O14322778   5.238   0.902   3.878 -0.0338  0.2450 -0.2625
   19MOL   C14422779   5.344   0.828   3.814  0.3117  0.2198  0.4505
   19MOL   C14522780   5.332   0.820   3.663 -0.1934 -0.6317 -0.2510
   19MOL   C14622781   5.331   0.955   3.592  0.0858  0.2543 -0.6171
   19MOL   C14722782   5.245   0.945   3.471  0.1925  0.2588 -0.4734
   19MOL   C14822783   5.227   1.072   3.392  0.0012  0.1283  0.3498
   19MOL   C14922784   5.107   1.066   3.292 -0.5458  0.3548 -0.3584
   19MOL   C15022785   5.119   1.175   3.184 -0.0273 -0.0147  0.1034
   19MOL   C15122786   5.006   1.162   3.086  0.2697  0.8957  0.2071
   19MOL   C15222787   5.032   1.220   2.950 -0.0119 -0.7322 -0.2794
   19MOL   C15322788   4.909   1.227   2.861 -0.1958 -1.0107 -0.1549
   19MOL   O15422789   4.894   1.321   2.760 -0.1728 -0.5103  0.1700
   19MOL   C15522790   4.960   1.306   2.646  0.1280  0.2922  0.2072
   19MOL   O15622791   5.028   1.214   2.616 -0.3132  0.3530 -0.0174
   19MOL   C15722792   4.948   1.427   2.556  0.2013 -0.3119  0.0702
   19MOL   C15822793   4.877   1.399   2.419  0.1946 -0.5630  0.1195
   19MOL   C15922794   4.720   1.389   2.433  0.1575  0.2582  0.2976
   19MOL   C16022795   4.642   1.432   2.302  0.1494 -0.1195 -0.1000
   19MOL   C16122796   4.642   1.580   2.267 -0.1945  0.1141  0.0664
   19MOL   C16222797   4.531   1.621   2.167  0.5326 -0.6877 -0.2641
   19MOL   C16322798   4.527   1.768   2.134 -0.2092 -0.0148  0.1239
   19MOL   C16422799   4.642   1.804   2.043 -0.5670  0.1287  0.0330
   19MOL   C16522800   4.622   1.766   1.901  0.4126  0.0285  0.1008
   19MOL   O16622801   4.660   1.660   1.854 -0.6127 -0.4377  0.2639
   19MOL   H16722802   5.441   0.874   3.834  0.6724 -0.3031 -0.0780
   19MOL   H16822803   5.345   0.727   3.853 -2.8450 -1.1844 -2.7961
   19MOL   H16922804   5.414   0.760   3.625  0.3662  0.8905 -1.5113
   19MOL   H17022805   5.249   0.756   3.634  0.0696 -1.0298 -0.1219
   19MOL   H17122806   5.290   1.037   3.650 -0.8127 -1.9815  2.0176
   19MOL   H17222807   5.433   0.987   3.569 -0.1434  1.1658 -0.3912
   19MOL   H17322808   5.293   0.870   3.408  1.3281 -0.7873  1.5808
   19MOL   H17422809   5.149   0.901   3.500  0.2806  0.0684 -0.4718
   19MOL   H17522810   5.319   1.092   3.338 -0.0686  0.4075  0.3339
   19MOL   H17622811   5.225   1.152   3.465  0.1008  0.2792  0.1876
   19MOL   H17722812   5.012   1.065   3.346 -1.3144 -2.2527 -1.6668
   19MOL   H17822813   5.102   0.971   3.239  1.1992  0.5966 -0.9857
   19MOL   H17922814   5.204   1.158   3.119  1.1607 -1.2070  1.9042
   19MOL   H18022815   5.124   1.274   3.229 -1.7681  0.2106 -0.1591
   19MOL   H18122816   4.919   1.217   3.121  0.8044  1.2420  1.0096
   19MOL   H18222817   4.980   1.057   3.083  4.2253 -0.2472  2.5043
   19MOL   H18322818   5.071   1.321   2.958 -0.1501 -0.8257  1.8331
   19MOL   H18422819   5.116   1.164   2.908 -0.7760 -0.4618 -2.2113
   19MOL   H18522820   4.893   1.124   2.829  0.1153 -0.5457 -1.8774
   19MOL   H18622821   4.835   1.244   2.938  0.3980 -1.7813  0.5945
   19MOL   H18722822   5.051   1.458   2.539 -0.0223  0.4729  0.1325
   19MOL   H18822823   4.909   1.512   2.610  0.7038 -0.5836  0.8713
   19MOL   H18922824   4.915   1.305   2.380 -1.4898 -1.1010 -0.2518
   19MOL   H19022825   4.917   1.480   2.356 -0.5863 -0.4709 -0.2695
   19MOL   H19122826   4.683   1.459   2.508  0.9593  0.4556  0.5158
   19MOL   H19222827   4.696   1.286   2.460 -2.1964  0.6411 -0.1958
   19MOL   H19322828   4.544   1.389   2.320  0.7132 -1.1566  0.5029
   19MOL   H19422829   4.682   1.373   2.220 -0.9378  0.0312 -0.7568
   19MOL   H19522830   4.634   1.639   2.358 -0.2688  1.0188 -0.5211
   19MOL   H19622831   4.732   1.598   2.207 -0.6698 -1.4993 -1.1873
   19MOL   H19722832   4.553   1.568   2.074  1.3102 -2.7003  1.0385
   19MOL   H19822833   4.427   1.594   2.181  0.2980 -0.2212 -1.0585
   19MOL   H19922834   4.530   1.809   2.235  1.2288  1.2104 -0.3918
   19MOL   H20022835   4.435   1.795   2.084  0.3113 -1.6945 -1.8462
   19MOL   H20122836   4.661   1.911   2.043 -0.4371  0.1066 -0.6139
   19MOL   H20222837   4.740   1.762   2.063  0.1126  0.9724 -1.4053
   19MOL   H20322838   4.565   1.836   1.840  0.4103  2.3304  2.6456
   20MOL     O122839   4.201   2.108   5.422  0.5629 -0.0749 -0.4229
   20MOL     C222840   4.144   1.982   5.409  0.5714  0.2613  0.2150
   20MOL     C322841   4.030   1.996   5.302  0.1590  0.2602 -0.4414
   20MOL     C422842   3.955   1.862   5.300 -0.1643 -0.2557 -0.3574
   20MOL     C522843   3.873   1.840   5.173 -0.2496 -0.1763  0.1060
   20MOL     C622844   3.815   1.701   5.184  0.5208 -1.0199  0.4570
   20MOL     C722845   3.702   1.684   5.074 -0.8211  0.2673 -0.1710
   20MOL     C822846   3.612   1.554   5.084 -0.0197 -0.7615 -0.1790
   20MOL     C922847   3.526   1.541   4.956 -0.0865 -0.1683 -0.3704
   20MOL    C1022848   3.427   1.425   4.951 -0.2264  0.4237 -0.1465
   20MOL    C1122849   3.347   1.400   4.821  0.2238  0.1116 -0.5359
   20MOL    O1222850   3.223   1.337   4.839  0.3945  0.0875 -0.7158
   20MOL    C1322851   3.152   1.292   4.735 -0.1359  0.1883  0.2060
   20MOL    O1422852   3.192   1.276   4.623  0.3199  0.0169 -0.3989
   20MOL    C1522853   3.022   1.233   4.785 -0.0961  0.0391  0.4310
   20MOL    C1622854   2.937   1.180   4.663  0.4487 -0.4685 -0.3007
   20MOL    C1722855   2.814   1.113   4.721 -0.7598  0.2210  0.6243
   20MOL    C1822856   2.844   0.985   4.800  0.2804  0.4124  0.4672
   20MOL    C1922857   2.721   0.898   4.829 -0.4937  0.2836 -0.2070
   20MOL    C2022858   2.759   0.786   4.934  0.2805  0.5742 -0.6658
   20MOL    C2122859   2.669   0.665   4.959 -0.1948 -0.0511 -0.5381
   20MOL    C2222860   2.518   0.691   4.969 -0.0670  0.2228  0.3939
   20MOL    C2322861   2.490   0.778   5.094 -0.7371 -0.5384 -0.0852
   20MOL    O2422862   2.453   0.728   5.202  0.1717  0.2345 -0.0890
   20MOL    H2522863   4.216   1.904   5.385 -1.3196 -1.0270 -1.4323
   20MOL    H2622864   4.106   1.958   5.508 -0.0934 -1.4316 -0.4337
   20MOL    H2722865   3.964   2.077   5.334 -0.1274 -0.1803  0.1181
   20MOL    H2822866   4.075   2.013   5.205 -0.4486  0.1289 -0.7483
   20MOL    H2922867   4.023   1.777   5.300 -0.0632 -0.2140  2.7204
   20MOL    H3022868   3.892   1.848   5.388  0.3634 -1.7391 -0.1984
   20MOL    H3122869   3.797   1.918   5.172  2.2883  2.3968 -2.7965
   20MOL    H3222870   3.939   1.835   5.087 -0.5742 -2.1674 -0.0618
   20MOL    H3322871   3.751   1.696   5.272  0.0913  0.9527  0.2854
   20MOL    H3422872   3.886   1.619   5.198  0.2952 -1.0375  1.5124
   20MOL    H3522873   3.747   1.697   4.975 -0.9132 -0.0971 -0.2602
   20MOL    H3622874   3.633   1.767   5.083 -0.0651  0.9408 -0.4849
   20MOL    H3722875   3.548   1.550   5.172 -0.5236  2.3397 -0.3580
   20MOL    H3822876   3.673   1.465   5.099 -0.8836 -1.2705  0.3366
   20MOL    H3922877   3.601   1.539   4.877  1.4428  4.0713  0.8314
   20MOL    H4022878   3.475   1.635   4.931 -0.5271 -0.0937  0.7666
   20MOL    H4122879   3.481   1.336   4.982 -1.3676 -0.2048  0.0758
   20MOL    H4222880   3.348   1.434   5.026 -0.6452 -0.1885 -0.5101
   20MOL    H4322881   3.329   1.488   4.758  2.7369  0.1706 -1.1897
   20MOL    H4422882   3.413   1.337   4.762 -0.4015 -0.7261 -0.3459
   20MOL    H4522883   2.970   1.319   4.827 -2.1261  0.5655 -2.9807
   20MOL    H4622884   3.045   1.156   4.859 -0.5525  0.2875  0.8280
   20MOL    H4722885   2.992   1.103   4.609  0.7988  1.2981 -2.5174
   20MOL    H4822886   2.918   1.256   4.587  2.4789  0.2983 -0.0549
   20MOL    H4922887   2.745   1.083   4.642  1.9906 -2.9257 -0.6807
   20MOL    H5022888   2.760   1.191   4.774 -0.1410  2.3426 -1.7460
   20MOL    H5122889   2.894   1.008   4.894  0.2631 -0.2767  0.6452
   20MOL    H5222890   2.911   0.910   4.758 -2.0930 -2.3829  1.5015
   20MOL    H5322891   2.638   0.956   4.870  1.1012  2.3473  0.2156
   20MOL    H5422892   2.693   0.858   4.731 -0.0133  2.4832 -1.2835
   20MOL    H5522893   2.862   0.753   4.919  0.7597  2.2629 -1.2103
   20MOL    H5622894   2.783   0.826   5.032  0.8438  0.6912 -0.8455
   20MOL    H5722895   2.699   0.614   5.050  0.8770 -0.2857 -1.0200
   20MOL    H5822896   2.682   0.605   4.869 -0.0569  2.6987 -2.4182
   20MOL    H5922897   2.478   0.731   4.877  3.0469  1.3457 -0.5343
   20MOL    H6022898   2.464   0.596   4.979 -1.7431  1.0291 -0.9212
   20MOL    H6122899   4.228   2.124   5.511 -2.9940  0.7546  0.5732
   20MOL    O6222900   2.485   0.904   5.068 -0.6503  0.1634  0.0791
   20MOL    C6322901   2.462   0.990   5.181  0.0236  0.2245  0.2222
   20MOL    C6422902   2.500   1.136   5.144  0.9637  0.7179 -0.2353
   20MOL    C6522903   2.643   1.167   5.088  0.0768  0.5514 -0.7209
   20MOL    C6622904   2.761   1.168   5.183  0.2755 -0.3291 -0.3063
   20MOL    C6722905   2.881   1.236   5.122  0.0780  0.1334 -0.0707
   20MOL    C6822906   2.984   1.272   5.232  0.8328 -0.2917  0.3560
   20MOL    C6922907   3.093   1.370   5.203 -0.1610  0.1734  0.0731
   20MOL    C7022908   3.164   1.402   5.333 -0.7479  0.1419  0.1565
   20MOL    C7122909   3.287   1.500   5.326 -0.7437 -0.4856 -0.5945
   20MOL    C7222910   3.386   1.510   5.449 -0.3657 -0.0858  0.5105
   20MOL    O7322911   3.471   1.623   5.434  0.0077 -0.5683 -0.1079
   20MOL    C7422912   3.562   1.649   5.535  0.0599  0.1856 -1.1904
   20MOL    O7522913   3.592   1.572   5.626 -0.8847 -0.3330  0.2700
   20MOL    C7622914   3.642   1.776   5.502  0.1285 -0.0253 -0.5369
   20MOL    C7722915   3.587   1.896   5.582  0.9411  0.5183 -0.0043
   20MOL    C7822916   3.616   1.894   5.737 -0.1227 -0.0418 -0.3827
   20MOL    C7922917   3.538   2.011   5.803  0.1670  0.0297 -0.1708
   20MOL    C8022918   3.566   2.032   5.953  0.3299 -0.2393 -0.2088
   20MOL    C8122919   3.475   2.147   6.009  0.5491 -0.8746 -0.1746
   20MOL    C8222920   3.472   2.153   6.166 -0.0754  0.1794  0.2241
   20MOL    C8322921   3.406   2.279   6.220  0.0063 -0.1022  0.6577
   20MOL    C8422922   3.471   2.367   6.334 -0.4726 -0.2888  0.5707
   20MOL    O8522923   3.593   2.365   6.350  0.5462  0.6065 -0.0256
   20MOL    H8622924   2.362   0.979   5.222 -0.3851  3.1410  0.0702
   20MOL    H8722925   2.530   0.959   5.261  0.1987  1.5067  0.5759
   20MOL    H8822926   2.417   1.166   5.080  0.3036 -0.7492 -0.0996
   20MOL    H8922927   2.489   1.199   5.233  1.3397  1.0257 -0.4085
   20MOL    H9022928   2.663   1.097   5.007 -1.9216 -0.2091 -0.5631
   20MOL    H9122929   2.627   1.265   5.043  0.7241  1.3166  0.7002
   20MOL    H9222930   2.733   1.222   5.274 -1.6563 -1.5388 -0.1644
   20MOL    H9322931   2.775   1.064   5.211  3.1085  0.2905  0.7753
   20MOL    H9422932   2.851   1.333   5.081  0.8801  0.8605  1.0385
   20MOL    H9522933   2.926   1.173   5.046 -0.2954  1.4622 -1.4384
   20MOL    H9622934   3.031   1.179   5.262 -0.7312  0.0960  4.2831
   20MOL    H9722935   2.940   1.303   5.327  0.6463 -2.0441  0.8659
   20MOL    H9822936   3.048   1.464   5.174  0.9875  0.0959 -2.1001
   20MOL    H9922937   3.160   1.345   5.120  0.3422  0.7556  0.3052
   20MOL   H10022938   3.204   1.318   5.390  0.5499  1.5382  1.3527
   20MOL   H10122939   3.096   1.453   5.401  0.2069  0.4487  0.8861
   20MOL   H10222940   3.343   1.472   5.237  0.6165  0.9891 -0.2256
   20MOL   H10322941   3.252   1.603   5.317 -1.8596 -0.6959  1.0550
   20MOL   H10422942   3.345   1.518   5.549  5.1557  1.0791  2.8623
   20MOL   H10522943   3.442   1.418   5.435 -1.1676 -0.6316  0.8665
   20MOL   H10622944   3.635   1.801   5.397 -1.1785  2.7396  0.1589
   20MOL   H10722945   3.744   1.759   5.538 -0.1068  0.0939  0.2133
   20MOL   H10822946   3.479   1.897   5.573  0.9602  0.2498 -0.2387
   20MOL   H10922947   3.617   1.979   5.519 -1.8141  0.6425 -1.2219
   20MOL   H11022948   3.723   1.882   5.753 -0.2484 -0.4605  0.1354
   20MOL   H11122949   3.575   1.804   5.782 -0.5447  0.4076  0.1399
   20MOL   H11222950   3.430   2.016   5.790 -0.2215 -1.1045  2.3427
   20MOL   H11322951   3.564   2.107   5.759  0.7390  1.0693  2.3743
   20MOL   H11422952   3.537   1.942   6.007  1.1966 -0.5740 -0.2985
   20MOL   H11522953   3.673   2.047   5.967  0.2395  0.2404  0.0082
   20MOL   H11622954   3.510   2.240   5.965 -0.9954  0.1048  0.6042
   20MOL   H11722955   3.370   2.131   5.983  1.0555 -1.5660 -1.8699
   20MOL   H11822956   3.579   2.165   6.185  0.1417  0.8445 -1.3738
   20MOL   H11922957   3.435   2.059   6.208  2.0894 -0.3531  1.0109
   20MOL   H12022958   3.400   2.345   6.133 -1.6398 -0.9235  0.1231
   20MOL   H12122959   3.306   2.245   6.247  0.0386  0.1402  1.0738
   20MOL   O12222960   3.380   2.440   6.403  0.6457 -0.1216 -0.5171
   20MOL   C12322961   3.420   2.538   6.498  0.5221 -0.3508 -0.6094
   20MOL   C12422962   3.321   2.530   6.613 -0.2099  0.4898  0.0588
   20MOL   C12522963   3.340   2.399   6.695  0.7330  0.1694 -0.2200
   20MOL   C12622964   3.480   2.386   6.757 -0.0112  0.7569  0.1275
   20MOL   C12722965   3.506   2.265   6.841 -0.3978 -0.4373 -0.0782
   20MOL   C12822966   3.638   2.285   6.915 -0.3337 -0.4750 -0.2400
   20MOL   C12922967   3.696   2.165   6.996  0.1589 -0.2257  0.6209
   20MOL   C13022968   3.838   2.183   7.054 -0.0273  0.3214 -0.0033
   20MOL   C13122969   3.842   2.289   7.161  0.0223  0.3763  0.2329
   20MOL   C13222970   3.976   2.286   7.241 -0.1758 -0.3615  0.8731
   20MOL   O13322971   3.994   2.159   7.306  0.2015 -0.4869  0.7191
   20MOL   C13422972   3.945   2.141   7.430 -0.6542 -0.2392  0.3091
   20MOL   O13522973   3.879   2.225   7.490  0.2342 -0.2135 -0.1272
   20MOL   C13622974   3.994   2.019   7.499 -0.6645 -0.0945 -0.1148
   20MOL   C13722975   3.957   1.881   7.438 -0.3893  0.0425  0.1504
   20MOL   C13822976   4.029   1.835   7.315  0.7636  0.0789 -0.4898
   20MOL   C13922977   3.985   1.692   7.273  0.4104  0.1263  1.0115
   20MOL   C14022978   4.066   1.632   7.162  0.1018 -0.3497 -0.4612
   20MOL   C14122979   4.024   1.497   7.109 -0.0925 -0.4674  0.3724
   20MOL   C14222980   4.117   1.468   6.989 -0.8298 -0.5607  0.1668
   20MOL   C14322981   4.082   1.339   6.902  0.3478  0.2728 -0.3026
   20MOL   C14422982   4.193   1.288   6.808 -0.0148 -0.4857 -0.0810
   20MOL   O14522983   4.230   1.172   6.818  0.4184 -0.0031 -0.2096
   20MOL   H14622984   3.525   2.534   6.527  1.1322 -4.2136 -2.9802
   20MOL   H14722985   3.410   2.636   6.450 -0.1055  0.3133  0.8338
   20MOL   H14822986   3.335   2.616   6.677  1.7643  1.4013 -1.5583
   20MOL   H14922987   3.215   2.533   6.589 -0.5987  0.8887  1.7759
   20MOL   H15022988   3.256   2.393   6.765  1.5827  0.4028  0.8391
   20MOL   H15122989   3.319   2.317   6.627  2.1483  0.0288 -0.4943
   20MOL   H15222990   3.557   2.394   6.679 -1.7059 -0.0258 -1.6665
   20MOL   H15322991   3.477   2.474   6.821 -0.8359 -0.2931  1.5621
   20MOL   H15422992   3.512   2.174   6.780  1.9767 -0.2452 -0.1646
   20MOL   H15522993   3.427   2.252   6.914 -1.5325 -0.5208 -1.2888
   20MOL   H15622994   3.640   2.366   6.988  2.7664  0.6894 -1.5398
   20MOL   H15722995   3.715   2.319   6.846 -0.8040 -1.2574 -1.1559
   20MOL   H15822996   3.702   2.079   6.929 -0.4139 -0.4190  0.8189
   20MOL   H15922997   3.627   2.135   7.074 -1.7622  1.2658 -0.4635
   20MOL   H16022998   3.917   2.194   6.979  0.5707 -0.3694  0.5158
   20MOL   H16122999   3.862   2.084   7.093 -0.4753  0.0832 -0.3232
   20MOL   H16223000   3.832   2.387   7.115 -1.0175  0.2643  0.2116
   20MOL   H16323001   3.761   2.271   7.233  1.5591  0.7249  2.0946
   20MOL   H16423002   4.064   2.302   7.179  1.2823 -0.8216  2.7649
   20MOL   H16523003   3.982   2.369   7.312 -1.9386  0.8305 -0.3411
   20MOL   H16623004   3.939   2.035   7.592 -1.2789  0.7754 -0.6209
   20MOL   H16723005   4.100   2.032   7.524 -0.0178 -4.6146 -0.1074
   20MOL   H16823006   3.850   1.859   7.432 -0.5260  0.9482 -0.7541
   20MOL   H16923007   3.977   1.813   7.521 -1.2444 -2.6040 -1.7267
   20MOL   H17023008   4.133   1.849   7.342 -0.2907  1.0744  3.4363
   20MOL   H17123009   4.009   1.900   7.229 -1.8638 -0.1899 -0.1426
   20MOL   H17223010   3.879   1.677   7.256  0.3934  0.9689  0.3149
   20MOL   H17323011   3.995   1.620   7.354 -3.4150  0.0648  1.4967
   20MOL   H17423012   4.066   1.689   7.070 -0.0308  0.4447  0.0285
   20MOL   H17523013   4.165   1.621   7.207 -0.2117 -0.1236  0.2874
   20MOL   H17623014   4.040   1.428   7.191  1.8501  1.1125  1.3676
   20MOL   H17723015   3.922   1.496   7.071  0.6561 -0.1240 -1.7283
   20MOL   H17823016   4.219   1.454   7.025 -0.5195 -0.9917 -0.8475
   20MOL   H17923017   4.127   1.550   6.918  1.4952 -0.9910 -0.0385
   20MOL   H18023018   4.034   1.261   6.962  3.2122 -1.0850  0.3119
   20MOL   H18123019   4.018   1.385   6.827 -2.8769 -1.2524  1.4051
   20MOL   O18223020   4.236   1.386   6.730  0.3436 -0.4024  0.8246
   20MOL   C18323021   4.366   1.371   6.674  0.1542 -0.8215  0.8509
   20MOL   C18423022   4.478   1.402   6.779 -0.4996  0.0657  0.1571
   20MOL   C18523023   4.512   1.555   6.809 -0.1869  0.4060  0.5190
   20MOL   C18623024   4.640   1.576   6.887  0.2109 -0.2892 -0.5102
   20MOL   C18723025   4.767   1.527   6.835 -0.0785  0.0496 -0.7228
   20MOL   C18823026   4.886   1.579   6.915 -0.2367  0.5382  0.3345
   20MOL   C18923027   5.020   1.527   6.866 -0.2758 -0.2298  0.1303
   20MOL   C19023028   5.136   1.610   6.915 -0.0750 -0.1648 -0.2910
   20MOL   C19123029   5.266   1.557   6.865  0.0372 -0.5448 -0.2315
   20MOL   C19223030   5.384   1.645   6.919 -0.9967  0.3788  0.1768
   20MOL   O19323031   5.389   1.617   7.058  0.0783  0.7233 -0.0911
   20MOL   C19423032   5.459   1.698   7.134  0.1159  0.4060  0.2314
   20MOL   O19523033   5.526   1.798   7.096  0.0676 -0.1179 -0.4936
   20MOL   C19623034   5.460   1.657   7.275 -0.7491 -0.4823 -0.9548
   20MOL   C19723035   5.409   1.770   7.367  0.2738  0.3087 -0.3684
   20MOL   C19823036   5.258   1.765   7.418 -0.3155  0.7218  0.7328
   20MOL   C19923037   5.227   1.856   7.524  0.1165 -0.1949  0.3481
   20MOL   C20023038   5.236   2.005   7.477 -0.4340  0.3960  0.7984
   20MOL   C20123039   5.148   2.045   7.354 -0.1077  0.8861  0.5962
   20MOL   C20223040   5.154   2.195   7.335  0.9000  0.6821  0.8064
   20MOL   C20323041   5.288   2.236   7.271 -0.1259  0.1497  0.1047
   20MOL   C20423042   5.310   2.385   7.277 -0.8702 -0.1454  0.1024
   20MOL   O20523043   5.401   2.431   7.349  0.5421  0.0256  0.2425
   20MOL   H20623044   4.377   1.272   6.630  2.0198  0.6064 -2.0325
   20MOL   H20723045   4.369   1.443   6.592  3.0850 -1.1350  0.6060
   20MOL   H20823046   4.467   1.339   6.867 -0.5991 -0.9797 -0.5936
   20MOL   H20923047   4.571   1.364   6.736 -0.4777  2.4232 -1.9367
   20MOL   H21023048   4.526   1.590   6.706 -2.3728 -1.7015 -0.5613
   20MOL   H21123049   4.426   1.604   6.854 -0.9142 -1.1169  0.8254
   20MOL   H21223050   4.660   1.683   6.892  1.5350 -0.6000  1.9083
   20MOL   H21323051   4.628   1.546   6.991  0.4637 -0.9339 -0.6594
   20MOL   H21423052   4.771   1.549   6.728 -0.1026 -0.7032 -0.8815
   20MOL   H21523053   4.767   1.420   6.855 -1.0788  0.2631  0.4375
   20MOL   H21623054   4.863   1.562   7.020 -2.9676  2.4405  0.1041
   20MOL   H21723055   4.875   1.687   6.902 -0.8590  0.6993  2.0227
   20MOL   H21823056   5.016   1.533   6.757  1.2281  0.7346  0.1170
   20MOL   H21923057   5.029   1.430   6.914 -1.6776 -0.9699 -1.0624
   20MOL   H22023058   5.134   1.600   7.024 -3.9364 -0.6471 -0.3374
   20MOL   H22123059   5.120   1.715   6.890 -0.7383 -0.3051 -0.4489
   20MOL   H22223060   5.293   1.454   6.884  0.4629 -0.3166  0.4078
   20MOL   H22323061   5.275   1.552   6.756 -0.1401 -0.1981 -0.2659
   20MOL   H22423062   5.477   1.610   6.873 -0.0172 -0.1632  2.4518
   20MOL   H22523063   5.377   1.751   6.895 -0.8118  0.2467 -0.4540
   20MOL   H22623064   5.563   1.632   7.299 -1.6964 -3.2196  0.4759
   20MOL   H22723065   5.405   1.563   7.283  2.3843 -2.2000  1.2942
   20MOL   H22823066   5.424   1.871   7.328  1.8376  0.5741  0.8811
   20MOL   H22923067   5.470   1.754   7.455 -2.0929  0.3925  1.3364
   20MOL   H23023068   5.232   1.671   7.465 -3.8659  1.3393  0.1053
   20MOL   H23123069   5.193   1.781   7.332 -1.1006 -0.9586  0.9989
   20MOL   H23223070   5.300   1.837   7.603  0.1028  0.1949  0.4583
   20MOL   H23323071   5.129   1.826   7.560  0.5933 -1.4381  0.5978
   20MOL   H23423072   5.205   2.068   7.561 -2.2841  0.6475 -0.0603
   20MOL   H23523073   5.341   2.027   7.455 -0.2828 -1.6610 -0.7014
   20MOL   H23623074   5.175   1.986   7.267 -0.5318 -2.4168  2.6227
   20MOL   H23723075   5.044   2.023   7.376  0.5420 -1.5056  1.3471
   20MOL   H23823076   5.147   2.238   7.435 -1.3415  0.3291  0.8349
   20MOL   H23923077   5.070   2.237   7.281  2.1393 -0.4026 -2.0789
   20MOL   H24023078   5.376   2.187   7.314 -1.0499 -1.2092  0.4927
   20MOL   H24123079   5.286   2.207   7.165 -0.4311 -0.8839  0.3829
   20MOL   O24223080   5.219   2.460   7.208  0.1612 -0.0848 -0.2670
   20MOL   C24323081   5.201   2.596   7.258 -0.4918  0.8683 -0.4977
   20MOL   C24423082   5.089   2.684   7.211  0.4364 -0.8193  1.0678
   20MOL   C24523083   5.101   2.824   7.260  0.0704  0.3012  0.4418
   20MOL   C24623084   4.980   2.900   7.195  0.7591  0.5182  0.3381
   20MOL   C24723085   4.979   3.046   7.245  0.2896  0.3955 -0.0818
   20MOL   C24823086   4.900   3.134   7.150 -0.5098  0.8350  0.1623
   20MOL   C24923087   4.919   3.280   7.181  0.5334 -0.1074 -0.0848
   20MOL   C25023088   4.862   3.329   7.311 -0.1659  0.2136 -0.3983
   20MOL   C25123089   4.829   3.481   7.314 -0.2193 -0.1550  0.4065
   20MOL   C25223090   4.700   3.521   7.244 -0.4725 -0.9369  0.1924
   20MOL   O25323091   4.695   3.669   7.242 -0.1708 -0.1755  0.0967
   20MOL   C25423092   4.615   3.729   7.147  0.4434  0.0690 -0.4214
   20MOL   O25523093   4.531   3.672   7.072 -0.4082  0.3056  0.0347
   20MOL   C25623094   4.639   3.880   7.156 -0.3862 -0.3223  0.0135
   20MOL   C25723095   4.645   3.930   7.303  0.2508 -0.2812  0.3728
   20MOL   C25823096   4.651   4.080   7.303  0.3661 -0.3599  0.6598
   20MOL   C25923097   4.701   4.134   7.439  0.3165 -0.1609  0.0800
   20MOL   C26023098   4.693   4.287   7.468 -0.7028 -0.0107 -0.2522
   20MOL   C26123099   4.753   4.328   7.603  0.0263  0.3937  0.7051
   20MOL   C26223100   4.792   4.479   7.612 -0.1572 -0.6577  0.3954
   20MOL   C26323101   4.683   4.582   7.599 -0.6441 -0.3000 -0.4899
   20MOL   C26423102   4.558   4.560   7.689 -0.1698 -0.2555  0.9555
   20MOL   O26523103   4.448   4.592   7.643 -0.0244  0.6806  0.1377
   20MOL   H26623104   5.195   2.597   7.367 -0.3054 -0.9484 -0.4534
   20MOL   H26723105   5.298   2.640   7.238  0.3944 -0.3514  0.9748
   20MOL   H26823106   5.086   2.679   7.102  0.5576 -1.5808  1.0932
   20MOL   H26923107   4.994   2.636   7.236  0.6357 -2.0469 -0.4408
   20MOL   H27023108   5.102   2.823   7.369  1.1286  1.0851  0.4454
   20MOL   H27123109   5.189   2.865   7.210 -1.1521  1.7160 -0.6281
   20MOL   H27223110   4.991   2.884   7.088  1.6559 -0.2095  0.5336
   20MOL   H27323111   4.885   2.847   7.209  0.7936  0.0404 -1.1345
   20MOL   H27423112   5.082   3.081   7.256  0.0272  2.2778 -2.9880
   20MOL   H27523113   4.927   3.035   7.340 -0.1723 -0.9337 -0.4788
   20MOL   H27623114   4.795   3.109   7.159 -0.6133  2.1181  3.4386
   20MOL   H27723115   4.931   3.128   7.046  1.6735  1.0695  0.7578
   20MOL   H27823116   4.871   3.339   7.103 -1.0411 -0.4879  0.5757
   20MOL   H27923117   5.026   3.300   7.183  0.6952 -0.8178 -1.2249
   20MOL   H28023118   4.919   3.296   7.398 -2.3176  1.4059  1.5424
   20MOL   H28123119   4.768   3.274   7.320  0.5617 -0.7548  1.4990
   20MOL   H28223120   4.832   3.523   7.414 -0.8433  3.6131 -1.0581
   20MOL   H28323121   4.915   3.522   7.261 -0.9443 -0.4213 -1.0099
   20MOL   H28423122   4.685   3.487   7.141 -1.6818 -0.1908  0.1161
   20MOL   H28523123   4.613   3.481   7.295  0.1218  0.3692  2.2633
   20MOL   H28623124   4.566   3.931   7.093 -0.4909  0.7824  1.0230
   20MOL   H28723125   4.741   3.894   7.119 -0.3770  0.0652  0.1817
   20MOL   H28823126   4.735   3.882   7.342  2.3450  0.0047 -3.7845
   20MOL   H28923127   4.566   3.893   7.368  0.9659 -1.4121  0.6019
   20MOL   H29023128   4.551   4.117   7.284 -0.4325 -2.8734 -0.1796
   20MOL   H29123129   4.714   4.121   7.224  1.0804  0.6149  1.7150
   20MOL   H29223130   4.804   4.100   7.449  0.4764 -0.3654 -2.1297
   20MOL   H29323131   4.629   4.089   7.507 -1.6742  0.8471 -1.3080
   20MOL   H29423132   4.748   4.338   7.388  0.2841  0.4698  0.7224
   20MOL   H29523133   4.587   4.310   7.457 -0.8099 -1.0743 -1.5963
   20MOL   H29623134   4.681   4.303   7.681  0.7955  0.0288  1.2997
   20MOL   H29723135   4.840   4.267   7.624  1.0640  1.8909  0.8212
   20MOL   H29823136   4.857   4.501   7.528  0.6508  0.0053  1.1814
   20MOL   H29923137   4.855   4.489   7.701  0.9925  2.6340 -0.7247
   20MOL   H30023138   4.713   4.680   7.637 -2.0292 -0.2683  0.5602
   20MOL   H30123139   4.654   4.592   7.495 -1.8281 -1.0519 -0.2304
   20MOL   O30223140   4.591   4.509   0.061  0.6070 -0.4465  0.0679
   20MOL   C30323141   4.479   4.498   0.149  0.8405  0.3019 -0.9073
   20MOL   C30423142   4.518   4.508   0.297  0.3172  0.0652  0.0762
   20MOL   C30523143   4.399   4.461   0.386  0.2060 -0.3544  0.2755
   20MOL   C30623144   4.435   4.427   0.529 -0.0086  0.2823 -0.8066
   20MOL   C30723145   4.315   4.404   0.621  0.0229  0.4595 -0.1723
   20MOL   C30823146   4.355   4.373   0.761  0.4099 -0.1542 -0.7518
   20MOL   C30923147   4.240   4.342   0.857 -0.1758 -0.2201 -0.0133
   20MOL   C31023148   4.269   4.369   1.003  0.6365  0.2507  0.0642
   20MOL   C31123149   4.145   4.352   1.095 -0.4238  0.1579 -0.1093
   20MOL   C31223150   4.174   4.370   1.246  1.3290 -0.3704 -0.2373
   20MOL   O31323151   4.230   4.246   1.291  0.3028  0.1320 -0.6859
   20MOL   C31423152   4.260   4.242   1.420 -0.4482 -0.2386 -0.0761
   20MOL   O31523153   4.263   4.334   1.499  0.1412 -0.4735  0.7715
   20MOL   C31623154   4.311   4.102   1.458  0.2994  0.3974 -0.0714
   20MOL   C31723155   4.208   4.008   1.531  0.5221  0.1962  0.0606
   20MOL   C31823156   4.073   4.014   1.459  0.6070  0.4712  0.4458
   20MOL   C31923157   3.973   3.912   1.516  0.1588 -0.3944  0.4602
   20MOL   C32023158   3.840   3.920   1.445  0.8660  0.2819 -1.2758
   20MOL   C32123159   3.735   3.833   1.505  0.2422 -0.2140  0.8642
   20MOL   C32223160   3.596   3.843   1.433 -0.3565 -0.0490 -0.4549
   20MOL   C32323161   3.521   3.958   1.477  0.0205 -0.9421 -0.0097
   20MOL   C32423162   3.455   3.935   1.614  0.3417  0.0454  0.6716
   20MOL   O32523163   3.359   3.859   1.619 -0.3299 -0.7274 -0.3368
   20MOL   H32623164   4.401   4.570   0.127 -0.6167 -0.9191  0.1136
   20MOL   H32723165   4.427   4.404   0.132  0.4012  0.3485  0.1319
   20MOL   H32823166   4.617   4.462   0.305  0.4855 -0.2747 -3.1086
   20MOL   H32923167   4.524   4.615   0.317 -0.9916 -0.0434  1.0655
   20MOL   H33023168   4.315   4.530   0.374  0.2722  0.1404  2.3880
   20MOL   H33123169   4.362   4.363   0.354 -0.1002 -0.1290 -0.0667
   20MOL   H33223170   4.499   4.339   0.531  1.7026  1.5429  2.4695
   20MOL   H33323171   4.501   4.493   0.585 -0.2653 -0.1672  0.0365
   20MOL   H33423172   4.254   4.322   0.582  1.6183  0.2860 -2.4267
   20MOL   H33523173   4.247   4.489   0.620 -0.4717  0.1477  2.5871
   20MOL   H33623174   4.414   4.459   0.789 -1.6340  1.0640 -0.0972
   20MOL   H33723175   4.430   4.294   0.767  1.3490  0.7927  0.0393
   20MOL   H33823176   4.197   4.246   0.827  1.2077 -1.4511  1.7931
   20MOL   H33923177   4.147   4.394   0.834 -0.4729  0.0165  1.6065
   20MOL   H34023178   4.304   4.472   1.015 -1.3917  0.6296  3.4715
   20MOL   H34123179   4.353   4.311   1.042  1.3483  0.4166 -1.1887
   20MOL   H34223180   4.080   4.432   1.061 -0.5511  0.0108 -0.2116
   20MOL   H34323181   4.105   4.254   1.070 -0.4029 -0.5976  2.6464
   20MOL   H34423182   4.245   4.453   1.248 -0.8158  1.4860  3.2605
   20MOL   H34523183   4.084   4.407   1.296  1.5869 -0.3341  0.2054
   20MOL   H34623184   4.409   4.121   1.502  0.9748  1.1245 -1.8328
   20MOL   H34723185   4.328   4.045   1.366 -1.7549 -2.5355  1.2934
   20MOL   H34823186   4.192   4.024   1.637  2.7758 -1.4789  0.6731
   20MOL   H34923187   4.245   3.906   1.529  1.7474  0.6355 -2.6621
   20MOL   H35023188   4.098   4.004   1.353 -0.5740  0.0576  0.2057
   20MOL   H35123189   4.041   4.118   1.464 -0.2743  0.2244  0.0015
   20MOL   H35223190   3.965   3.926   1.623 -0.7872  1.6371  0.1409
   20MOL   H35323191   4.018   3.813   1.507 -0.9965 -0.8104 -0.8430
   20MOL   H35423192   3.812   4.025   1.434  3.1460  1.0407 -0.0264
   20MOL   H35523193   3.854   3.885   1.342 -0.3892 -3.6877 -0.1683
   20MOL   H35623194   3.774   3.732   1.497  0.3771 -0.0121 -1.2317
   20MOL   H35723195   3.729   3.851   1.612  1.2868  0.4127  0.8268
   20MOL   H35823196   3.534   3.759   1.463  0.5409  1.0171  4.9535
   20MOL   H35923197   3.599   3.842   1.324  1.2518  0.5748 -0.4267
   20MOL   H36023198   3.584   4.047   1.482 -0.9611 -0.1811 -0.8796
   20MOL   H36123199   3.438   3.980   1.410  0.6646  0.7339 -0.2919
   20MOL   O36223200   3.507   4.004   1.713  0.0925  0.0928  0.1788
   20MOL   C36323201   3.454   3.986   1.842 -0.3445  0.2329  0.5223
   20MOL   C36423202   3.554   4.038   1.946  0.5201  0.0762  0.2196
   20MOL   C36523203   3.689   3.965   1.947  0.2280  0.0545 -0.3489
   20MOL   C36623204   3.779   4.029   2.054  0.7558 -0.5154  0.2555
   20MOL   C36723205   3.906   3.950   2.054 -0.0947  0.2341 -0.7072
   20MOL   C36823206   3.993   3.976   2.175  0.0771 -0.6303 -0.2444
   20MOL   C36923207   4.129   3.910   2.175 -0.0172  0.7543 -0.3817
   20MOL   C37023208   4.219   3.955   2.285  0.0480  0.5998  0.6324
   20MOL   C37123209   4.357   3.872   2.294  0.3470  0.4413  0.3285
   20MOL   C37223210   4.452   3.922   2.407 -0.2066  0.3039 -0.1446
   20MOL   O37323211   4.498   4.053   2.392 -0.3180  0.9572 -0.5086
   20MOL   C37423212   4.568   4.107   2.496  0.7253 -0.0305  1.3009
   20MOL   O37523213   4.582   4.059   2.608  0.2961  0.4710  0.2999
   20MOL   C37623214   4.619   4.248   2.462  0.4592 -0.5842  0.2933
   20MOL   C37723215   4.497   4.346   2.461 -0.5694  1.4137 -0.3885
   20MOL   C37823216   4.519   4.471   2.370 -0.1014  0.8185 -0.3897
   20MOL   C37923217   4.410   4.576   2.398  0.2770 -0.3487  0.0511
   20MOL   C38023218   4.392   4.677   2.285  0.6887 -0.6784 -0.5130
   20MOL   C38123219   4.290   4.786   2.315 -0.3022 -0.1017 -0.0272
   20MOL   C38223220   4.349   4.910   2.374  0.2851  0.2483  0.1357
   20MOL   C38323221   4.249   5.028   2.395 -0.6169 -0.0432  0.2773
   20MOL   C38423222   4.148   5.006   2.500  0.3934 -0.0575 -0.2084
   20MOL   O38523223   4.029   5.012   2.472  0.1598  0.6537  0.2171
   20MOL   H38623224   3.357   4.035   1.837 -1.3933 -1.7762  0.8449
   20MOL   H38723225   3.436   3.883   1.871  0.2422  0.5218  1.9562
   20MOL   H38823226   3.569   4.143   1.921  2.1935 -0.3339 -0.5188
   20MOL   H38923227   3.506   4.033   2.044 -1.5778 -1.3985 -0.8338
   20MOL   H39023228   3.676   3.862   1.981  2.0115 -0.8680 -2.3417
   20MOL   H39123229   3.734   3.970   1.848  0.7877  0.8001 -0.0604
   20MOL   H39223230   3.810   4.129   2.025 -0.9571  0.3568  1.3494
   20MOL   H39323231   3.731   4.033   2.152  2.2280 -0.6582  1.0030
   20MOL   H39423232   3.979   3.982   1.980  2.3629  3.2769  2.9045
   20MOL   H39523233   3.888   3.844   2.032 -1.7552  0.2019  0.6839
   20MOL   H39623234   3.948   3.932   2.264 -0.4601  1.6267  0.6170
   20MOL   H39723235   3.995   4.083   2.194  0.0513 -0.1249 -2.8503
   20MOL   H39823236   4.186   3.931   2.085  0.0583  0.8095 -0.3208
   20MOL   H39923237   4.115   3.802   2.180  0.3936  0.6809 -0.7650
   20MOL   H40023238   4.159   3.952   2.376  0.8755 -2.1225  1.1305
   20MOL   H40123239   4.249   4.059   2.271 -2.5065  1.6794  2.8472
   20MOL   H40223240   4.340   3.766   2.317  0.3958  0.7306  1.7665
   20MOL   H40323241   4.412   3.870   2.201 -1.9349 -1.1785 -1.0592
   20MOL   H40423242   4.404   3.910   2.504 -0.4630  0.6245 -0.2315
   20MOL   H40523243   4.543   3.862   2.404 -1.3330 -1.8813  4.4363
   20MOL   H40623244   4.656   4.239   2.359 -2.7819 -0.2379 -0.9648
   20MOL   H40723245   4.708   4.286   2.511 -0.2755 -0.3382  1.4491
   20MOL   H40823246   4.484   4.379   2.564 -1.6913  0.4744 -0.2138
   20MOL   H40923247   4.402   4.299   2.436  0.8465 -1.3456 -0.7790
   20MOL   H41023248   4.504   4.429   2.271  0.0877 -1.6482  0.5864
   20MOL   H41123249   4.622   4.504   2.387 -0.3815  1.6896 -0.3817
   20MOL   H41223250   4.444   4.628   2.488  0.3083 -0.9451  0.3847
   20MOL   H41323251   4.312   4.541   2.430  0.7238 -1.0691  0.6742
   20MOL   H41423252   4.494   4.708   2.262 -0.1599  3.3715  0.7857
   20MOL   H41523253   4.359   4.622   2.197  0.8765 -1.4750 -0.0920
   20MOL   H41623254   4.245   4.812   2.219 -2.4624 -0.3550  0.8776
   20MOL   H41723255   4.204   4.746   2.369  0.2014  1.1495  1.7815
   20MOL   H41823256   4.422   4.953   2.305 -2.0115 -1.2895 -3.4306
   20MOL   H41923257   4.402   4.884   2.466 -1.1409 -0.7901  0.6686
   20MOL   H42023258   4.307   5.114   2.430  1.5221 -1.4889  0.3575
   20MOL   H42123259   4.200   5.069   2.306 -0.9591  0.2430  0.5963
   20MOL   O42223260   4.203   4.973   2.609 -0.1457  0.4071 -0.7041
   20MOL   C42323261   4.118   4.910   2.708  0.0972 -0.4796  0.3320
   20MOL   C42423262   4.177   4.895   2.843 -0.1304  0.0058  0.0853
   20MOL   C42523263   4.284   4.783   2.837 -0.0278 -0.7178 -0.4867
   20MOL   C42623264   4.356   4.768   2.965 -0.2881  0.4401 -0.3077
   20MOL   C42723265   4.442   4.637   2.956  0.1768 -0.2135  0.7323
   20MOL   C42823266   4.571   4.645   2.864  0.0189  0.3842  0.2490
   20MOL   C42923267   4.650   4.511   2.866  0.4716 -0.2245 -0.0946
   20MOL   C43023268   4.760   4.508   2.759 -0.2952 -0.3992 -0.0454
   20MOL   C43123269   4.891   4.570   2.805 -0.5688  0.1292  0.2327
   20MOL   C43223270   5.015   4.492   2.760 -0.2596  0.6206 -0.1359
   20MOL   O43323271   5.033   4.506   2.618  0.2463 -0.2288 -0.0176
   20MOL   C43423272   5.010   4.407   2.527 -0.5258  0.5898  0.2405
   20MOL   O43523273   5.027   4.287   2.540 -1.0512  0.0391 -0.3618
   20MOL   C43623274   4.975   4.450   2.390 -0.3536 -0.0527 -0.4319
   20MOL   C43723275   5.063   4.557   2.336  0.1403  0.0343  0.0352
   20MOL   C43823276   5.005   4.620   2.211 -0.3809  0.5975  0.1903
   20MOL   C43923277   5.100   4.713   2.136 -0.3243  0.0431 -0.1518
   20MOL   C44023278   5.058   4.753   1.995  0.2901  0.4092 -0.5993
   20MOL   C44123279   5.144   4.862   1.926  0.0910  0.5120 -0.1183
   20MOL   C44223280   5.071   4.918   1.807  0.5917  0.2352  0.0830
   20MOL   C44323281   5.155   5.037   1.741  0.4176  0.0349 -0.5218
   20MOL   C44423282   5.166   5.157   1.833  0.6505  0.1094  0.4151
   20MOL   O44523283   5.067   5.232   1.842  0.0212  0.2153 -0.0381
   20MOL   H44623284   4.026   4.969   2.706  0.5012  0.2161  1.5815
   20MOL   H44723285   4.081   4.814   2.672 -3.0550  0.0243  2.0334
   20MOL   H44823286   4.213   4.986   2.890 -0.2741  0.3111 -0.3874
   20MOL   H44923287   4.101   4.851   2.908  0.1159 -1.9791 -0.9179
   20MOL   H45023288   4.247   4.690   2.795 -1.3262  0.4440 -1.9555
   20MOL   H45123289   4.364   4.812   2.770 -0.4000  1.3834 -0.0496
   20MOL   H45223290   4.405   4.853   3.014 -0.7903 -0.1869  1.3277
   20MOL   H45323291   4.275   4.751   3.037 -0.7626  0.5168 -0.8205
   20MOL   H45423292   4.375   4.556   2.929  0.1907 -0.0408  0.1700
   20MOL   H45523293   4.467   4.621   3.061  1.4842  0.7154  0.5890
   20MOL   H45623294   4.642   4.726   2.881  0.1775  0.4940 -0.8728
   20MOL   H45723295   4.540   4.667   2.762  0.3184 -0.3672 -0.0107
   20MOL   H45823296   4.579   4.434   2.836 -0.5767  1.1165 -1.0853
   20MOL   H45923297   4.681   4.478   2.965  2.7416 -2.0539 -1.3662
   20MOL   H46023298   4.736   4.550   2.661 -0.0353  1.4105  0.6592
   20MOL   H46123299   4.789   4.403   2.747 -1.0268 -0.5844 -0.2283
   20MOL   H46223300   4.912   4.666   2.758 -1.2376 -0.7533 -1.9164
   20MOL   H46323301   4.901   4.594   2.911  1.2007  2.5769 -0.4478
   20MOL   H46423302   5.100   4.534   2.814  0.3365 -0.0825 -0.5344
   20MOL   H46523303   5.026   4.389   2.794 -2.2538  0.1576 -0.8422
   20MOL   H46623304   4.873   4.488   2.384  0.6405  2.6352 -0.8530
   20MOL   H46723305   4.985   4.362   2.326 -1.3375 -2.1819  2.2636
   20MOL   H46823306   5.169   4.535   2.332  0.2643  0.4608  1.1530
   20MOL   H46923307   5.074   4.635   2.410 -1.1792  0.7057 -0.4492
   20MOL   H47023308   4.910   4.667   2.239  0.9582  2.6477  1.3995
   20MOL   H47123309   4.967   4.549   2.137 -1.8063 -0.6345  2.0502
   20MOL   H47223310   5.200   4.674   2.118 -0.3532 -0.8635  1.5297
   20MOL   H47323311   5.121   4.803   2.194 -1.7709 -0.6365  1.4654
   20MOL   H47423312   5.063   4.661   1.936 -1.1266 -1.1827  1.6676
   20MOL   H47523313   4.952   4.778   1.992 -0.1243 -1.4010 -2.0977
   20MOL   H47623314   5.155   4.939   2.003 -1.2542  2.1110 -1.4975
   20MOL   H47723315   5.242   4.823   1.898 -0.4585 -0.2796 -0.9459
   20MOL   H47823316   4.973   4.959   1.831  1.2138  1.4826  0.4998
   20MOL   H47923317   5.062   4.839   1.732 -1.0153  2.0514 -1.6897
   20MOL   H48023318   5.260   5.006   1.733  0.9562  1.1883  1.5623
   20MOL   H48123319   5.099   5.052   1.649  0.1940  2.0761 -0.0774
   20MOL   O48223320   5.275   5.155   1.911 -0.1352 -0.1443 -0.1416
   20MOL   C48323321   5.290   5.244   2.020 -0.0836 -0.3480 -0.0430
   20MOL   C48423322   5.242   5.183   2.148  0.2014 -0.4347 -0.5260
   20MOL   C48523323   5.246   5.283   2.263  0.2054  0.1755  0.4797
   20MOL   C48623324   5.212   5.211   2.391  0.3200  0.2385 -0.2607
   20MOL   C48723325   5.226   5.312   2.514 -0.0664  0.7929  0.3414
   20MOL   C48823326   5.257   5.252   2.656 -0.0079  0.0095 -0.1242
   20MOL   C48923327   5.139   5.184   2.721 -0.3792 -0.5197 -0.3771
   20MOL   C49023328   5.159   5.162   2.871  0.1870 -0.3752 -0.2118
   20MOL   C49123329   5.045   5.070   2.924 -0.4621 -0.1457 -0.6355
   20MOL   C49223330   5.047   5.066   3.080 -0.5299  0.3595  0.1917
   20MOL   O49323331   4.948   4.973   3.122  0.0174  0.1705 -0.1600
   20MOL   C49423332   4.987   4.867   3.196  0.4604  0.2945 -0.1179
   20MOL   O49523333   5.102   4.846   3.238 -0.3903  0.1753  0.4194
   20MOL   C49623334   4.868   4.779   3.241  0.4830  0.1035 -0.7883
   20MOL   C49723335   4.754   4.872   3.288 -0.6225 -0.3400 -0.2992
   20MOL   C49823336   4.645   4.804   3.365  0.5862  0.1442 -1.0708
   20MOL   C49923337   4.514   4.889   3.357  0.5895  0.3399  0.3864
   20MOL   C50023338   4.392   4.819   3.430  0.2928 -0.1891 -0.4385
   20MOL   C50123339   4.331   4.698   3.352 -0.2240  0.1836 -0.4743
   20MOL   C50223340   4.196   4.647   3.401 -0.4243 -0.0438 -0.1964
   20MOL   C50323341   4.154   4.506   3.355 -0.2498  0.2654  0.0148
   20MOL   C50423342   4.011   4.471   3.373  0.0157  0.2677 -0.2730
   20MOL   O50523343   3.953   4.413   3.285 -0.4282 -0.1100  0.4351
   20MOL   H50623344   5.381   5.303   2.030 -0.5053  0.2008  0.6476
   20MOL   H50723345   5.238   5.339   2.006 -2.8180 -1.8054 -0.0917
   20MOL   H50823346   5.135   5.171   2.134 -0.2432  1.1174  1.3799
   20MOL   H50923347   5.287   5.089   2.180  2.5006  1.3009  1.5552
   20MOL   H51023348   5.348   5.322   2.273 -0.0308  1.2458 -1.1505
   20MOL   H51123349   5.180   5.367   2.247  1.9772  1.5602  0.2572
   20MOL   H51223350   5.116   5.160   2.386 -0.1519  1.1266 -0.2125
   20MOL   H51323351   5.285   5.130   2.401 -0.1454 -0.2105 -0.4678
   20MOL   H51423352   5.140   5.378   2.507 -2.6998 -2.6807 -1.2023
   20MOL   H51523353   5.312   5.367   2.477 -0.9969  1.1989 -1.2418
   20MOL   H51623354   5.273   5.338   2.722 -1.2293  1.2649 -1.4311
   20MOL   H51723355   5.347   5.191   2.657 -0.5980 -0.9065 -1.4848
   20MOL   H51823356   5.125   5.081   2.686  1.2473 -1.1195  0.6990
   20MOL   H51923357   5.049   5.244   2.705  2.0771  3.8580  1.6215
   20MOL   H52023358   5.154   5.255   2.927 -3.2795 -0.8207  0.3024
   20MOL   H52123359   5.257   5.120   2.895 -0.6794 -2.0971  0.4501
   20MOL   H52223360   4.948   5.098   2.883  0.1581  1.5645 -0.9803
   20MOL   H52323361   5.056   4.967   2.888  0.1878 -0.3867  0.2349
   20MOL   H52423362   5.144   5.044   3.123 -0.4891  1.6746  0.8118
   20MOL   H52523363   5.005   5.156   3.127 -0.2338  0.8999 -0.5827
   20MOL   H52623364   4.894   4.707   3.319  0.3218  0.5167 -0.3486
   20MOL   H52723365   4.839   4.717   3.156  1.1966  0.2030 -1.1027
   20MOL   H52823366   4.697   4.920   3.208 -1.1366  0.2135  0.3930
   20MOL   H52923367   4.788   4.953   3.352 -0.3912 -1.0737  0.5119
   20MOL   H53023368   4.668   4.796   3.471  1.0590  0.0983 -1.1778
   20MOL   H53123369   4.621   4.717   3.304  1.8211  1.0879 -2.9894
   20MOL   H53223370   4.474   4.896   3.256 -0.1207  0.4597  0.6780
   20MOL   H53323371   4.524   4.997   3.367  0.4626  0.4127 -0.2536
   20MOL   H53423372   4.421   4.805   3.534 -1.6081  1.2706  0.3194
   20MOL   H53523373   4.316   4.897   3.438  2.3041  1.6946  0.9133
   20MOL   H53623374   4.319   4.714   3.245  1.1322 -0.9764 -0.8129
   20MOL   H53723375   4.412   4.625   3.359 -0.5514 -0.0623  0.9620
   20MOL   H53823376   4.126   4.718   3.356  0.9320  0.5390 -1.4061
   20MOL   H53923377   4.182   4.642   3.509  0.8733 -1.1045 -0.0663
   20MOL   H54023378   4.190   4.484   3.254 -0.0129 -0.1388  0.1877
   20MOL   H54123379   4.205   4.434   3.418 -2.6370 -1.2707  0.2449
   20MOL   O54223380   3.955   4.507   3.493 -0.4279 -0.0511  0.0916
   20MOL   C54323381   3.816   4.486   3.512 -0.4030  0.0013 -0.2293
   20MOL   C54423382   3.739   4.608   3.446 -0.4034 -0.3636  0.1849
   20MOL   C54523383   3.584   4.596   3.475 -0.4330 -0.5652 -0.2720
   20MOL   C54623384   3.548   4.641   3.617 -0.8665  0.3009  0.2394
   20MOL   C54723385   3.584   4.787   3.654  0.4950  0.4663 -0.1843
   20MOL   C54823386   3.561   4.804   3.808  0.3193  0.3470  0.1117
   20MOL   C54923387   3.670   4.742   3.901  0.1094  0.3261 -0.1851
   20MOL   C55023388   3.687   4.814   4.039  0.4679  0.8116 -0.2966
   20MOL   C55123389   3.567   4.793   4.146 -0.4832  0.0098 -0.3210
   20MOL   C55223390   3.574   4.865   4.279 -0.4068  0.2199 -1.0732
   20MOL   O55323391   3.491   4.814   4.382 -0.5486 -0.3832  0.2505
   20MOL   C55423392   3.370   4.876   4.415  0.8636 -0.6987  0.3374
   20MOL   O55523393   3.321   4.969   4.351 -0.2667  0.1223 -0.4059
   20MOL   C55623394   3.306   4.817   4.550  0.1947 -0.1471 -0.1995
   20MOL   C55723395   3.287   4.666   4.545 -0.1069  0.8294 -0.3879
   20MOL   C55823396   3.152   4.615   4.601  0.6764 -0.8141 -0.2877
   20MOL   C55923397   3.153   4.462   4.599 -0.7751  0.1175 -0.5032
   20MOL   C56023398   3.024   4.412   4.655  1.2565  0.3275 -0.6842
   20MOL   C56123399   3.024   4.269   4.647 -0.1511  0.3121 -0.6794
   20MOL   C56223400   2.895   4.222   4.723  0.5496 -0.0520  0.0111
   20MOL   C56323401   2.832   4.084   4.711  0.1902  1.0008 -0.8319
   20MOL   C56423402   2.912   3.976   4.788  1.1007  0.4108  0.6048
   20MOL   O56523403   2.933   3.981   4.910 -0.0626 -0.4459 -0.0984
   20MOL   H56623404   3.786   4.389   3.474 -0.0615 -0.4501  0.6262
   20MOL   H56723405   3.815   4.473   3.621 -0.7071 -3.5797 -0.6080
   20MOL   H56823406   3.787   4.701   3.477 -0.7265  0.1182 -0.7203
   20MOL   H56923407   3.737   4.594   3.338 -2.0630  1.3476 -0.0406
   20MOL   H57023408   3.542   4.671   3.407  1.2392  1.5739  0.9989
   20MOL   H57123409   3.551   4.497   3.443 -2.2541 -0.5123  1.3532
   20MOL   H57223410   3.444   4.614   3.636 -0.7185 -0.8906 -0.5801
   20MOL   H57323411   3.607   4.574   3.680 -1.6142 -0.2744  0.3356
   20MOL   H57423412   3.515   4.852   3.600 -1.0204 -0.5685  0.4603
   20MOL   H57523413   3.682   4.825   3.627 -0.9418  2.2756 -3.1028
   20MOL   H57623414   3.463   4.762   3.833 -1.1450  1.9028 -2.7268
   20MOL   H57723415   3.555   4.912   3.826 -1.3182  0.2675  0.1693
   20MOL   H57823416   3.766   4.767   3.857  0.2331  2.0113  0.9759
   20MOL   H57923417   3.659   4.634   3.914 -1.1016  0.4422 -0.2180
   20MOL   H58023418   3.685   4.921   4.018 -2.2282  0.8041 -0.2342
   20MOL   H58123419   3.785   4.791   4.081  0.6106  0.8144 -0.6231
   20MOL   H58223420   3.469   4.791   4.097 -2.0558 -2.5270  2.7325
   20MOL   H58323421   3.579   4.687   4.169 -0.8923  0.3722  1.5937
   20MOL   H58423422   3.677   4.855   4.312 -1.5857 -0.5991  2.5803
   20MOL   H58523423   3.563   4.973   4.263  1.5571  0.7733  1.0647
   20MOL   H58623424   3.213   4.871   4.567  0.9705  1.1165  0.1390
   20MOL   H58723425   3.382   4.841   4.624 -0.7857  2.9478 -0.1040
   20MOL   H58823426   3.373   4.632   4.603 -2.0771 -0.6050  1.7988
   20MOL   H58923427   3.317   4.623   4.450  0.0639 -3.2321  1.3910
   20MOL   H59023428   3.071   4.659   4.543  0.0347 -3.9189 -1.8692
   20MOL   H59123429   3.146   4.655   4.703  1.0344 -2.2144  0.2920
   20MOL   H59223430   3.244   4.428   4.648 -0.3012  0.3412 -1.2255
   20MOL   H59323431   3.152   4.436   4.493 -1.7196  1.6436 -0.8883
   20MOL   H59423432   3.011   4.450   4.757 -2.9255  1.8317 -1.6400
   20MOL   H59523433   2.950   4.466   4.595  0.3081  0.7220  0.8103
   20MOL   H59623434   3.015   4.230   4.546  0.2015 -0.7458 -0.3206
   20MOL   H59723435   3.117   4.222   4.680  1.3815  2.1486 -2.3232
   20MOL   H59823436   2.809   4.287   4.706 -0.4745 -1.6191 -0.8322
   20MOL   H59923437   2.911   4.256   4.826 -3.1433 -0.9818  0.9638
   20MOL   H60023438   2.725   4.071   4.731  0.1435 -2.2239 -2.7981
   20MOL   H60123439   2.831   4.058   4.606 -0.4024  2.4989 -1.2056
   20MOL   O60223440   2.952   3.879   4.702  0.2088 -0.0258 -0.1515
   20MOL   C60323441   3.042   3.777   4.750 -0.5126 -0.4978 -0.6504
   20MOL   C60423442   2.980   3.658   4.822 -0.8033  0.2207  0.1135
   20MOL   C60523443   2.928   3.554   4.717 -0.2197 -0.0875  0.2828
   20MOL   C60623444   2.821   3.603   4.608 -0.5214  0.5983 -0.2373
   20MOL   C60723445   2.784   3.483   4.508  0.4396 -0.0013  0.0927
   20MOL   C60823446   2.668   3.517   4.412  0.2158 -0.1846 -0.2382
   20MOL   C60923447   2.638   3.402   4.315  0.6848  0.3731  0.9996
   20MOL   C61023448   2.540   3.451   4.205 -0.3678 -0.8404  0.1065
   20MOL   C61123449   2.472   3.349   4.104  0.2527  0.5331  0.4309
   20MOL   C61223450   2.576   3.310   3.997 -0.2825 -0.3990  0.9271
   20MOL   O61323451   2.505   3.228   3.906 -0.7412  0.2475 -0.2121
   20MOL   C61423452   2.489   3.101   3.931 -0.0678  0.4325  0.5069
   20MOL   O61523453   2.530   3.047   4.031 -0.5051  0.7629  0.8798
   20MOL   C61623454   2.394   3.034   3.826 -0.7667 -0.0404  0.4910
   20MOL   C61723455   2.419   2.881   3.815  0.2773 -0.1148  0.2103
   20MOL   C61823456   2.465   2.836   3.677  0.0631 -0.2105  0.0682
   20MOL   C61923457   2.372   2.865   3.564 -0.1861  0.3245  0.7794
   20MOL   C62023458   2.426   2.800   3.429  0.2440 -0.5657 -0.0465
   20MOL   C62123459   2.555   2.866   3.366  0.1300 -0.3977 -0.6827
   20MOL   C62223460   2.603   2.807   3.238 -0.0605  0.1578  0.2182
   20MOL   C62323461   2.673   2.674   3.249 -0.4351  0.2061  0.7950
   20MOL   C62423462   2.818   2.690   3.301 -0.4993  0.2230 -0.0502
   20MOL   O62523463   2.888   2.771   3.248 -0.4199 -0.1414  0.8006
   20MOL   H62623464   3.111   3.748   4.671 -0.0770  0.2899 -0.5624
   20MOL   H62723465   3.104   3.839   4.815 -2.0898  0.2405  0.1845
   20MOL   H62823466   3.055   3.609   4.884 -2.1895 -2.4978 -0.2909
   20MOL   H62923467   2.904   3.690   4.894 -2.0140 -1.5734 -0.3281
   20MOL   H63023468   3.013   3.505   4.669 -1.0843 -0.9445 -0.3815
   20MOL   H63123469   2.889   3.471   4.776  2.5535 -2.0557 -0.5378
   20MOL   H63223470   2.738   3.650   4.660 -1.8769  0.0396 -1.8250
   20MOL   H63323471   2.860   3.689   4.553  0.6139  0.0266 -0.3481
   20MOL   H63423472   2.766   3.395   4.570  1.0726  1.3522  2.2536
   20MOL   H63523473   2.869   3.448   4.449  0.3853  0.2648 -0.1479
   20MOL   H63623474   2.689   3.614   4.367 -0.9779  1.1010  1.9125
   20MOL   H63723475   2.579   3.543   4.468 -0.8327  0.2937 -2.0689
   20MOL   H63823476   2.601   3.312   4.363 -1.5764  0.5976 -0.2630
   20MOL   H63923477   2.736   3.372   4.280  0.2996  1.1034 -0.7308
   20MOL   H64023478   2.597   3.523   4.148  1.2974 -2.5367 -0.4340
   20MOL   H64123479   2.451   3.494   4.251 -0.6771  1.0458 -2.1583
   20MOL   H64223480   2.434   3.263   4.158  1.7496  0.8284  2.0081
   20MOL   H64323481   2.389   3.405   4.062  0.1022 -0.6190 -0.8528
   20MOL   H64423482   2.611   3.399   3.944 -0.7498 -0.9371 -0.3007
   20MOL   H64523483   2.647   3.243   4.047  0.0827 -1.9980 -1.6165
   20MOL   H64623484   2.423   3.080   3.731 -0.5094 -2.7092 -0.7449
   20MOL   H64723485   2.289   3.059   3.845 -0.9885 -0.9291  0.4271
   20MOL   H64823486   2.329   2.831   3.847 -0.4432  0.7099 -0.4828
   20MOL   H64923487   2.492   2.845   3.888  1.1137  1.0102 -0.0451
   20MOL   H65023488   2.480   2.728   3.674  2.8105  0.0437  2.1841
   20MOL   H65123489   2.564   2.878   3.661  0.3959 -0.6569  0.9226
   20MOL   H65223490   2.370   2.973   3.545  2.2433  0.0665 -1.1779
   20MOL   H65323491   2.269   2.841   3.589 -1.6984  2.9838 -2.4744
   20MOL   H65423492   2.462   2.698   3.439 -0.8699 -1.2350 -2.3773
   20MOL   H65523493   2.351   2.802   3.349  0.4845 -0.5551 -0.2713
   20MOL   H65623494   2.539   2.974   3.367  0.2356 -0.3507  2.3390
   20MOL   H65723495   2.632   2.863   3.444 -0.0384  0.6033 -0.4697
   20MOL   H65823496   2.668   2.879   3.189 -1.0202  1.3714  0.6806
   20MOL   H65923497   2.523   2.791   3.165 -0.3874  1.7502  0.2044
   20MOL   H66023498   2.632   2.611   3.328  0.4311 -2.0587 -0.5074
   20MOL   H66123499   2.687   2.626   3.153  1.3467 -0.1288  1.2109
   20MOL   O66223500   2.850   2.592   3.384  0.2324 -0.2326  0.5065
   20MOL   C66323501   2.987   2.559   3.414 -0.2689  0.0697  0.3168
   20MOL   C66423502   3.034   2.420   3.365  0.7839 -0.1648 -0.2838
   20MOL   C66523503   3.177   2.375   3.406  0.1027 -0.4202 -0.4858
   20MOL   C66623504   3.280   2.487   3.418 -0.0450 -0.0295 -0.3127
   20MOL   C66723505   3.425   2.423   3.433 -0.0120  0.2095 -0.0200
   20MOL   C66823506   3.519   2.531   3.493 -0.5343  0.1134  0.2980
   20MOL   C66923507   3.659   2.480   3.519  0.1191 -0.1044 -0.1634
   20MOL   C67023508   3.741   2.429   3.401  0.7268  0.2807 -0.1160
   20MOL   C67123509   3.779   2.542   3.309 -0.0723  0.6928 -0.8837
   20MOL   C67223510   3.880   2.496   3.205 -0.5308  0.0994  0.0451
   20MOL   O67323511   3.872   2.558   3.081 -0.8578  0.2029 -0.6891
   20MOL   C67423512   3.915   2.686   3.066 -0.1915 -0.0953  0.0977
   20MOL   O67523513   3.958   2.755   3.159 -0.5525 -0.4178  0.3815
   20MOL   C67623514   3.908   2.738   2.924 -0.1685  0.1632  0.2741
   20MOL   C67723515   3.769   2.793   2.896 -0.3118  0.4785 -0.6927
   20MOL   C67823516   3.771   2.878   2.768 -0.3052 -0.0191  0.2709
   20MOL   C67923517   3.641   2.963   2.755  0.6765 -0.6627 -0.4000
   20MOL   C68023518   3.519   2.882   2.698  0.1746 -0.1125 -0.2272
   20MOL   C68123519   3.386   2.954   2.729 -0.4925  0.2631 -0.0938
   20MOL   C68223520   3.384   3.096   2.679 -0.7770  0.0677  0.1399
   20MOL   C68323521   3.249   3.167   2.679  0.2841 -0.6049  0.4367
   20MOL   C68423522   3.256   3.315   2.663 -0.2714  0.0415  0.1209
   20MOL   O68523523   3.364   3.370   2.636  0.0297  0.2806  0.5680
   20MOL   H68623524   3.057   2.638   3.390  3.0517 -1.8416  3.2542
   20MOL   H68723525   3.001   2.553   3.522 -0.3071  0.8055  0.3628
   20MOL   H68823526   2.971   2.337   3.398  0.5973  0.5524  1.2029
   20MOL   H68923527   3.024   2.420   3.257 -1.2267  0.2368 -0.1190
   20MOL   H69023528   3.178   2.323   3.502  0.3625 -1.4730 -1.0431
   20MOL   H69123529   3.213   2.305   3.330 -1.5699 -0.2291 -1.4760
   20MOL   H69223530   3.284   2.547   3.327 -1.4896  0.1531 -0.2663
   20MOL   H69323531   3.248   2.534   3.511 -1.2003 -2.7073  0.6915
   20MOL   H69423532   3.462   2.405   3.332 -0.6501 -1.2297 -0.0069
   20MOL   H69523533   3.413   2.332   3.491 -0.6207 -0.1872 -0.7670
   20MOL   H69623534   3.482   2.583   3.582 -0.4255  0.8706 -0.0926
   20MOL   H69723535   3.534   2.607   3.417  0.8454 -1.3547 -0.9164
   20MOL   H69823536   3.637   2.390   3.576  0.1176  0.5167  0.8151
   20MOL   H69923537   3.709   2.553   3.582  1.7505  0.0469 -1.5836
   20MOL   H70023538   3.691   2.342   3.360  0.4716  0.2799  0.1944
   20MOL   H70123539   3.826   2.379   3.447  0.9606 -0.2178 -1.0785
   20MOL   H70223540   3.690   2.576   3.255 -1.4262 -1.5243 -0.0961
   20MOL   H70323541   3.818   2.627   3.365 -2.8272  0.9207  0.7766
   20MOL   H70423542   3.984   2.500   3.238 -0.0830 -2.1409 -1.0072
   20MOL   H70523543   3.875   2.389   3.186  0.9957  0.1269 -0.5852
   20MOL   H70623544   3.929   2.648   2.866  0.9396  1.0310 -0.6980
   20MOL   H70723545   3.996   2.798   2.900  0.4079 -0.0668  1.7797
   20MOL   H70823546   3.738   2.861   2.976 -0.1056  0.1730 -0.3499
   20MOL   H70923547   3.700   2.708   2.889  0.5815 -0.4685  1.4158
   20MOL   H71023548   3.783   2.813   2.681  3.4055 -0.0592  0.7291
   20MOL   H71123549   3.856   2.947   2.770 -0.0290 -0.3652  0.4960
   20MOL   H71223550   3.659   3.042   2.682 -0.8941  0.2492  0.1872
   20MOL   H71323551   3.622   3.003   2.854 -0.2908 -1.0136 -0.4387
   20MOL   H71423552   3.521   2.885   2.589 -2.2126 -0.7631 -0.3273
   20MOL   H71523553   3.533   2.779   2.730 -1.7471  0.2677  1.9427
   20MOL   H71623554   3.294   2.901   2.703 -0.1638 -0.1009 -0.5201
   20MOL   H71723555   3.377   2.969   2.837 -1.7564 -2.6158  0.2527
   20MOL   H71823556   3.423   3.094   2.577 -1.4788 -0.8651 -0.1184
   20MOL   H71923557   3.455   3.154   2.737 -1.6138  0.1445  1.0925
   20MOL   H72023558   3.189   3.127   2.597 -0.0190 -1.6300  1.1458
   20MOL   H72123559   3.191   3.144   2.768 -0.6999  3.1240  0.8208
   20MOL   O72223560   3.135   3.360   2.691 -0.3270  0.2205 -0.5109
   20MOL   C72323561   3.086   3.497   2.674  0.1701  0.4317  0.1099
   20MOL   C72423562   2.979   3.536   2.782 -0.4218  0.0646 -0.1744
   20MOL   C72523563   2.858   3.438   2.774  0.3738 -0.7629  0.2868
   20MOL   C72623564   2.740   3.480   2.868 -0.4280 -0.5357  0.1727
   20MOL   C72723565   2.609   3.401   2.838 -0.0229 -0.0509  0.7761
   20MOL   C72823566   2.623   3.252   2.859  0.3381  0.7804 -0.3570
   20MOL   C72923567   2.485   3.184   2.884 -0.6779 -0.2370  0.0104
   20MOL   C73023568   2.498   3.033   2.896 -0.4834 -1.2116 -0.4812
   20MOL   C73123569   2.367   2.968   2.941 -0.1635  0.2737  0.4958
   20MOL   C73223570   2.237   2.965   2.851  0.2767 -0.0737 -0.1026
   20MOL   O73323571   2.277   2.933   2.724  0.6321 -0.1154  0.6402
   20MOL   C73423572   2.297   2.805   2.686  0.4985 -0.2185 -0.2655
   20MOL   O73523573   2.265   2.707   2.753 -0.1835 -0.4717 -0.1788
   20MOL   C73623574   2.342   2.787   2.545  0.1586  0.2978  0.3261
   20MOL   C73723575   2.226   2.809   2.443 -0.4783 -0.4486  0.6796
   20MOL   C73823576   2.248   2.717   2.321 -0.1681 -0.1268  0.4338
   20MOL   C73923577   2.116   2.716   2.238 -0.1009  0.3253  0.3272
   20MOL   C74023578   2.104   2.849   2.166 -0.3073  0.2968 -0.3057
   20MOL   C74123579   2.030   2.835   2.041  0.0591 -0.0418 -0.0568
   20MOL   C74223580   2.012   2.961   1.957  0.3577  0.7189  0.1766
   20MOL   C74323581   2.139   3.004   1.881 -0.4314 -0.2841  0.3506
   20MOL   C74423582   2.192   3.135   1.929  0.4285 -0.5092 -0.1354
   20MOL   O74523583   2.301   3.149   1.983  0.1129 -0.6617 -0.1827
   20MOL   H74623584   3.168   3.569   2.675 -2.2832  3.2957  0.7239
   20MOL   H74723585   3.037   3.500   2.577 -0.7265 -1.4659  0.4855
   20MOL   H74823586   3.030   3.537   2.879  0.4138 -0.2809 -0.6075
   20MOL   H74923587   2.939   3.637   2.776 -1.7225 -0.2682  2.1490
   20MOL   H75023588   2.833   3.440   2.668  0.9336 -3.2587  0.0747
   20MOL   H75123589   2.892   3.337   2.798 -2.3939 -2.1646 -1.3908
   20MOL   H75223590   2.772   3.469   2.971 -1.6531  1.5794  0.7997
   20MOL   H75323591   2.723   3.587   2.859  0.0213 -0.3518  1.5141
   20MOL   H75423592   2.574   3.433   2.739 -0.8292 -0.6494  0.8660
   20MOL   H75523593   2.528   3.440   2.900  0.3925  1.3173  0.4747
   20MOL   H75623594   2.690   3.216   2.937  0.1289 -0.2779 -0.6671
   20MOL   H75723595   2.647   3.216   2.759 -0.1509 -0.6397  0.0263
   20MOL   H75823596   2.408   3.199   2.809 -0.9976  1.4861  0.6418
   20MOL   H75923597   2.451   3.217   2.983  1.0243 -0.4175  0.6693
   20MOL   H76023598   2.565   3.017   2.981 -0.3097  0.8564 -0.2061
   20MOL   H76123599   2.542   2.991   2.806  0.4163  0.0047 -0.6195
   20MOL   H76223600   2.394   2.865   2.964  2.4724  0.4114 -1.7333
   20MOL   H76323601   2.340   3.014   3.036 -0.6060  0.1495  0.4303
   20MOL   H76423602   2.160   2.900   2.894 -0.7727  1.3917  0.2861
   20MOL   H76523603   2.186   3.062   2.845  1.7412  0.5502 -3.1614
   20MOL   H76623604   2.359   2.680   2.559 -1.2626 -0.0706 -0.6222
   20MOL   H76723605   2.432   2.841   2.516 -0.4948  0.5998 -1.2048
   20MOL   H76823606   2.240   2.909   2.404  2.4103 -0.7625  0.7629
   20MOL   H76923607   2.126   2.796   2.484  0.4040  0.0251  3.0775
   20MOL   H77023608   2.274   2.616   2.352  0.8182  0.5033  1.6834
   20MOL   H77123609   2.331   2.753   2.260 -1.1633  0.4246 -0.6146
   20MOL   H77223610   2.027   2.697   2.298 -0.3943  2.3480  0.5574
   20MOL   H77323611   2.133   2.631   2.171  2.3326  0.7138  0.4283
   20MOL   H77423612   2.060   2.925   2.230  0.6179 -0.9530  1.8841
   20MOL   H77523613   2.204   2.877   2.131 -0.4745  0.6510 -0.5055
   20MOL   H77623614   2.077   2.759   1.978  1.8192  2.8209 -2.3313
   20MOL   H77723615   1.930   2.798   2.062  0.1037  0.8732  1.7826
   20MOL   H77823616   1.966   3.038   2.019  1.2212  0.8788  0.6256
   20MOL   H77923617   1.938   2.932   1.883  1.5214  1.1667 -1.1779
   20MOL   H78023618   2.220   2.933   1.898  2.5184  2.9269  0.3553
   20MOL   H78123619   2.129   3.004   1.772 -0.4256  2.1791  0.3310
   20MOL   O78223620   2.105   3.237   1.914 -0.1732  0.2356  0.2589
   20MOL   C78323621   2.138   3.360   1.974  0.4958  0.3520 -0.0808
   20MOL   C78423622   2.034   3.459   1.928  0.2311 -0.4217 -0.3317
   20MOL   C78523623   2.051   3.507   1.781 -0.1284  0.9430 -0.8601
   20MOL   C78623624   1.971   3.624   1.732  0.3610  0.4545  0.4110
   20MOL   C78723625   1.964   3.657   1.581 -0.0222  0.2261 -0.2298
   20MOL   C78823626   1.918   3.801   1.546 -0.5212  0.1926  0.0371
   20MOL   C78923627   2.021   3.909   1.593 -0.3823  0.4098 -0.0150
   20MOL   C79023628   2.029   4.019   1.486  0.0790  0.0130  0.0355
   20MOL   C79123629   1.915   4.126   1.491 -0.3658 -0.4083  0.4303
   20MOL   C79223630   1.933   4.245   1.392 -0.5578 -0.5271  0.5296
   20MOL   O79323631   1.927   4.201   1.252  0.5157  0.2319  0.0861
   20MOL   C79423632   1.807   4.177   1.187  0.0324  0.0945  0.3900
   20MOL   O79523633   1.702   4.204   1.239  0.8007 -0.0438 -0.4301
   20MOL   C79623634   1.817   4.118   1.041 -0.1843 -0.0314 -0.0728
   20MOL   C79723635   1.703   4.022   1.003  0.4497 -0.1352  0.7496
   20MOL   C79823636   1.704   3.887   1.073 -0.2709 -0.0815 -0.1359
   20MOL   C79923637   1.815   3.787   1.026  0.4653  0.2295 -0.0495
   20MOL   C80023638   1.754   3.645   1.037  0.1382  0.5004 -0.2039
   20MOL   C80123639   1.858   3.541   0.991  0.3227  0.6162  0.2698
   20MOL   C80223640   1.825   3.506   0.844 -0.0629 -0.7274  0.1206
   20MOL   C80323641   1.907   3.396   0.778  0.0547 -0.3785 -0.4507
   20MOL   C80423642   2.001   3.435   0.668 -0.0296  0.0520  0.1104
   20MOL   O80523643   2.112   3.385   0.656 -0.2474  0.5673 -0.3447
   20MOL   H80623644   2.121   3.362   2.082  1.9961  1.3352  0.1417
   20MOL   H80723645   2.241   3.386   1.951  1.5968 -1.5979  2.3523
   20MOL   H80823646   1.931   3.430   1.946  0.1494 -1.5299 -2.4325
   20MOL   H80923647   2.041   3.547   1.992 -0.2960  0.0212 -0.8729
   20MOL   H81023648   2.154   3.541   1.777  0.3304 -0.3850 -0.6891
   20MOL   H81123649   2.060   3.432   1.703  0.3200  0.5069 -0.3912
   20MOL   H81223650   1.868   3.626   1.765  0.5266 -4.6557  1.7304
   20MOL   H81323651   2.015   3.703   1.794 -1.2901  0.5910  1.4362
   20MOL   H81423652   1.895   3.593   1.527 -0.9977  2.1341 -1.2986
   20MOL   H81523653   2.063   3.631   1.543 -0.1523  0.8486 -1.0223
   20MOL   H81623654   1.822   3.808   1.597 -1.8224 -2.7603 -1.8486
   20MOL   H81723655   1.889   3.812   1.442 -0.3728 -1.4006 -0.1830
   20MOL   H81823656   2.122   3.868   1.598 -1.1904 -1.6947 -0.1449
   20MOL   H81923657   2.000   3.947   1.692  2.4398 -1.2994  1.2882
   20MOL   H82023658   2.039   3.969   1.390  0.6282 -0.6291  0.4254
   20MOL   H82123659   2.124   4.069   1.507 -0.0494  0.0581  0.5045
   20MOL   H82223660   1.819   4.079   1.471 -0.6015  0.7497 -1.3251
   20MOL   H82323661   1.918   4.168   1.591  2.1615 -1.1160  0.6820
   20MOL   H82423662   1.849   4.314   1.402 -1.2917 -1.7288  2.8512
   20MOL   H82523663   2.022   4.305   1.409  1.2496 -2.4328 -1.9049
   20MOL   H82623664   1.910   4.062   1.046  1.3850  2.6411  1.5323
   20MOL   H82723665   1.837   4.186   0.958  2.2055  1.2796  1.5142
   20MOL   H82823666   1.711   4.008   0.895 -0.8201  0.4565  0.5748
   20MOL   H82923667   1.606   4.070   1.016  0.7567  0.2643  1.6371
   20MOL   H83023668   1.619   3.845   1.018  0.9465 -0.4654 -1.7609
   20MOL   H83123669   1.691   3.887   1.181 -1.6641  1.8717 -0.2811
   20MOL   H83223670   1.906   3.813   1.080  0.4249  1.5184 -0.5796
   20MOL   H83323671   1.840   3.812   0.923 -1.6948  1.0129 -0.4087
   20MOL   H83423672   1.714   3.624   1.136  0.0923 -1.1555 -0.5476
   20MOL   H83523673   1.671   3.625   0.969 -0.8483  0.6923  0.9234
   20MOL   H83623674   1.963   3.562   1.011  0.5968 -0.2022 -0.2742
   20MOL   H83723675   1.842   3.444   1.038  0.9076  0.1294 -0.5357
   20MOL   H83823676   1.829   3.597   0.785 -0.1730  1.0863  2.8045
   20MOL   H83923677   1.721   3.475   0.851 -0.1732 -0.2969  0.4123
   20MOL   H84023678   1.962   3.354   0.862  0.5471  2.4474  0.6778
   20MOL   H84123679   1.838   3.313   0.758 -1.4892  0.5931  0.7785
   20MOL   O84223680   1.962   3.534   0.594  0.5129  1.0319 -0.2076
   20MOL   C84323681   2.036   3.594   0.496  0.0328 -0.5930 -0.4608
   20MOL   C84423682   2.100   3.718   0.544  0.3181  0.4735  0.8264
   20MOL   C84523683   2.008   3.837   0.581  1.1662  0.5724  0.3854
   20MOL   C84623684   1.943   3.915   0.470  0.3016  0.0894 -0.3279
   20MOL   C84723685   1.860   4.044   0.504 -0.3047  0.4286  0.8661
   20MOL   C84823686   1.943   4.174   0.523 -0.3413  0.4052 -0.2153
   20MOL   C84923687   1.858   4.289   0.581  0.1408  0.1137 -0.1735
   20MOL   C85023688   1.935   4.419   0.599  0.6444  1.1838  0.3610
   20MOL   C85123689   1.854   4.546   0.626 -0.0853 -0.6442  0.1213
   20MOL   C85223690   1.948   4.665   0.637  0.9301 -0.0564 -0.6898
   20MOL   O85323691   2.029   4.691   0.521  0.1971  0.4961  0.6959
   20MOL   C85423692   1.980   4.764   0.414 -0.0822  0.2497 -0.4492
   20MOL   O85523693   1.877   4.831   0.420  0.8693 -0.2498  0.3428
   20MOL   C85623694   2.063   4.755   0.286 -0.1413  0.2865  0.5915
   20MOL   C85723695   2.098   4.610   0.256 -1.2930  0.8986 -0.3316
   20MOL   C85823696   1.989   4.543   0.172 -0.4375 -0.1099  0.0340
   20MOL   C85923697   1.967   4.394   0.207  0.4000  0.1113  0.0842
   20MOL   C86023698   1.896   4.311   0.104 -0.2734 -0.3382  0.2527
   20MOL   C86123699   1.853   4.175   0.172 -0.0654  0.4601  0.4350
   20MOL   C86223700   1.780   4.091   0.072 -0.3670  0.1106 -0.2428
   20MOL   C86323701   1.733   3.954   0.126 -0.2224 -0.4133  0.0806
   20MOL   C86423702   1.828   3.837   0.104  0.0205  0.1508  0.3673
   20MOL   O86523703   1.787   3.722   0.123 -0.8702  0.3338 -0.2530
   20MOL   H86623704   2.117   3.529   0.462  2.7455  0.7583  3.1006
   20MOL   H86723705   1.965   3.612   0.416  1.5266  3.9712 -0.8849
   20MOL   H86823706   2.154   3.691   0.635 -0.7720  0.0669  1.3700
   20MOL   H86923707   2.166   3.748   0.464 -0.0733  0.5262  0.5203
   20MOL   H87023708   1.925   3.797   0.639  0.0711  1.8028 -0.3210
   20MOL   H87123709   2.068   3.902   0.646  0.1017  0.4922  1.4670
   20MOL   H87223710   2.015   3.928   0.389 -0.1061  1.6587 -0.4604
   20MOL   H87323711   1.870   3.843   0.432  0.1131  0.4926 -0.7486
   20MOL   H87423712   1.800   4.022   0.593 -0.7121  0.9166  0.7185
   20MOL   H87523713   1.791   4.065   0.422  2.2627 -0.0342 -1.4501
   20MOL   H87623714   1.984   4.197   0.425 -0.2938 -1.6316 -0.6867
   20MOL   H87723715   2.025   4.154   0.591 -1.8033  2.4519  2.2293
   20MOL   H87823716   1.819   4.256   0.678  0.3920 -1.2071 -0.5139
   20MOL   H87923717   1.774   4.316   0.517  0.4772  0.1735 -0.5867
   20MOL   H88023718   1.987   4.439   0.505  0.6183 -0.1989  0.0457
   20MOL   H88123719   2.013   4.398   0.671  2.4780  2.2025 -1.2788
   20MOL   H88223720   1.794   4.556   0.535 -3.1659 -1.4936  1.9956
   20MOL   H88323721   1.797   4.540   0.718  1.8555  0.1690  1.3971
   20MOL   H88423722   1.892   4.756   0.661  1.9828  0.3493  0.3015
   20MOL   H88523723   2.013   4.654   0.724  1.3380 -0.8222 -1.0880
   20MOL   H88623724   2.156   4.811   0.292  0.8730 -1.3743  0.7537
   20MOL   H88723725   2.007   4.808   0.209  0.2474 -0.8449 -0.4902
   20MOL   H88823726   2.135   4.548   0.338 -2.9737 -0.4065 -0.5440
   20MOL   H88923727   2.170   4.633   0.177  1.9391 -2.8494  1.3573
   20MOL   H89023728   2.014   4.559   0.067  0.9934 -2.1627  0.0268
   20MOL   H89123729   1.894   4.595   0.180  0.5579  1.6826  0.4481
   20MOL   H89223730   1.903   4.397   0.295  1.7996 -0.1322  1.1324
   20MOL   H89323731   2.068   4.354   0.219  0.4660  0.5671  1.0522
   20MOL   H89423732   1.814   4.362   0.054  0.0289 -0.8007 -0.7305
   20MOL   H89523733   1.959   4.297   0.016  0.5698  0.2710  0.7548
   20MOL   H89623734   1.944   4.127   0.209  1.1075  3.2636  1.3405
   20MOL   H89723735   1.789   4.200   0.256 -1.0705  0.1616 -0.2373
   20MOL   H89823736   1.829   4.083   7.732  0.2943 -1.1373  0.1832
   20MOL   H89923737   1.691   4.147   0.045  0.2189  0.5578 -1.2788
   20MOL   H90023738   1.700   3.972   0.228  1.0257  0.8131  0.2690
   20MOL   H90123739   1.644   3.928   0.067 -0.2672 -1.2901  0.5273
   20MOL   O90223740   1.954   3.874   0.067 -0.4606 -0.3477 -0.0725
   20MOL   C90323741   2.059   3.782   0.047  0.0445 -0.6112  0.6285
   20MOL   C90423742   2.184   3.864   0.008 -0.9534 -0.0193 -0.1335
   20MOL   C90523743   2.300   3.764   7.742 -0.4286 -0.3989  0.4461
   20MOL   C90623744   2.435   3.830   7.701 -0.6962 -0.5839  0.8800
   20MOL   C90723745   2.555   3.729   7.689  0.0841 -0.0917  0.0078
   20MOL   C90823746   2.686   3.781   7.626 -0.7423 -0.0857  0.6261
   20MOL   C90923747   2.783   3.667   7.607 -0.1454 -0.7381 -0.0709
   20MOL   C91023748   2.930   3.717   7.577 -0.0353  0.1920  0.2084
   20MOL   C91123749   3.028   3.613   7.617  0.3102 -0.2321 -0.9034
   20MOL   C91223750   3.170   3.670   7.612 -0.5215  0.1072  0.0746
   20MOL   O91323751   3.205   3.665   7.471  0.2333  0.1850 -0.2757
   20MOL   C91423752   3.329   3.700   7.427 -0.6346 -0.4992 -0.7384
   20MOL   O91523753   3.416   3.760   7.489 -0.4062  0.3547 -0.2239
   20MOL   C91623754   3.351   3.648   7.281  0.1488 -0.6946  0.1998
   20MOL   C91723755   3.350   3.498   7.258  0.4504  0.2630  0.3109
   20MOL   C91823756   3.322   3.466   7.112 -0.0849  0.1558 -0.0401
   20MOL   C91923757   3.306   3.308   7.086 -0.0293  0.8209  0.5031
   20MOL   C92023758   3.431   3.217   7.117  0.1612  0.3750 -0.2148
   20MOL   C92123759   3.399   3.065   7.100  0.6347 -0.1573  0.0925
   20MOL   C92223760   3.524   2.985   7.133 -0.4341  0.2845  0.1965
   20MOL   C92323761   3.524   2.827   7.107 -0.3565 -0.2095 -0.3446
   20MOL   C92423762   3.543   2.798   6.959  0.2510  0.2727  0.4679
   20MOL   O92523763   3.456   2.757   6.884  0.4138 -0.0830  0.3188
   20MOL   H92623764   2.070   3.732   0.144 -0.1817 -1.8742  0.0135
   20MOL   H92723765   2.035   3.709   7.726 -0.5459  0.8192 -0.5395
   20MOL   H92823766   2.159   3.921   7.676  0.4070  0.6467 -0.1027
   20MOL   H92923767   2.200   3.937   0.088 -0.4637  0.8741 -1.0362
   20MOL   H93023768   2.319   3.704   0.074  3.5114  1.1674  0.7860
   20MOL   H93123769   2.263   3.706   7.657  1.0111  0.6395 -0.9187
   20MOL   H93223770   2.413   3.873   7.603 -1.1386  0.7690  1.5572
   20MOL   H93323771   2.460   3.925   7.750 -1.0485 -1.0946  2.0629
   20MOL   H93423772   2.515   3.645   7.631  0.0063 -0.6959  0.9353
   20MOL   H93523773   2.574   3.685   0.030  1.3969 -1.6114 -0.8898
   20MOL   H93623774   2.721   3.860   7.693  1.6474  0.1262 -0.7955
   20MOL   H93723775   2.664   3.826   7.529 -0.2152  1.8128  1.3726
   20MOL   H93823776   2.751   3.599   7.528  3.4547 -1.2303 -1.2142
   20MOL   H93923777   2.788   3.621   7.706  0.8539  0.5575  0.4850
   20MOL   H94023778   2.946   3.804   7.640  0.3605  0.6704 -0.5312
   20MOL   H94123779   2.936   3.738   7.470  1.1450  0.6266  0.3485
   20MOL   H94223780   3.013   3.588   7.722  1.2931  2.6324 -0.0276
   20MOL   H94323781   3.012   3.526   7.554  1.3620 -0.4209 -0.9158
   20MOL   H94423782   3.171   3.774   7.644 -2.3953  0.1170  0.1793
   20MOL   H94523783   3.247   3.637   7.682 -1.1562  0.4767  0.9555
   20MOL   H94623784   3.448   3.681   7.243 -0.0842  0.6554  0.7643
   20MOL   H94723785   3.281   3.707   7.223  1.4595  0.0496 -0.6666
   20MOL   H94823786   3.267   3.458   7.316  0.1062  1.3657  0.6070
   20MOL   H94923787   3.427   3.447   7.315 -0.5953 -2.8683 -0.9928
   20MOL   H95023788   3.396   3.510   7.045 -0.8587  0.4459 -0.7096
   20MOL   H95123789   3.226   3.511   7.090 -0.1423 -0.0970 -0.3050
   20MOL   H95223790   3.282   3.298   6.981  1.3174  1.0241  0.1586
   20MOL   H95323791   3.216   3.279   7.141  0.2302 -0.7221  0.1143
   20MOL   H95423792   3.521   3.244   7.063  0.1796  0.7156 -0.0170
   20MOL   H95523793   3.451   3.236   7.223 -0.2759 -1.8347  0.2971
   20MOL   H95623794   3.324   3.044   7.176  1.2596  2.4260  1.4714
   20MOL   H95723795   3.361   3.040   7.001 -2.8492 -1.4952  1.6831
   20MOL   H95823796   3.541   3.005   7.238 -0.3205  0.5909  0.1194
   20MOL   H95923797   3.605   3.030   7.076 -0.7321  0.4709 -0.0789
   20MOL   H96023798   3.614   2.789   7.155 -0.8215 -1.2275 -0.2787
   20MOL   H96123799   3.443   2.770   7.152 -0.7992  0.3872 -0.3781
   20MOL   O96223800   3.673   2.822   6.925  0.3812 -0.2794 -0.3548
   20MOL   C96323801   3.720   2.804   6.795  0.5651  0.1224  0.0697
   20MOL   C96423802   3.799   2.672   6.787 -0.6129 -0.1460 -0.7106
   20MOL   C96523803   3.930   2.661   6.869 -0.0830  0.2707 -0.5227
   20MOL   C96623804   3.993   2.528   6.834  0.6688 -0.6201  0.2659
   20MOL   C96723805   4.131   2.501   6.897 -0.3259  0.0012  0.2819
   20MOL   C96823806   4.178   2.354   6.884  0.2191  0.4845  0.8877
   20MOL   C96923807   4.305   2.337   6.959  0.1937  0.8015  1.5565
   20MOL   C97023808   4.358   2.190   6.973  0.2023  0.1326 -0.1550
   20MOL   C97123809   4.275   2.106   7.075  0.1562 -0.7755  0.2000
   20MOL   C97223810   4.315   1.955   7.097 -0.2273 -0.1658  0.2696
   20MOL   O97323811   4.423   1.941   7.180 -0.0620 -0.2330 -0.4848
   20MOL   C97423812   4.464   1.815   7.222 -0.6875  0.0142 -0.5470
   20MOL   O97523813   4.401   1.711   7.184 -0.0359 -0.1552  0.0649
   20MOL   C97623814   4.592   1.818   7.311  0.2008  1.1102 -0.1913
   20MOL   C97723815   4.620   1.704   7.397  0.0288  0.0688 -0.5022
   20MOL   C97823816   4.507   1.673   7.496  0.7294 -0.0425 -0.1154
   20MOL   C97923817   4.501   1.527   7.545  0.1048 -0.7963  0.2199
   20MOL   C98023818   4.393   1.506   7.645  0.2496  0.3276  0.0515
   20MOL   C98123819   4.376   1.355   7.676  0.0052 -0.7915 -0.1430
   20MOL   C98223820   4.279   1.325   0.028  0.1243 -0.2507 -0.1535
   20MOL   C98323821   4.346   1.349   0.171 -0.5503  0.1273  0.0224
   20MOL   C98423822   4.482   1.285   0.197  0.1326  0.2212 -0.3684
   20MOL   O98523823   4.580   1.353   0.223  0.4341 -0.5589  0.3688
   20MOL   H98623824   3.642   2.808   6.720 -0.3757 -0.1183  1.0194
   20MOL   H98723825   3.792   2.882   6.769  0.4949 -0.0472 -0.6178
   20MOL   H98823826   3.745   2.580   6.807  2.1461 -1.5115  0.7565
   20MOL   H98923827   3.832   2.663   6.683  0.9747 -2.9642 -0.0127
   20MOL   H99023828   3.993   2.747   6.845 -0.3396  1.0306  1.4565
   20MOL   H99123829   3.902   2.681   6.972 -2.4709  0.0736 -1.1077
   20MOL   H99223830   3.926   2.449   6.867 -0.8450  0.7776  0.5710
   20MOL   H99323831   4.004   2.532   6.726 -1.9885 -1.0591 -0.0498
   20MOL   H99423832   4.124   2.526   7.003 -0.2601  1.2020  0.0123
   20MOL   H99523833   4.205   2.573   6.862 -0.0585  0.2388  1.3203
   20MOL   H99623834   4.192   2.317   6.782 -1.6776  1.0530  0.3911
   20MOL   H99723835   4.101   2.290   6.927  1.4359 -1.8655 -0.3870
   20MOL   H99823836   4.295   2.366   7.064  0.8557 -1.6262  2.3322
   20MOL   H99923837   4.381   2.406   6.921  0.4565  0.2589  1.0941
   20MOL     H123838   4.461   2.194   7.008  0.5758 -0.0343 -1.2353
   20MOL     H223839   4.355   2.140   6.876  2.2378 -0.7887  0.2326
   20MOL     H323840   4.281   2.150   7.174  0.6328  0.6523 -0.4589
   20MOL     H423841   4.174   2.107   7.035  0.7207 -0.0498 -1.2895
   20MOL     H523842   4.222   1.906   7.127  0.5823 -1.6849  0.3775
   20MOL     H623843   4.350   1.918   7.001 -0.1405  0.4640  0.0612
   20MOL     H723844   4.583   1.903   7.379 -0.9595 -0.2679  1.4333
   20MOL     H823845   4.683   1.842   7.256  0.6663  0.3996  0.2521
   20MOL     H923846   4.712   1.718   7.453  0.2275 -1.1483 -0.5046
   20MOL    H1023847   4.636   1.618   7.332  1.8086  0.4398 -0.5900
   20MOL    H1123848   4.409   1.702   7.457  0.4708 -0.7550 -0.0052
   20MOL    H1223849   4.515   1.735   7.585  2.0463 -2.5106  1.5498
   20MOL    H1323850   4.593   1.510   7.602 -1.2785  2.1277  3.4929
   20MOL    H1423851   4.493   1.448   7.470 -0.4219 -1.5544  1.0686
   20MOL    H1523852   4.429   1.551   7.738  1.4383  0.7404 -0.5969
   20MOL    H1623853   4.298   1.555   7.626 -0.3551 -0.3523  1.2369
   20MOL    H1723854   4.340   1.301   7.589 -0.5104 -0.7531  0.0418
   20MOL    H1823855   4.478   1.321   7.694  0.0763  0.5960  2.3064
   20MOL    H1923856   4.245   1.222   0.020  0.5810 -0.3897 -0.2783
   20MOL    H2023857   4.190   1.389   0.019  0.2680  0.0168  0.3246
   20MOL    H2123858   4.342   1.456   0.193  0.5941  0.3176 -0.6435
   20MOL    H2223859   4.274   1.312   0.244 -0.0176  0.1695  0.5703
   20MOL    O2323860   4.484   1.155   0.177  0.7241  0.6618 -0.2165
   20MOL    C2423861   4.607   1.083   0.181  0.1036 -0.6943  0.7550
   20MOL    C2523862   4.582   0.936   0.143  0.4074  0.4177 -0.8221
   20MOL    C2623863   4.690   0.830   0.179  0.2943 -0.6436  0.6084
   20MOL    C2723864   4.652   0.703   0.103 -0.2574  0.2502 -0.0332
   20MOL    C2823865   4.758   0.595   0.123  0.4488 -0.0565  0.9282
   20MOL    C2923866   4.719   0.457   0.073  0.6277 -0.5266  0.1269
   20MOL    C3023867   4.829   0.354   0.091  0.1428  0.5918 -0.1497
   20MOL    C3123868   4.822   0.282   0.225  0.2164 -0.2823 -0.1347
   20MOL    C3223869   4.920   0.161   0.232  0.2385 -0.1660  0.5514
   20MOL    C3323870   4.920   0.088   0.364  0.9513 -0.2395 -0.3352
   20MOL    O3423871   4.997   7.733   0.364 -0.0911  0.2922 -0.2746
   20MOL    C3523872   5.039   7.679   0.478 -0.2204 -0.2089 -0.2925
   20MOL    O3623873   5.007   7.720   0.594 -0.3114  0.2201  0.1724
   20MOL    C3723874   5.114   7.546   0.455 -0.2035  0.4637  0.0970
   20MOL    C3823875   5.227   7.519   0.557  0.2588  0.2057 -0.1832
   20MOL    C3923876   5.350   7.600   0.520  0.3960  0.0908 -0.5690
   20MOL    C4023877   5.483   7.546   0.581 -0.1782  0.7019 -0.1237
   20MOL    C4123878   5.601   7.633   0.552 -0.1950 -0.1225  0.1205
   20MOL    C4223879   5.729   7.605   0.640  0.7598  0.7945  0.2545
   20MOL    C4323880   5.846   7.705   0.622  1.0488  0.2238  0.1575
   20MOL    C4423881   5.978   7.650   0.683 -0.3716  0.2501  0.0693
   20MOL    C4523882   6.097   7.738   0.646  0.3136 -0.4997 -0.1165
   20MOL    O4623883   6.095   0.088   0.583 -0.3267 -0.6421  0.2547
   20MOL    H4723884   4.679   1.134   0.117 -2.3881  2.2828  0.2111
   20MOL    H4823885   4.646   1.097   0.283 -0.4049  1.0451  0.7318
   20MOL    H4923886   4.490   0.904   0.192 -0.2817  2.1759 -0.9507
   20MOL    H5023887   4.548   0.929   0.040 -2.0162  0.4413 -0.0587
   20MOL    H5123888   4.789   0.859   0.142 -0.0053 -1.2863 -0.7394
   20MOL    H5223889   4.699   0.817   0.286 -0.3310  0.4930  0.8108
   20MOL    H5323890   4.558   0.667   0.144  0.8028 -0.0559  2.2134
   20MOL    H5423891   4.634   0.711   7.752 -1.1790 -1.1686  0.0195
   20MOL    H5523892   4.781   0.589   0.229 -0.4376  1.2342  1.2004
   20MOL    H5623893   4.850   0.629   0.075 -0.1513  0.9995  0.5057
   20MOL    H5723894   4.710   0.462   7.722 -1.4795  2.4307  0.3976
   20MOL    H5823895   4.624   0.413   0.103  0.3650 -1.7514 -2.3839
   20MOL    H5923896   4.930   0.394   0.080  0.6846 -0.1724  1.8388
   20MOL    H6023897   4.818   0.287   0.006 -0.0851  0.0691  0.2895
   20MOL    H6123898   4.724   0.248   0.259 -0.2366  0.3963 -0.7428
   20MOL    H6223899   4.847   0.354   0.304  1.3328 -2.1674  1.2802
   20MOL    H6323900   4.878   0.087   0.163 -3.2521  0.5010  1.8293
   20MOL    H6423901   5.016   0.202   0.202 -0.6447  1.5369  0.0023
   20MOL    H6523902   4.957   0.156   0.440  0.8223  0.6992 -1.1035
   20MOL    H6623903   4.817   0.070   0.394  0.7417 -1.4755 -1.7195
   20MOL    H6723904   5.156   7.540   0.354 -1.6664  0.0377 -0.4976
   20MOL    H6823905   5.045   7.461   0.460  0.3358  0.0156 -0.0072
   20MOL    H6923906   5.257   7.414   0.551 -2.9161 -0.8537  1.5375
   20MOL    H7023907   5.203   7.538   0.661 -1.5170  1.7968 -0.8632
   20MOL    H7123908   5.327   7.699   0.559  3.1936  0.2098  0.8984
   20MOL    H7223909   5.362   7.622   0.414 -0.0217  0.1816 -0.5989
   20MOL    H7323910   5.498   7.440   0.560 -1.1067  0.0049  2.6245
   20MOL    H7423911   5.468   7.530   0.687 -0.6352 -3.4634 -0.7256
   20MOL    H7523912   5.622   7.640   0.445 -0.5433  1.4907  0.1430
   20MOL    H7623913   5.578   7.735   0.583  0.4358  0.3475 -0.9230
   20MOL    H7723914   5.710   7.604   0.747 -2.2222 -0.4324 -0.2512
   20MOL    H7823915   5.765   7.505   0.618 -2.2611 -0.3449  0.3135
   20MOL    H7923916   5.822   0.047   0.663 -1.1985  0.9256 -2.6779
   20MOL    H8023917   5.849   7.712   0.513 -1.5812 -2.1779 -0.1337
   20MOL    H8123918   5.954   7.632   0.788 -2.3767  2.6436  0.0897
   20MOL    H8223919   5.992   7.551   0.640  0.2148  0.5239 -0.3712
   20MOL    O8323920   6.200   7.690   0.709  0.2586 -0.5338  0.6699
   20MOL    C8423921   6.316   0.013   0.730 -0.6600 -0.2627  0.0055
   20MOL    C8523922   6.401   7.702   0.833 -0.2982 -0.1502  0.3622
   20MOL    C8623923   6.534   0.033   0.855 -0.2508  0.1720 -0.0304
   20MOL    C8723924   6.656   7.721   0.924  0.1169  0.7188 -0.1949
   20MOL    C8823925   6.731   7.606   0.842  0.1333 -0.7128  0.0276
   20MOL    C8923926   6.834   7.534   0.931  0.2834  0.7749  0.4911
   20MOL    C9023927   6.967   7.610   0.951 -0.3639  0.1929 -0.3060
   20MOL    C9123928   7.060   7.530   1.045 -0.3110 -0.2112  0.6565
   20MOL    C9223929   7.199   7.592   1.076 -0.2544  0.2688 -0.4788
   20MOL    C9323930   7.190   7.721   1.147  0.1129  0.0689 -0.3054
   20MOL    O9423931   7.314   0.024   1.151  0.0473 -0.1553 -0.0615
   20MOL    C9523932   7.389   0.033   1.267 -0.5603 -0.0550  0.5103
   20MOL    O9623933   7.359   7.737   1.369  0.0025 -0.6552  0.1110
   20MOL    C9723934   7.520   0.112   1.245  1.4658  0.7994 -0.2290
   20MOL    C9823935   7.620   0.036   1.156  0.1462 -0.0307 -0.5292
   20MOL    C9923936   7.724   0.134   1.091 -0.1939 -0.1215 -0.1232
   20MOL   C10023937   0.052   0.061   0.991 -0.0973  0.2915  0.3197
   20MOL   C10123938   0.170   0.143   0.923 -0.2892 -1.0217 -0.2716
   20MOL   C10223939   0.309   0.129   0.989  0.1514  0.1097 -0.5575
   20MOL   C10323940   0.389   0.006   0.929 -0.0556  0.4186  0.3776
   20MOL   C10423941   0.528   7.748   0.985  0.0171  0.2959  0.2329
   20MOL   C10523942   0.626   0.079   0.910 -0.0118 -0.0735  0.3456
   20MOL   O10623943   0.669   0.180   0.959  0.2730  0.5848  0.6740
   20MOL   H10723944   6.371   0.020   0.636  3.3286 -0.8153  2.1484
   20MOL   H10823945   6.290   0.116   0.754 -2.0577 -0.6808  0.3353
   20MOL   H10923946   6.350   7.699   0.929  1.1351  0.1809  1.1523
   20MOL   H11023947   6.407   7.601   0.792  1.8054 -0.2107  0.7676
   20MOL   H11123948   6.562   0.067   0.755  0.6018 -0.2672  0.0496
   20MOL   H11223949   6.509   0.127   0.903 -1.0556  0.7024 -1.4752
   20MOL   H11323950   6.731   0.040   0.950  0.8797 -0.1419  0.1458
   20MOL   H11423951   6.626   7.687   1.023 -0.9881  1.1647 -0.3632
   20MOL   H11523952   6.773   7.647   0.750 -2.1904  0.2390 -0.6381
   20MOL   H11623953   6.664   7.528   0.806  0.1122 -1.2674  1.2743
   20MOL   H11723954   6.849   7.440   0.879  1.0886  1.1910 -0.0327
   20MOL   H11823955   6.791   7.519   1.030 -0.6715 -3.9514 -0.5289
   20MOL   H11923956   6.948   7.707   0.998  1.5827  0.5532 -0.2143
   20MOL   H12023957   7.012   7.627   0.854  0.5883 -0.2952  0.0424
   20MOL   H12123958   7.064   7.428   1.007  0.2530  0.4621 -1.1223
   20MOL   H12223959   7.005   7.523   1.139 -0.9691 -0.9745  0.2258
   20MOL   H12323960   7.250   7.521   1.141 -2.2278  0.0760  0.8820
   20MOL   H12423961   7.256   7.603   0.984 -2.4306  0.1106 -1.8885
   20MOL   H12523962   7.132   0.030   1.082  3.0481  0.3108 -2.7537
   20MOL   H12623963   7.135   7.727   1.241  0.1864 -1.7782 -0.1147
   20MOL   H12723964   7.553   0.125   1.348 -0.5471  2.1974  0.2591
   20MOL   H12823965   7.490   0.206   1.199  1.3586  1.7387  1.7442
   20MOL   H12923966   7.563   7.748   1.075 -1.8107 -2.4041  2.0331
   20MOL   H13023967   7.665   7.714   1.215  1.8544 -2.0243 -4.3351
   20MOL   H13123968   0.022   0.183   1.172  0.5231  1.3142 -1.4358
   20MOL   H13223969   7.675   0.213   1.035 -0.8150  0.4150  1.1548
   20MOL   H13323970   7.745   0.031   0.909  0.0960 -1.2747  0.7329
   20MOL   H13423971   0.095   7.729   1.038 -1.3054 -0.0321  0.8276
   20MOL   H13523972   0.165   0.118   0.817 -2.5919  0.1123 -0.4665
   20MOL   H13623973   0.144   0.248   0.927  0.2078 -0.9474  1.7738
   20MOL   H13723974   0.374   0.217   0.982  2.7898 -1.7678 -0.0558
   20MOL   H13823975   0.303   0.116   1.097 -0.3544  0.4143 -0.5457
   20MOL   H13923976   0.385   0.013   0.821 -1.7972  1.4903  0.4842
   20MOL   H14023977   0.337   7.670   0.952  0.5830  0.4052  1.8560
   20MOL   H14123978   0.524   0.037   1.084  0.0482 -2.7479  1.7193
   20MOL   H14223979   0.562   7.644   0.985 -0.6814  0.0571 -2.0415
   20MOL   O14323980   0.652   0.047   0.783  0.1205  0.3300  0.1007
   20MOL   C14423981   0.720   0.132   0.704  0.2492 -0.6838 -0.0767
   20MOL   C14523982   0.615   0.200   0.618 -0.2366  0.3012  0.8121
   20MOL   C14623983   0.545   0.316   0.682  0.3773  0.1715  0.1207
   20MOL   C14723984   0.493   0.435   0.593 -0.5103  1.3047  0.3282
   20MOL   C14823985   0.394   0.535   0.660 -0.3444  0.4718  0.3133
   20MOL   C14923986   0.260   0.478   0.701  0.2372 -0.1534  0.6086
   20MOL   C15023987   0.155   0.583   0.741 -0.1326 -0.9270 -0.3151
   20MOL   C15123988   0.078   0.635   0.625 -0.0438 -0.6597  0.6258
   20MOL   C15223989   7.705   0.718   0.663  0.0003 -0.2927  0.1820
   20MOL   C15323990   7.632   0.771   0.538 -0.2586  0.2133 -0.8032
   20MOL   O15423991   7.516   0.832   0.598 -0.6189 -0.6220  0.5963
   20MOL   C15523992   7.450   0.926   0.543  0.4356  0.0402 -0.1543
   20MOL   O15623993   7.473   0.978   0.436  0.0867  0.0007  0.2463
   20MOL   C15723994   7.329   0.980   0.617  0.3598 -0.1523 -0.1136
   20MOL   C15823995   7.200   0.943   0.552 -0.4038 -0.2650  0.6551
   20MOL   C15923996   7.067   0.977   0.619  0.0552 -0.8836 -0.1099
   20MOL   C16023997   6.944   0.909   0.552 -0.6174  0.0201 -0.3432
   20MOL   C16123998   6.816   0.954   0.629  0.3496  0.5123 -0.4275
   20MOL   C16223999   6.693   0.866   0.597  0.2686  0.7521  0.0098
   20MOL   C16324000   6.568   0.908   0.677  0.2311 -0.2214 -0.3246
   20MOL   C16424001   6.547   1.060   0.698 -0.1338 -0.2905  0.0107
   20MOL   C16524002   6.540   1.143   0.567  0.4379  0.2558  0.2530
   20MOL   O16624003   6.515   1.087   0.454 -0.1417  0.2230 -0.2083
   20MOL   H16724004   0.787   0.201   0.756 -0.4858  0.6580 -0.8644
   20MOL   H16824005   0.781   0.073   0.636 -1.0989 -2.5536  0.3096
   20MOL   H16924006   0.658   0.236   0.525  0.1203 -3.7388 -0.6415
   20MOL   H17024007   0.543   0.125   0.585 -0.5270  0.6258  0.6983
   20MOL   H17124008   0.459   0.272   0.732  0.6385 -0.1097  0.3164
   20MOL   H17224009   0.615   0.349   0.758  1.0639 -1.9306  0.4349
   20MOL   H17324010   0.585   0.482   0.557 -1.2341  2.2793 -0.2735
   20MOL   H17424011   0.448   0.383   0.508  0.6258  1.5452 -0.4291
   20MOL   H17524012   0.356   0.612   0.592 -0.6514 -0.3536 -0.4633
   20MOL   H17624013   0.430   0.592   0.746  1.1571 -1.6318  1.1110
   20MOL   H17724014   0.269   0.413   0.788 -0.9148  0.6390  1.3285
   20MOL   H17824015   0.218   0.411   0.625  0.3120  1.0930 -0.5470
   20MOL   H17924016   0.179   0.675   0.794 -1.4495  0.8023 -2.6372
   20MOL   H18024017   0.086   0.530   0.807  0.0924 -1.4118 -0.4692
   20MOL   H18124018   0.034   0.548   0.576  1.8796 -0.6643 -1.1479
   20MOL   H18224019   0.126   0.695   0.548 -0.8512 -0.8154 -0.0079
   20MOL   H18324020   7.655   0.649   0.730  2.6603 -3.7892 -1.3097
   20MOL   H18424021   7.735   0.805   0.721 -1.5435 -0.0915  0.6958
   20MOL   H18524022   7.691   0.841   0.479 -1.0123  2.6251  1.1708
   20MOL   H18624023   7.600   0.700   0.462 -3.3561 -0.7113  1.2480
   20MOL   H18724024   7.337   1.088   0.633  2.0488 -0.3134  0.2679
   20MOL   H18824025   7.322   0.937   0.717 -0.8589 -2.3393 -1.0971
   20MOL   H18924026   7.207   0.838   0.520 -1.8921 -0.2688  0.3398
   20MOL   H19024027   7.197   0.992   0.455 -2.1538 -0.2565  0.6983
   20MOL   H19124028   7.059   1.086   0.621  0.8246 -0.8290  0.4292
   20MOL   H19224029   7.055   0.944   0.722 -0.5162 -1.4552 -0.3602
   20MOL   H19324030   6.951   0.800   0.559 -1.4030 -0.0732 -0.9107
   20MOL   H19424031   6.942   0.928   0.445 -0.3055 -0.9445 -0.5261
   20MOL   H19524032   6.834   0.950   0.736  0.1110  0.9799 -0.3666
   20MOL   H19624033   6.794   1.059   0.608  0.2006  0.5182 -0.2422
   20MOL   H19724034   6.680   0.866   0.488  1.5631 -3.0310 -0.2133
   20MOL   H19824035   6.721   0.762   0.612  1.8631  1.1450 -0.0987
   20MOL   H19924036   6.575   0.863   0.776  0.4840  1.3923  0.4080
   20MOL   H20024037   6.480   0.871   0.624 -0.4487  1.1902 -0.1951
   20MOL   H20124038   6.445   1.070   0.734  0.4444 -0.4400  1.7038
   20MOL   H20224039   6.613   1.107   0.770  1.5187 -1.5950 -0.6090
   20MOL   H20324040   6.558   1.250   0.574  0.8128  0.2291 -0.2894
   21MOL     O124041   1.417   4.969   4.502  0.0382  0.4689 -0.6432
   21MOL     C224042   1.427   4.838   4.456  0.1109  0.2127  0.4979
   21MOL     C324043   1.523   4.745   4.533  0.1355  0.5122  0.4887
   21MOL     C424044   1.660   4.797   4.510  0.8012 -0.1270 -0.2478
   21MOL     C524045   1.779   4.726   4.587 -0.2830  0.0987 -0.2172
   21MOL     C624046   1.829   4.596   4.525 -0.1854 -0.1874 -0.1050
   21MOL     C724047   1.915   4.599   4.408 -0.4866 -0.3707  0.2432
   21MOL     C824048   1.970   4.466   4.369  0.5060  0.1617 -0.3483
   21MOL     C924049   2.126   4.453   4.383 -0.8889  0.2518  0.8000
   21MOL    C1024050   2.169   4.308   4.413 -0.5833 -0.1965 -0.3616
   21MOL    C1124051   2.320   4.284   4.430  0.3202 -0.1008 -0.1828
   21MOL    O1224052   2.334   4.146   4.444  0.6827  0.7609  0.3413
   21MOL    C1324053   2.461   4.104   4.478  0.3724 -0.5503 -0.0034
   21MOL    O1424054   2.550   4.183   4.506 -0.2946 -0.3333 -0.2255
   21MOL    C1524055   2.483   3.949   4.477  0.3673  1.1182 -1.3711
   21MOL    C1624056   2.617   3.908   4.428 -0.9267 -0.3628  0.4325
   21MOL    C1724057   2.618   3.884   4.276  0.2565  0.7643 -0.1483
   21MOL    C1824058   2.639   4.016   4.192  0.5132 -0.1486 -0.0730
   21MOL    C1924059   2.776   4.081   4.207  0.6065 -1.0107 -0.3334
   21MOL    C2024060   2.817   4.197   4.115  0.6863  0.1186  0.0154
   21MOL    C2124061   2.839   4.154   3.965  0.3837  0.0751 -0.2168
   21MOL    C2224062   2.889   4.265   3.865  0.5382  0.2232  0.8359
   21MOL    C2324063   2.899   4.217   3.726  0.4155  0.4168  0.2341
   21MOL    O2424064   2.960   4.120   3.698 -0.2523  0.0630  0.1486
   21MOL    H2524065   1.329   4.792   4.443 -0.7420  2.1837 -0.0519
   21MOL    H2624066   1.461   4.824   4.353 -1.2366 -0.4748  0.1387
   21MOL    H2724067   1.494   4.732   4.637 -0.8179 -2.5100 -0.0964
   21MOL    H2824068   1.523   4.650   4.479  1.2115 -0.7686  2.6810
   21MOL    H2924069   1.685   4.788   4.404 -0.1197  0.9961 -0.5680
   21MOL    H3024070   1.663   4.903   4.535 -2.0096 -0.5864  2.3108
   21MOL    H3124071   1.867   4.790   4.586 -0.0553 -0.2168 -1.1023
   21MOL    H3224072   1.759   4.712   4.693 -0.0352  0.0432 -0.1777
   21MOL    H3324073   1.743   4.530   4.514  0.9524 -1.6120 -0.6252
   21MOL    H3424074   1.891   4.546   4.600 -0.8310  0.6541  1.0121
   21MOL    H3524075   1.993   4.675   4.412 -3.1788  2.5004  0.9108
   21MOL    H3624076   1.846   4.647   4.339  0.4377  1.4432  0.5475
   21MOL    H3724077   1.946   4.446   4.264  0.2985  2.1882 -0.6987
   21MOL    H3824078   1.921   4.378   4.411  0.4301  1.5197  2.5143
   21MOL    H3924079   2.170   4.527   4.450  1.2963 -0.1799 -0.1147
   21MOL    H4024080   2.180   4.478   4.292 -0.4302 -1.6404  0.5466
   21MOL    H4124081   2.124   4.290   4.511 -0.8172 -1.5691 -0.6968
   21MOL    H4224082   2.123   4.235   4.346 -1.5578  0.4247 -0.3790
   21MOL    H4324083   2.372   4.309   4.338 -0.9921  1.5779 -0.4970
   21MOL    H4424084   2.346   4.336   4.523  1.7391 -2.3173  0.6969
   21MOL    H4524085   2.403   3.902   4.419  0.1278  1.0698 -1.0039
   21MOL    H4624086   2.470   3.923   4.582  0.2767  0.4735 -1.5379
   21MOL    H4724087   2.667   3.821   4.472  1.9244 -0.0796 -2.0766
   21MOL    H4824088   2.696   3.974   4.463 -0.8585  0.1405 -0.6433
   21MOL    H4924089   2.523   3.834   4.258  0.6832  0.0602 -0.4469
   21MOL    H5024090   2.702   3.818   4.255  0.2664  1.0330 -0.9634
   21MOL    H5124091   2.556   4.084   4.213 -0.9828 -0.7302 -3.8112
   21MOL    H5224092   2.614   3.983   4.092 -1.6256 -2.0750  1.0558
   21MOL    H5324093   2.780   4.120   4.309  1.2777 -3.9187  0.7951
   21MOL    H5424094   2.854   4.008   4.229  2.4577  0.8148 -0.7071
   21MOL    H5524095   2.750   4.282   4.127 -0.5520 -0.8317 -0.0213
   21MOL    H5624096   2.906   4.238   4.162  0.7350 -2.2172  2.0100
   21MOL    H5724097   2.747   4.119   3.918  0.4222 -0.4310  0.0924
   21MOL    H5824098   2.903   4.067   3.953 -0.7082 -0.5443 -1.7001
   21MOL    H5924099   2.816   4.344   3.852 -2.0217 -2.4558 -1.7540
   21MOL    H6024100   2.984   4.309   3.896  0.3744  0.4183  1.0671
   21MOL    H6124101   1.370   4.963   4.584  0.9549 -1.9166 -0.2386
   21MOL    O6224102   2.826   4.289   3.637 -0.2882 -0.0374 -0.0990
   21MOL    C6324103   2.823   4.260   3.496  0.7330  0.0449 -0.7454
   21MOL    C6424104   2.751   4.377   3.428  0.2609  0.8299  0.0322
   21MOL    C6524105   2.734   4.363   3.277 -0.1715 -0.7032  0.0415
   21MOL    C6624106   2.676   4.488   3.201 -0.4301 -0.3051  0.1903
   21MOL    C6724107   2.726   4.514   3.052  0.3173  0.4898 -0.5479
   21MOL    C6824108   2.677   4.645   2.976  0.3660  0.4128 -0.0354
   21MOL    C6924109   2.735   4.654   2.836  0.2280 -0.3776  0.0679
   21MOL    C7024110   2.682   4.787   2.769 -0.0657  0.2064 -0.7216
   21MOL    C7124111   2.702   4.799   2.619  0.7663 -0.3661  0.0650
   21MOL    C7224112   2.709   4.944   2.574  0.2600  0.0675  0.3462
   21MOL    O7324113   2.567   4.976   2.554  0.1016 -0.6176 -0.1672
   21MOL    C7424114   2.526   5.099   2.514 -0.1707  0.3810  0.2636
   21MOL    O7524115   2.586   5.203   2.541  0.3128 -0.0223 -0.5522
   21MOL    C7624116   2.379   5.098   2.494  0.7963 -0.1216  0.1525
   21MOL    C7724117   2.310   5.235   2.465  0.7905  0.5119 -0.7134
   21MOL    C7824118   2.163   5.207   2.459  0.0817  0.0370 -0.1742
   21MOL    C7924119   2.074   5.332   2.477  0.1597  0.5111  0.1607
   21MOL    C8024120   2.065   5.388   2.613 -0.4763 -0.2085  0.2488
   21MOL    C8124121   1.984   5.519   2.610  0.2693  0.0519  0.0858
   21MOL    C8224122   1.966   5.575   2.747 -0.1788 -0.1217 -0.2200
   21MOL    C8324123   1.890   5.711   2.754  0.6308  0.0068  0.0955
   21MOL    C8424124   1.741   5.697   2.716 -0.3624 -0.7343  0.5382
   21MOL    O8524125   1.666   5.628   2.790 -0.0209  0.1818 -0.1249
   21MOL    H8624126   2.920   4.247   3.447  1.0807  0.3721 -0.1541
   21MOL    H8724127   2.766   4.170   3.474 -1.0199  0.4538  1.8844
   21MOL    H8824128   2.653   4.387   3.475  0.3094 -0.1816  0.3709
   21MOL    H8924129   2.805   4.470   3.443 -0.6335  1.4074 -0.2678
   21MOL    H9024130   2.831   4.329   3.241 -0.8346 -2.3507 -0.2089
   21MOL    H9124131   2.661   4.287   3.251 -2.5675  1.7184 -0.4552
   21MOL    H9224132   2.568   4.496   3.203 -0.3040  1.4415  0.5006
   21MOL    H9324133   2.702   4.579   3.254 -1.5367  0.5758 -0.7675
   21MOL    H9424134   2.698   4.433   2.985 -0.8736 -2.9210  3.7623
   21MOL    H9524135   2.835   4.516   3.051  0.3925 -0.4026  2.1332
   21MOL    H9624136   2.710   4.732   3.034 -2.3415  2.1304 -0.9648
   21MOL    H9724137   2.568   4.643   2.976  0.3345 -3.9390  1.9258
   21MOL    H9824138   2.699   4.570   2.777 -0.9519  0.2381 -0.1013
   21MOL    H9924139   2.844   4.658   2.843  0.2419 -0.7305  0.0784
   21MOL   H10024140   2.732   4.874   2.812 -0.1843  0.1078 -0.3801
   21MOL   H10124141   2.576   4.793   2.794 -0.2085  0.4198 -1.3638
   21MOL   H10224142   2.792   4.750   2.583 -0.4580 -1.9871 -0.8974
   21MOL   H10324143   2.626   4.736   2.572  2.8700 -1.3133 -2.1989
   21MOL   H10424144   2.747   5.020   2.643 -1.2837  0.1495  1.1197
   21MOL   H10524145   2.753   4.955   2.475  0.7194  1.5548  0.6941
   21MOL   H10624146   2.338   5.054   2.585 -0.1685  0.5412  0.0401
   21MOL   H10724147   2.350   5.024   2.419  0.3118  2.7302 -2.5954
   21MOL   H10824148   2.334   5.279   2.369 -0.7917  1.4344 -0.6979
   21MOL   H10924149   2.341   5.307   2.541 -1.9204  0.6693  0.2927
   21MOL   H11024150   2.137   5.128   2.530  2.1009 -0.8226 -0.3772
   21MOL   H11124151   2.150   5.179   2.355  1.3130  0.7558 -0.5276
   21MOL   H11224152   1.974   5.302   2.447  0.4242  0.2666 -0.4844
   21MOL   H11324153   2.110   5.415   2.415 -0.8533  0.6838 -0.2113
   21MOL   H11424154   2.015   5.308   2.669  1.3411 -0.3517  1.7196
   21MOL   H11524155   2.162   5.399   2.660 -0.3589  0.2477 -0.1056
   21MOL   H11624156   2.029   5.584   2.535  0.0322 -2.1324 -2.0242
   21MOL   H11724157   1.886   5.498   2.568  0.4308 -0.1787 -0.1803
   21MOL   H11824158   2.059   5.610   2.793 -0.2391  0.8072 -0.7806
   21MOL   H11924159   1.916   5.501   2.809 -1.6451  0.9766 -0.0699
   21MOL   H12024160   1.898   5.754   2.853  2.1096  0.3141 -0.1488
   21MOL   H12124161   1.929   5.784   2.683 -1.2839  0.2810 -0.7045
   21MOL   O12224162   1.714   5.755   2.598 -0.3748 -0.8260  0.4282
   21MOL   C12324163   1.595   5.724   2.524 -0.1022  0.0622  0.3529
   21MOL   C12424164   1.533   5.847   2.470  0.0392  0.2834 -0.1927
   21MOL   C12524165   1.400   5.825   2.388 -0.1252  0.1703  0.6644
   21MOL   C12624166   1.346   5.960   2.358 -0.3109 -0.5867  0.6953
   21MOL   C12724167   1.227   5.955   2.265 -0.1744  0.0313  0.5163
   21MOL   C12824168   1.152   6.086   2.246  0.1394 -1.1403 -0.0789
   21MOL   C12924169   1.028   6.067   2.160 -0.1969 -0.8343  0.6431
   21MOL   C13024170   0.941   6.189   2.125 -0.7331  0.0447 -0.8728
   21MOL   C13124171   1.014   6.302   2.055 -0.7888  1.2107 -0.2753
   21MOL   C13224172   0.919   6.405   1.996 -0.6022  0.1906  0.4504
   21MOL   O13324173   0.873   6.361   1.873  1.1251 -0.7447 -0.6566
   21MOL   C13424174   0.793   6.438   1.790 -0.1185 -0.6709 -0.6869
   21MOL   O13524175   0.735   6.547   1.822  0.0366  0.7513  0.1974
   21MOL   C13624176   0.784   6.376   1.644 -0.1241 -0.5828  0.4585
   21MOL   C13724177   0.793   6.483   1.538 -0.0318 -0.5884  0.6071
   21MOL   C13824178   0.923   6.561   1.547  0.0343  0.1568  0.1716
   21MOL   C13924179   0.953   6.633   1.420  0.0685 -0.9612 -0.1360
   21MOL   C14024180   1.100   6.678   1.430 -0.4479  0.4171  0.7089
   21MOL   C14124181   1.132   6.767   1.309  0.1971  1.1550  0.1254
   21MOL   C14224182   1.049   6.892   1.294  0.3097  1.0341 -0.8791
   21MOL   C14324183   1.094   6.978   1.174 -0.3685  0.0427  0.5564
   21MOL   C14424184   1.066   6.915   1.035 -0.3087 -0.3511  0.1262
   21MOL   O14524185   1.136   6.933   0.935 -0.6103  0.3889 -0.1203
   21MOL   H14624186   1.612   5.654   2.442  0.6460 -0.8107  1.2407
   21MOL   H14724187   1.526   5.672   2.591  2.4467 -2.7142  0.9430
   21MOL   H14824188   1.499   5.913   2.549 -0.1727  0.0310 -0.0730
   21MOL   H14924189   1.606   5.903   2.412  2.4988  0.4427  2.9438
   21MOL   H15024190   1.437   5.768   2.302 -2.0419 -0.7827  0.4637
   21MOL   H15124191   1.330   5.763   2.444 -0.8964 -0.5696 -1.0946
   21MOL   H15224192   1.304   6.013   2.443  0.9593 -1.0782  1.6569
   21MOL   H15324193   1.424   6.023   2.315 -1.0601 -0.5837 -0.6810
   21MOL   H15424194   1.160   5.886   2.316  0.9312 -0.5168  1.2493
   21MOL   H15524195   1.255   5.916   2.167 -0.7184  0.0844  0.3384
   21MOL   H15624196   1.212   6.164   2.200 -1.6611  1.6536  2.1031
   21MOL   H15724197   1.120   6.121   2.344  0.1725 -1.5359  0.0759
   21MOL   H15824198   0.968   5.984   2.197  1.0349 -1.8465  0.3680
   21MOL   H15924199   1.057   6.019   2.067  2.5351  1.3234  0.3060
   21MOL   H16024200   0.888   6.239   2.206 -1.0800  1.3241 -1.8615
   21MOL   H16124201   0.867   6.167   2.048 -1.2722  0.7535 -0.5582
   21MOL   H16224202   1.076   6.351   2.130  0.8011 -1.6440  0.3538
   21MOL   H16324203   1.094   6.269   1.989 -1.3669  0.0388 -0.4046
   21MOL   H16424204   0.837   6.436   2.061 -1.4891  0.4296 -0.7784
   21MOL   H16524205   0.972   6.500   1.989 -1.8592  0.7934 -1.0750
   21MOL   H16624206   0.688   6.324   1.643 -2.5575  3.6507  0.3122
   21MOL   H16724207   0.871   6.312   1.632 -1.5156 -2.1206 -1.8829
   21MOL   H16824208   0.703   6.543   1.553 -0.8533 -1.9322  1.1949
   21MOL   H16924209   0.783   6.431   1.443 -0.3259 -2.2031  1.4959
   21MOL   H17024210   1.003   6.493   1.573 -0.1481 -0.5794 -1.1520
   21MOL   H17124211   0.927   6.634   1.628 -0.1691  1.4910 -0.9995
   21MOL   H17224212   0.889   6.720   1.422  0.9828 -0.2991  2.2986
   21MOL   H17324213   0.926   6.568   1.336  1.1306 -2.4498  0.6509
   21MOL   H17424214   1.121   6.721   1.528 -1.4875  2.2837  0.1231
   21MOL   H17524215   1.175   6.598   1.431  2.2216  2.8248  2.1436
   21MOL   H17624216   1.239   6.789   1.305  0.4719 -0.5402 -2.6420
   21MOL   H17724217   1.118   6.706   1.220 -3.8908  0.2320  1.2866
   21MOL   H17824218   1.051   6.939   1.392  0.3748  0.7843 -0.7606
   21MOL   H17924219   0.943   6.872   1.283  0.0736  1.9682 -0.3616
   21MOL   H18024220   1.033   7.068   1.165 -0.9480 -0.4784 -0.8666
   21MOL   H18124221   1.202   6.995   1.171 -0.4223 -0.0578 -3.7519
   21MOL   O18224222   0.954   6.844   1.041  0.0089  0.0632  0.1930
   21MOL   C18324223   0.907   6.779   0.927 -0.4648  0.3622  0.0103
   21MOL   C18424224   0.786   6.698   0.949 -0.6490  0.1111 -0.0336
   21MOL   C18524225   0.729   6.634   0.818  0.3963  0.8112 -0.3603
   21MOL   C18624226   0.615   6.540   0.852  0.9056  0.3021 -1.1351
   21MOL   C18724227   0.535   6.502   0.726 -0.8832  0.1205  0.3477
   21MOL   C18824228   0.419   6.405   0.754  0.1579 -0.1666  0.3893
   21MOL   C18924229   0.403   6.299   0.638 -0.3752 -0.2613  0.1054
   21MOL   C19024230   0.287   6.199   0.658 -0.5612 -0.4411 -0.1419
   21MOL   C19124231   0.304   6.071   0.570 -0.1807 -0.5736 -0.0379
   21MOL   C19224232   0.242   6.101   0.429 -0.4509  0.2080 -0.0032
   21MOL   O19324233   0.328   6.173   0.346 -0.4096  0.2127  0.1967
   21MOL   C19424234   0.332   6.164   0.210 -0.4706 -0.0336 -0.2373
   21MOL   O19524235   0.258   6.105   0.129 -0.3542 -0.3930  0.3901
   21MOL   C19624236   0.451   6.240   0.156 -0.5562 -1.0227  0.5661
   21MOL   C19724237   0.460   6.388   0.182 -0.9205  0.3728 -0.2704
   21MOL   C19824238   0.600   6.432   0.232  0.6093  0.3920 -0.4078
   21MOL   C19924239   0.604   6.571   0.304  0.2117  0.4305  0.9787
   21MOL   C20024240   0.741   6.619   0.337 -0.0966  0.0227 -1.2212
   21MOL   C20124241   0.746   6.749   0.425 -0.0603  1.1855  0.2548
   21MOL   C20224242   0.883   6.792   0.476  0.1863 -0.1562  0.0436
   21MOL   C20324243   0.876   6.899   0.588  0.4520  0.0188  0.9239
   21MOL   C20424244   0.911   7.035   0.533  0.9542 -0.1026  0.8125
   21MOL   O20524245   0.839   7.132   0.536  0.1031  0.0954 -0.2208
   21MOL   H20624246   0.891   6.858   0.853 -0.2661  0.7936  0.4286
   21MOL   H20724247   0.989   6.724   0.881 -0.4402  1.1484 -0.9208
   21MOL   H20824248   0.802   6.622   1.026  1.6311 -0.6709 -1.2252
   21MOL   H20924249   0.712   6.768   0.987  1.6821  2.3188  0.5766
   21MOL   H21024250   0.710   6.706   0.738 -0.4518  0.3329 -0.6008
   21MOL   H21124251   0.808   6.571   0.777 -1.0523 -1.0424 -0.3814
   21MOL   H21224252   0.651   6.449   0.899 -0.2072  0.5197  0.1691
   21MOL   H21324253   0.551   6.590   0.925 -0.2960 -2.6722 -0.0792
   21MOL   H21424254   0.597   6.456   0.648 -2.3283 -0.9231 -0.2002
   21MOL   H21524255   0.514   6.603   0.689 -0.4028  0.8509  1.9997
   21MOL   H21624256   0.321   6.452   0.758 -0.0826 -0.6411  0.1801
   21MOL   H21724257   0.446   6.352   0.846 -0.1698  2.5046  2.0696
   21MOL   H21824258   0.495   6.241   0.639 -0.7337 -0.8423  1.6846
   21MOL   H21924259   0.390   6.343   0.539  1.0421  1.4089  0.6441
   21MOL   H22024260   0.185   6.238   0.652 -0.4229  0.4299  2.3823
   21MOL   H22124261   0.293   6.164   0.761 -0.9335 -1.0093 -0.3140
   21MOL   H22224262   0.403   6.024   0.568 -1.0293 -2.4098 -0.4168
   21MOL   H22324263   0.242   5.992   0.613  1.3108 -2.4825 -1.3409
   21MOL   H22424264   0.219   6.010   0.374 -1.2442  0.3232  0.1347
   21MOL   H22524265   0.149   6.155   0.446  0.8430  2.7196 -0.5751
   21MOL   H22624266   0.465   6.233   0.048 -0.2300  2.3503  0.3182
   21MOL   H22724267   0.540   6.186   0.186 -0.2937 -1.4600 -0.9383
   21MOL   H22824268   0.387   6.423   0.255  0.9901  0.0137  1.8389
   21MOL   H22924269   0.438   6.445   0.091 -2.9942  0.6916  0.3952
   21MOL   H23024270   0.675   6.436   0.153  0.7246 -1.5212 -0.4154
   21MOL   H23124271   0.623   6.359   0.310 -3.0783  0.6689  1.0469
   21MOL   H23224272   0.541   6.559   0.392 -1.6747  0.5012 -0.3037
   21MOL   H23324273   0.545   6.643   0.246  0.4387  0.5254  0.8670
   21MOL   H23424274   0.796   6.540   0.389  0.8909 -0.8689 -3.5400
   21MOL   H23524275   0.789   6.617   0.240 -1.0019  0.0032 -1.6731
   21MOL   H23624276   0.711   6.837   0.371 -0.4694 -0.1471 -1.6776
   21MOL   H23724277   0.685   6.748   0.515  1.1449  0.0085  1.0709
   21MOL   H23824278   0.951   6.823   0.397 -0.6422 -1.9536 -1.4359
   21MOL   H23924279   0.940   6.709   0.519 -0.3302 -0.3243  0.4114
   21MOL   H24024280   0.782   6.901   0.643 -1.6473  1.2861 -2.5557
   21MOL   H24124281   0.954   6.876   0.660 -0.6192 -1.9518  1.5072
   21MOL   O24224282   1.037   7.033   0.494  0.4077  0.3965 -0.0396
   21MOL   C24324283   1.094   7.160   0.449  0.9624 -0.8294 -0.2567
   21MOL   C24424284   1.137   7.251   0.570 -0.3178  0.0752  0.0710
   21MOL   C24524285   1.198   7.172   0.687 -0.0367 -0.0969  0.3978
   21MOL   C24624286   1.293   7.250   0.774  0.6679  0.2947  0.3058
   21MOL   C24724287   1.375   7.163   0.877  0.2296 -0.8463 -0.1869
   21MOL   C24824288   1.495   7.230   0.945 -0.0914  0.1134 -0.0533
   21MOL   C24924289   1.457   7.361   1.030 -0.5868 -0.3399  0.3018
   21MOL   C25024290   1.442   7.498   0.958 -0.6286  0.3263 -0.6306
   21MOL   C25124291   1.434   7.624   1.043 -0.0700  0.4529 -0.1541
   21MOL   C25224292   1.454   7.749   0.967 -0.4907 -0.0809  0.0914
   21MOL   O25324293   1.458   0.093   1.072  0.2148  0.1987  0.2434
   21MOL   C25424294   1.477   0.221   1.047  0.2261  0.1491 -0.2588
   21MOL   O25524295   1.521   0.273   0.944 -0.4131  0.0766  0.2190
   21MOL   C25624296   1.448   0.303   1.168  0.0053 -0.3687  0.1234
   21MOL   C25724297   1.312   0.371   1.153 -0.4130 -0.3861 -0.6297
   21MOL   C25824298   1.230   0.397   1.278  0.5225  0.5522  0.0178
   21MOL   C25924299   1.100   0.471   1.241  0.3441 -0.4629  0.2911
   21MOL   C26024300   1.016   0.508   1.369  0.4006  0.3240  0.3590
   21MOL   C26124301   0.900   0.597   1.334 -0.2141  0.1668  0.2945
   21MOL   C26224302   0.823   0.630   1.465  0.1062  0.0345 -0.4461
   21MOL   C26324303   0.685   0.694   1.452 -0.5123 -0.4597  0.2787
   21MOL   C26424304   0.681   0.814   1.356  0.0144 -0.2974 -0.5934
   21MOL   O26524305   0.583   0.835   1.291 -0.1714 -0.5369 -0.1291
   21MOL   H26624306   1.173   7.129   0.381  0.5066 -0.0763 -1.1461
   21MOL   H26724307   1.020   7.219   0.395 -0.1838  1.0997  3.2574
   21MOL   H26824308   1.213   7.316   0.527 -1.0381  0.8321 -0.0906
   21MOL   H26924309   1.057   7.315   0.609  0.4059  2.4207 -2.1939
   21MOL   H27024310   1.122   7.141   0.759 -0.5668  0.2923  0.0026
   21MOL   H27124311   1.261   7.090   0.652  0.0810  0.5090 -0.8202
   21MOL   H27224312   1.359   7.300   0.703 -0.1078 -2.5685 -2.5343
   21MOL   H27324313   1.236   7.328   0.825  1.4508  0.5668  0.7610
   21MOL   H27424314   1.415   7.070   0.835  1.9293 -0.9277  1.4993
   21MOL   H27524315   1.305   7.134   0.955 -2.2029 -2.5399 -2.9071
   21MOL   H27624316   1.570   7.253   0.869 -1.8916  1.6479 -1.4098
   21MOL   H27724317   1.536   7.166   1.023  0.4352 -1.6882 -1.7632
   21MOL   H27824318   1.536   7.372   1.105  0.5518  1.9791 -1.2056
   21MOL   H27924319   1.379   7.328   1.099 -1.1191 -0.0008 -0.1368
   21MOL   H28024320   1.357   7.490   0.891 -0.7910  0.1567 -0.4050
   21MOL   H28124321   1.529   7.507   0.894 -1.1839 -1.1797 -1.6325
   21MOL   H28224322   1.345   7.622   1.105 -0.3141 -1.3902 -0.5093
   21MOL   H28324323   1.510   7.615   1.121  1.3702  0.1392 -1.5546
   21MOL   H28424324   1.556   0.002   0.928 -0.5361 -0.3800 -0.1039
   21MOL   H28524325   1.384   0.012   0.885  0.5147  0.3884 -0.6777
   21MOL   H28624326   1.522   0.382   1.181 -0.8025  0.3871  0.2265
   21MOL   H28724327   1.446   0.243   1.258 -2.1837  1.3055  1.2446
   21MOL   H28824328   1.255   0.308   1.086 -0.2698  0.5043 -1.5986
   21MOL   H28924329   1.314   0.459   1.088  2.3236  1.4041  1.7097
   21MOL   H29024330   1.288   0.454   1.350  3.3214 -1.2755 -0.7363
   21MOL   H29124331   1.221   0.305   1.335  0.7107  0.6796  0.2549
   21MOL   H29224332   1.044   0.433   1.156  2.1086 -0.1578 -1.0309
   21MOL   H29324333   1.121   0.565   1.191 -2.4843  0.4718  0.7662
   21MOL   H29424334   0.977   0.418   1.417 -1.0129  1.3169  1.1039
   21MOL   H29524335   1.085   0.554   1.440  1.3688  0.3765 -0.6118
   21MOL   H29624336   0.935   0.686   1.281 -0.9972 -0.4595 -1.3108
   21MOL   H29724337   0.829   0.552   1.263  0.5296  0.5304 -0.6912
   21MOL   H29824338   0.884   0.700   1.522 -1.4925 -0.0682  1.4559
   21MOL   H29924339   0.813   0.537   1.521  0.4959 -0.5356 -1.3213
   21MOL   H30024340   0.622   0.619   1.404 -0.2808  1.1447 -2.6435
   21MOL   H30124341   0.641   0.715   1.549 -1.4998 -1.4759  0.0633
   21MOL   O30224342   0.786   0.889   1.366 -0.3590  0.2971  0.1469
   21MOL   C30324343   0.782   1.023   1.312 -0.7374  0.1715  0.2613
   21MOL   C30424344   0.924   1.051   1.272  0.4835 -0.5613 -1.0531
   21MOL   C30524345   0.942   1.183   1.199  0.3629  0.0541 -0.3944
   21MOL   C30624346   0.963   1.309   1.284  0.3199  0.2120 -0.4924
   21MOL   C30724347   1.065   1.414   1.227 -0.1168 -0.0696 -0.2003
   21MOL   C30824348   1.055   1.541   1.318 -0.1947  0.5275  0.1296
   21MOL   C30924349   1.129   1.668   1.275 -0.5126 -0.4717  0.6020
   21MOL   C31024350   1.081   1.800   1.357  0.1785  0.3281 -0.2069
   21MOL   C31124351   1.140   1.928   1.302  0.0245  0.4374  0.3930
   21MOL   C31224352   1.085   2.049   1.376  0.3603  0.5384  0.0557
   21MOL   O31324353   1.076   2.155   1.289 -0.3590 -0.0591 -0.2837
   21MOL   C31424354   1.039   2.274   1.328  0.2242 -0.2719 -0.3089
   21MOL   O31524355   0.993   2.304   1.437 -0.4025  0.5123 -0.1406
   21MOL   C31624356   1.073   2.380   1.219 -0.3305  0.4874 -0.5487
   21MOL   C31724357   0.987   2.374   1.090 -0.2711 -0.1309 -0.6075
   21MOL   C31824358   0.836   2.389   1.109 -0.0624  0.2311  0.1436
   21MOL   C31924359   0.742   2.388   0.985 -0.3319 -0.1520 -0.1714
   21MOL   C32024360   0.601   2.361   1.024  0.0622  0.4028  0.1041
   21MOL   C32124361   0.501   2.367   0.911  0.5629 -0.2269 -0.2553
   21MOL   C32224362   0.466   2.509   0.859  0.0810 -0.1641 -0.0160
   21MOL   C32324363   0.349   2.495   0.759 -0.2091 -0.8109 -0.2974
   21MOL   C32424364   0.254   2.613   0.761  0.1665  0.0727 -0.5863
   21MOL   O32524365   0.252   2.696   0.857 -0.2253  0.6445  0.1381
   21MOL   H32624366   0.719   1.025   1.223  0.0124 -2.0261 -0.3572
   21MOL   H32724367   0.738   1.094   1.382 -0.4259  0.2310  0.4005
   21MOL   H32824368   0.985   1.036   1.360 -1.4505  1.8642  0.7925
   21MOL   H32924369   0.956   0.973   1.203  1.2709  1.9770 -3.6822
   21MOL   H33024370   1.026   1.178   1.129  1.8632 -1.0183  1.4489
   21MOL   H33124371   0.853   1.199   1.137 -1.5390 -3.4113  1.3199
   21MOL   H33224372   0.869   1.361   1.301  0.9140  1.0037  0.4053
   21MOL   H33324373   0.999   1.278   1.382  1.4942 -2.6699 -1.7553
   21MOL   H33424374   1.041   1.437   1.123 -2.9169  0.6439  0.5608
   21MOL   H33524375   1.161   1.365   1.243  0.4189  1.3025  0.8433
   21MOL   H33624376   1.069   1.527   1.425 -0.8464 -0.8860  0.0405
   21MOL   H33724377   0.947   1.553   1.322 -0.4936 -1.6293 -0.8034
   21MOL   H33824378   1.124   1.669   1.166  0.3032  0.8669  0.5701
   21MOL   H33924379   1.236   1.663   1.293 -0.2625  1.3313 -0.2738
   21MOL   H34024380   1.103   1.788   1.463 -1.5525  3.5849  0.6075
   21MOL   H34124381   0.973   1.811   1.352 -0.1460 -2.5641 -0.3719
   21MOL   H34224382   1.248   1.936   1.320  0.2106 -1.5747  0.2927
   21MOL   H34324383   1.119   1.938   1.196 -1.8297  0.3601  0.7478
   21MOL   H34424384   0.986   2.036   1.418 -0.4637  0.0485 -1.9498
   21MOL   H34524385   1.152   2.069   1.459  0.6480 -0.0867 -0.0231
   21MOL   H34624386   1.182   2.380   1.207 -0.1617  0.0789  0.8684
   21MOL   H34724387   1.052   2.475   1.267 -2.0530  0.9493 -2.1619
   21MOL   H34824388   1.007   2.279   1.040 -1.3811 -0.1603 -0.9936
   21MOL   H34924389   1.016   2.464   1.035  0.1205  0.5061  0.6122
   21MOL   H35024390   0.812   2.474   1.173  3.5017  0.1667  1.6776
   21MOL   H35124391   0.811   2.299   1.165 -0.5587  1.0374  1.2449
   21MOL   H35224392   0.769   2.313   0.910  0.1844  1.0347 -1.1930
   21MOL   H35324393   0.740   2.475   0.919  0.9468  1.1779  1.5020
   21MOL   H35424394   0.605   2.260   1.066  0.0805 -0.2651 -1.4805
   21MOL   H35524395   0.571   2.420   1.111 -1.2203  1.5293 -1.0712
   21MOL   H35624396   0.534   2.303   0.829 -0.9943  0.1680 -1.2111
   21MOL   H35724397   0.409   2.317   0.938  1.3265 -0.7422  1.4556
   21MOL   H35824398   0.549   2.561   0.811 -1.2321  0.9975 -1.1091
   21MOL   H35924399   0.437   2.568   0.946  1.8458  0.1140  0.3925
   21MOL   H36024400   0.380   2.479   0.655  0.8955 -0.6744  0.0089
   21MOL   H36124401   0.290   2.408   0.787 -1.1572  0.3527  1.3987
   21MOL   O36224402   0.170   2.608   0.662  0.6242  0.5938 -0.3700
   21MOL   C36324403   0.052   2.685   0.667  0.1580  0.2595  0.1546
   21MOL   C36424404   0.057   2.805   0.570 -0.0176  0.2187  0.1154
   21MOL   C36524405   7.689   2.895   0.573  0.7687  0.5877 -0.0802
   21MOL   C36624406   7.705   3.007   0.468 -0.2308 -0.3356  0.3740
   21MOL   C36724407   7.628   3.143   0.487  0.4667 -0.0586 -0.8682
   21MOL   C36824408   7.688   3.234   0.595 -1.1561 -0.6479  0.0460
   21MOL   C36924409   7.672   3.191   0.744  0.2455  0.5673  0.4150
   21MOL   C37024410   7.715   3.299   0.846 -0.5729 -0.2353  0.1966
   21MOL   C37124411   7.671   3.270   0.990  0.4212 -0.1857  0.1733
   21MOL   C37224412   7.723   3.368   1.098 -0.3236 -0.2936  0.1995
   21MOL   O37324413   0.110   3.350   1.097  0.0326  0.3908  0.4426
   21MOL   C37424414   0.182   3.385   1.205 -0.4031  0.6042 -0.8948
   21MOL   O37524415   0.140   3.430   1.311  0.1165  0.2495  0.8780
   21MOL   C37624416   0.332   3.367   1.174 -0.6132  0.4739  0.0985
   21MOL   C37724417   0.404   3.497   1.193  0.2155 -0.1599  0.2777
   21MOL   C37824418   0.556   3.482   1.229 -0.1299  0.2563  0.2008
   21MOL   C37924419   0.646   3.444   1.110 -0.2251  0.5330 -0.0136
   21MOL   C38024420   0.804   3.467   1.119  0.7835 -0.3060 -0.3195
   21MOL   C38124421   0.871   3.394   1.232  0.1028 -0.3239  0.3305
   21MOL   C38224422   0.857   3.241   1.217  0.1870  0.2960  0.0702
   21MOL   C38324423   0.955   3.155   1.305  0.6970 -0.6251  0.7966
   21MOL   C38424424   0.907   3.138   1.449 -0.2517 -0.3819 -0.4470
   21MOL   O38524425   0.984   3.140   1.545  0.8212  0.0894  0.8841
   21MOL   H38624426   7.732   2.613   0.638  1.3407 -0.2154 -1.9003
   21MOL   H38724427   0.031   2.726   0.765  0.7421  1.1240 -0.0825
   21MOL   H38824428   0.151   2.854   0.596  0.7830  0.6972 -3.3718
   21MOL   H38924429   0.062   2.763   0.470  2.0323 -3.2778  1.6235
   21MOL   H39024430   7.597   2.846   0.541  1.5196  0.5913 -2.2858
   21MOL   H39124431   7.673   2.929   0.676 -1.3756  0.5778 -0.3739
   21MOL   H39224432   0.054   3.033   0.468 -0.8899  2.4527  0.5774
   21MOL   H39324433   7.672   2.958   0.377 -0.4810 -2.1053  1.3892
   21MOL   H39424434   7.522   3.133   0.510  0.5585 -1.3767 -0.9551
   21MOL   H39524435   7.633   3.208   0.399  0.1691  0.5115 -0.4667
   21MOL   H39624436   7.652   3.335   0.580 -1.4650 -0.9211 -1.1330
   21MOL   H39724437   0.037   3.247   0.571 -1.3230 -0.3638 -0.5542
   21MOL   H39824438   7.725   3.100   0.771  2.3257  1.5981 -0.0344
   21MOL   H39924439   7.564   3.179   0.751  0.2459 -0.0638 -0.5898
   21MOL   H40024440   7.701   3.403   0.815  0.7389 -0.5451 -1.5442
   21MOL   H40124441   0.067   3.286   0.840 -0.1675  2.7521  0.2793
   21MOL   H40224442   7.562   3.260   0.992  0.4491 -0.6458 -0.5622
   21MOL   H40324443   7.696   3.169   1.023  3.0232 -0.3178 -2.0296
   21MOL   H40424444   7.720   3.472   1.065  0.8337 -0.2183  0.3145
   21MOL   H40524445   7.688   3.355   1.201  1.6000  0.4441  0.9591
   21MOL   H40624446   0.339   3.324   1.074 -0.6762 -2.0247  1.1100
   21MOL   H40724447   0.383   3.293   1.236  2.0549  2.2967  0.1555
   21MOL   H40824448   0.367   3.558   1.275  0.6689  0.1270  0.2723
   21MOL   H40924449   0.386   3.558   1.105  1.3517 -1.2248 -0.7049
   21MOL   H41024450   0.573   3.416   1.314  0.4790  1.0038  0.6684
   21MOL   H41124451   0.581   3.581   1.267 -1.6084 -0.8534  4.3287
   21MOL   H41224452   0.604   3.497   1.025 -2.9201  1.5276  1.8600
   21MOL   H41324453   0.616   3.341   1.089 -0.9488  0.6277  0.4966
   21MOL   H41424454   0.838   3.430   1.022 -1.5881 -1.5995 -0.6938
   21MOL   H41524455   0.841   3.569   1.123  3.1147 -1.0515 -1.9978
   21MOL   H41624456   0.976   3.424   1.229  0.3646 -1.3082 -2.1750
   21MOL   H41724457   0.833   3.424   1.329 -2.4680  1.1662 -1.0957
   21MOL   H41824458   0.883   3.206   1.118 -0.5409 -0.2924  0.0895
   21MOL   H41924459   0.753   3.213   1.234  0.6289 -0.8452  0.9491
   21MOL   H42024460   0.988   3.061   1.261  1.3443  0.0343 -0.1270
   21MOL   H42124461   1.049   3.210   1.304  0.0934  0.4649 -2.2325
   21MOL   O42224462   0.780   3.104   1.454 -0.4005  0.3680  1.3768
   21MOL   C42324463   0.724   3.056   1.580  0.5621  0.1160 -0.2779
   21MOL   C42424464   0.618   3.151   1.630  0.1193 -0.2056 -0.3532
   21MOL   C42524465   0.667   3.294   1.632 -0.1352 -0.0577 -0.0690
   21MOL   C42624466   0.577   3.387   1.702 -0.0613  0.0254 -0.4578
   21MOL   C42724467   0.598   3.533   1.672 -0.3475 -0.0424 -0.3767
   21MOL   C42824468   0.481   3.623   1.703 -0.0668  0.3555  0.0184
   21MOL   C42924469   0.346   3.619   1.617 -0.1129 -0.2649 -0.0383
   21MOL   C43024470   0.233   3.689   1.691  0.7738 -0.3966 -0.6857
   21MOL   C43124471   0.094   3.637   1.647 -0.1991 -0.0886  0.4712
   21MOL   C43224472   7.727   3.707   1.714 -0.3362  0.2158  0.3167
   21MOL   O43324473   7.719   3.653   1.843  0.2739  0.1322 -0.3948
   21MOL   C43424474   7.619   3.569   1.866 -0.0496 -0.1070  0.6048
   21MOL   O43524475   7.531   3.543   1.786  0.0212  0.2678 -0.3507
   21MOL   C43624476   7.634   3.489   1.992  0.9172 -0.1324 -0.0445
   21MOL   C43724477   7.645   3.567   2.128 -0.2516  0.0186  0.3488
   21MOL   C43824478   7.513   3.623   2.174  0.8170  0.6738  0.4260
   21MOL   C43924479   7.511   3.699   2.301 -0.3696  0.4607 -0.4737
   21MOL   C44024480   7.363   3.711   2.357  0.4275 -1.3669  0.7313
   21MOL   C44124481   7.360   3.740   2.507 -0.0075 -1.1508 -0.3046
   21MOL   C44224482   7.434   3.861   2.553 -0.1126 -0.2053  0.0608
   21MOL   C44324483   7.389   3.921   2.691 -0.0207 -0.7980 -0.5306
   21MOL   C44424484   7.243   3.965   2.708 -0.0849  0.4824 -0.4360
   21MOL   O44524485   7.168   3.969   2.608  0.0178  0.4485  0.6836
   21MOL   H44624486   0.677   2.964   1.545  0.0662  0.4048 -0.3789
   21MOL   H44724487   0.793   3.034   1.661 -3.0633 -1.1418  2.6195
   21MOL   H44824488   0.529   3.144   1.568  0.4540 -2.3038 -0.6289
   21MOL   H44924489   0.588   3.112   1.727 -0.3299  0.2883 -0.2911
   21MOL   H45024490   0.763   3.305   1.683 -0.7175 -0.2622  1.0941
   21MOL   H45124491   0.686   3.326   1.530  1.3510  1.4231  0.6381
   21MOL   H45224492   0.478   3.363   1.664 -0.4053 -2.1214  1.6935
   21MOL   H45324493   0.561   3.375   1.809  2.1245  2.3445  0.1983
   21MOL   H45424494   0.609   3.545   1.564 -0.4387  3.7652 -0.0290
   21MOL   H45524495   0.675   3.576   1.736  0.1513  3.0577 -2.9467
   21MOL   H45624496   0.523   3.724   1.700  0.9759 -0.1107 -2.1012
   21MOL   H45724497   0.466   3.607   1.810 -4.3539 -1.2770 -0.7333
   21MOL   H45824498   0.317   3.514   1.612 -0.6757 -0.1104 -0.0287
   21MOL   H45924499   0.355   3.642   1.511  1.4571 -2.5811 -0.4559
   21MOL   H46024500   0.247   3.796   1.681 -1.0358 -0.0097  0.6931
   21MOL   H46124501   0.236   3.672   1.799  3.4227 -0.0805 -0.6616
   21MOL   H46224502   0.092   3.652   1.539  0.7728 -0.5091  0.3910
   21MOL   H46324503   0.081   3.532   1.672  2.0029 -0.0901  1.7926
   21MOL   H46424504   7.738   3.815   1.720  0.8381  0.0816  0.6914
   21MOL   H46524505   7.644   3.696   1.645  1.2943  0.6762 -1.7742
   21MOL   H46624506   7.728   3.436   1.979  0.8455 -0.5433  1.0614
   21MOL   H46724507   7.545   3.426   2.001 -0.1434  1.2207 -0.7580
   21MOL   H46824508   7.714   3.650   2.117  2.4240 -2.0574  0.9063
   21MOL   H46924509   7.691   3.497   2.198 -1.0088 -0.3604  0.4809
   21MOL   H47024510   7.436   3.546   2.175  1.1749  0.2962 -0.6324
   21MOL   H47124511   7.461   3.686   2.101  1.8574  1.9081  0.7188
   21MOL   H47224512   7.549   3.801   2.295 -0.9571  1.0340  4.1207
   21MOL   H47324513   7.571   3.645   2.374  0.4420  0.9458 -0.7747
   21MOL   H47424514   7.297   3.776   2.299  0.8290 -1.1142  0.5573
   21MOL   H47524515   7.317   3.613   2.343  1.4757 -1.5257 -2.1186
   21MOL   H47624516   7.258   3.761   2.542  0.3143  2.0036 -1.0727
   21MOL   H47724517   7.383   3.652   2.567 -1.0631 -1.2087  0.0374
   21MOL   H47824518   7.411   3.943   2.485 -2.5189 -0.0048  1.0461
   21MOL   H47924519   7.542   3.850   2.550 -0.4088 -3.0504 -1.6186
   21MOL   H48024520   7.417   3.852   2.771  0.6626 -0.0023 -0.0783
   21MOL   H48124521   7.454   4.007   2.703 -2.5279  0.9704  0.8549
   21MOL   O48224522   7.215   4.012   2.826  0.0472 -0.0223  0.0512
   21MOL   C48324523   7.087   4.079   2.861 -0.4711  0.0688  0.0836
   21MOL   C48424524   7.075   4.121   3.009 -0.3582  0.1163  0.0991
   21MOL   C48524525   7.197   4.209   3.052  0.6624  0.4416 -0.3662
   21MOL   C48624526   7.195   4.232   3.202 -0.1555 -0.3062  0.1750
   21MOL   C48724527   7.299   4.322   3.259  0.0733  0.4114  0.4326
   21MOL   C48824528   7.295   4.320   3.412 -0.2328 -0.2962  0.1992
   21MOL   C48924529   7.384   4.417   3.489 -0.0066 -0.1483 -0.9231
   21MOL   C49024530   7.384   4.431   3.648 -0.0024  0.8661  0.2431
   21MOL   C49124531   7.474   4.544   3.708  0.4731 -0.9230 -0.5877
   21MOL   C49224532   7.440   4.567   3.852  0.2182 -0.4970  0.8310
   21MOL   O49324533   7.481   4.452   3.920 -0.8790 -0.6315 -0.1431
   21MOL   C49424534   7.478   4.452   4.052 -0.6483  0.1397  0.4885
   21MOL   O49524535   7.435   4.544   4.129  0.1283 -0.4179  0.5994
   21MOL   C49624536   7.544   4.321   4.104 -0.0006  0.7635  0.1114
   21MOL   C49724537   7.450   4.204   4.099  0.4611  0.2730  0.0984
   21MOL   C49824538   7.444   4.132   3.964 -0.1480 -0.5650  0.4581
   21MOL   C49924539   7.565   4.033   3.936 -0.5064  0.7384 -0.7529
   21MOL   C50024540   7.551   3.914   4.030 -0.1795  0.2267  0.8649
   21MOL   C50124541   7.644   3.799   3.986  0.6157 -0.3648 -0.1753
   21MOL   C50224542   7.615   3.669   4.065 -0.1224  0.0654  0.4439
   21MOL   C50324543   7.714   3.553   4.031  0.3215  0.5241  0.6447
   21MOL   C50424544   7.688   3.426   4.107  0.0076 -0.0357  0.1863
   21MOL   O50524545   7.593   3.409   4.177  0.0623 -0.1501 -0.0223
   21MOL   H50624546   7.074   4.165   2.795 -0.4137  0.1796  0.2174
   21MOL   H50724547   6.997   4.021   2.837  0.7917 -1.7088 -0.4449
   21MOL   H50824548   6.981   4.173   3.026  0.2187  1.6616 -1.2795
   21MOL   H50924549   7.085   4.035   3.076  0.0889  1.3799  1.6954
   21MOL   H51024550   7.288   4.161   3.017  1.3760  2.1249 -0.8318
   21MOL   H51124551   7.193   4.307   3.005 -0.7458  0.1081 -0.9509
   21MOL   H51224552   7.092   4.267   3.217  0.5148  1.0446  1.8310
   21MOL   H51324553   7.200   4.134   3.250  0.2219  0.7593  2.3883
   21MOL   H51424554   7.294   4.424   3.221 -1.4012  0.2927  0.2993
   21MOL   H51524555   7.393   4.279   3.223 -0.9440 -0.8002 -0.8610
   21MOL   H51624556   7.323   4.217   3.435  1.1245  0.5016  2.2775
   21MOL   H51724557   7.193   4.314   3.450  0.3020 -3.1603  1.2918
   21MOL   H51824558   7.350   4.517   3.461 -1.6913 -0.8418 -1.3952
   21MOL   H51924559   7.481   4.395   3.445  0.3554 -1.3592  0.4486
   21MOL   H52024560   7.424   4.342   3.697 -1.7061  0.1297  0.3133
   21MOL   H52124561   7.283   4.446   3.687  0.7193  1.5087  1.9215
   21MOL   H52224562   7.579   4.519   3.693  0.4127 -0.7291 -1.3679
   21MOL   H52324563   7.464   4.642   3.662 -1.3928 -0.3193  1.0326
   21MOL   H52424564   7.499   4.656   3.873 -0.0011 -0.1256 -0.1243
   21MOL   H52524565   7.333   4.584   3.846  0.6347  1.6278 -1.3037
   21MOL   H52624566   7.568   4.342   4.208 -0.4607  1.4560  0.0812
   21MOL   H52724567   7.640   4.302   4.055 -0.0946  0.5319  0.0185
   21MOL   H52824568   7.352   4.238   4.133 -0.4936 -0.9592 -1.3452
   21MOL   H52924569   7.496   4.134   4.169  1.6936  0.4787 -0.4800
   21MOL   H53024570   7.445   4.207   3.884  0.4730 -2.4207 -1.3310
   21MOL   H53124571   7.348   4.080   3.954  0.8565 -2.2428 -0.8865
   21MOL   H53224572   7.657   4.091   3.950  0.8130 -1.5187  0.1614
   21MOL   H53324573   7.558   4.003   3.831  1.2205  2.5208 -1.4246
   21MOL   H53424574   7.575   3.939   4.133 -3.0700  1.4761  1.2746
   21MOL   H53524575   7.447   3.882   4.033 -0.5566  1.4786  1.8178
   21MOL   H53624576   7.642   3.767   3.882 -0.0228 -0.6184 -0.0851
   21MOL   H53724577   7.749   3.823   4.003  0.1426  1.5292  0.1284
   21MOL   H53824578   7.512   3.642   4.044 -0.3355  0.3926  1.0579
   21MOL   H53924579   7.602   3.680   4.173 -0.2531  2.9055  0.1654
   21MOL   H54024580   7.711   3.540   3.923  1.2868  1.1815  0.5329
   21MOL   H54124581   0.060   3.566   4.066  0.2905  3.8963 -0.3822
   21MOL   O54224582   0.020   3.334   4.077 -0.5107 -0.0902 -0.6241
   21MOL   C54324583   0.020   3.212   4.154 -0.2143  0.6832 -0.4143
   21MOL   C54424584   0.134   3.117   4.111 -1.2041 -0.3959 -0.0262
   21MOL   C54524585   0.134   3.077   3.959  0.0050  0.9095 -0.0655
   21MOL   C54624586   0.249   2.981   3.911 -0.6711  0.0077 -0.7332
   21MOL   C54724587   0.221   2.919   3.777  0.4823 -0.0243  0.2662
   21MOL   C54824588   0.316   2.813   3.734  0.5247  0.2375  0.0544
   21MOL   C54924589   0.308   2.778   3.585 -0.5208  1.1583 -0.2741
   21MOL   C55024590   0.383   2.652   3.546 -0.0434  0.0052  0.0600
   21MOL   C55124591   0.528   2.675   3.510  0.0736 -0.6223 -0.1335
   21MOL   C55224592   0.601   2.542   3.470  0.6372  0.0216 -1.0322
   21MOL   O55324593   0.590   2.517   3.332 -0.1208  0.3234 -0.1019
   21MOL   C55424594   0.674   2.428   3.272 -0.8956  0.8412  0.6354
   21MOL   O55524595   0.758   2.351   3.318 -0.2382 -0.4163 -0.4850
   21MOL   C55624596   0.645   2.435   3.121 -0.1154 -0.8087 -0.7470
   21MOL   C55724597   0.698   2.315   3.044  0.0302 -0.6471 -0.3693
   21MOL   C55824598   0.642   2.292   2.903  0.2902  0.3051  1.0695
   21MOL   C55924599   0.726   2.206   2.806  0.0915  0.4169 -0.9401
   21MOL   C56024600   0.663   2.193   2.670  0.3261 -0.3971 -0.2917
   21MOL   C56124601   0.753   2.112   2.584 -0.1013 -0.1034 -0.1859
   21MOL   C56224602   0.682   2.089   2.448  0.2448  0.0060 -0.4295
   21MOL   C56324603   0.775   2.046   2.332 -0.1599 -0.3512  1.1810
   21MOL   C56424604   0.825   1.896   2.326  0.9158  0.8915  0.7473
   21MOL   O56524605   0.778   1.808   2.257  0.5469  0.5670 -0.4035
   21MOL   H56624606   0.017   3.244   4.258 -0.3988 -2.9576  0.7763
   21MOL   H56724607   7.680   3.163   4.144  0.3842 -0.2892 -1.5825
   21MOL   H56824608   0.234   3.154   4.135 -2.8106  1.7771  3.7357
   21MOL   H56924609   0.113   3.018   4.153 -0.5390 -0.4024  0.2952
   21MOL   H57024610   0.041   3.023   3.940  0.7618  0.0721 -1.4572
   21MOL   H57124611   0.127   3.159   3.887 -0.5747  4.4105  3.7700
   21MOL   H57224612   0.343   3.036   3.900 -0.2246 -0.7468 -0.7609
   21MOL   H57324613   0.271   2.903   3.984  1.7739 -0.3136 -1.7432
   21MOL   H57424614   0.212   2.996   3.700  0.3025  0.3228  0.6333
   21MOL   H57524615   0.127   2.865   3.787  0.7521 -0.0643  2.8701
   21MOL   H57624616   0.299   2.725   3.796 -2.2032  1.0665  0.5551
   21MOL   H57724617   0.415   2.856   3.746 -0.1954  3.0942 -3.3109
   21MOL   H57824618   0.356   2.862   3.534 -1.3376  1.2176 -0.9430
   21MOL   H57924619   0.202   2.766   3.564 -0.7568 -1.2190  2.0138
   21MOL   H58024620   0.327   2.609   3.462 -0.2057  1.0696 -0.3876
   21MOL   H58124621   0.372   2.570   3.617 -0.8380 -0.6681 -0.8247
   21MOL   H58224622   0.534   2.747   3.428 -1.8843  0.1802  0.4143
   21MOL   H58324623   0.584   2.718   3.592  1.3193  1.3206 -1.9535
   21MOL   H58424624   0.708   2.543   3.490  0.4236  0.8575  0.1137
   21MOL   H58524625   0.576   2.454   3.530  1.2563 -0.2576 -1.1835
   21MOL   H58624626   0.685   2.531   3.090  2.3569 -1.3012  0.7803
   21MOL   H58724627   0.537   2.450   3.108  0.5279  4.7832 -0.8057
   21MOL   H58824628   0.671   2.222   3.094 -1.3455  0.4136  0.9090
   21MOL   H58924629   0.803   2.336   3.058  0.2299 -1.1865 -0.9940
   21MOL   H59024630   0.623   2.387   2.854 -0.6266 -1.7180 -2.7188
   21MOL   H59124631   0.540   2.255   2.913 -0.7599  2.3657 -1.5166
   21MOL   H59224632   0.745   2.106   2.844 -0.8769  0.6832  0.2912
   21MOL   H59324633   0.828   2.243   2.802  0.6794 -1.3521 -3.5407
   21MOL   H59424634   0.573   2.132   2.678  0.4768 -0.6664 -0.6252
   21MOL   H59524635   0.637   2.287   2.621 -0.3598  0.2731  1.3384
   21MOL   H59624636   0.839   2.176   2.564  0.1311 -0.6147 -0.8296
   21MOL   H59724637   0.781   2.024   2.642 -2.9581 -0.0411  1.3509
   21MOL   H59824638   0.627   2.181   2.427 -0.4399 -0.3835 -0.3555
   21MOL   H59924639   0.607   2.013   2.471 -0.6736  0.9587 -0.2535
   21MOL   H60024640   0.719   2.060   2.240  1.3382 -1.2571  0.1212
   21MOL   H60124641   0.856   2.119   2.336 -1.7435  1.5360 -0.0389
   21MOL   O60224642   0.920   1.881   2.416 -0.1004 -0.3585  0.1714
   21MOL   C60324643   0.992   1.758   2.443  0.2644 -0.1879  0.1033
   21MOL   C60424644   1.029   1.747   2.583  0.0974  0.3222 -0.1243
   21MOL   C60524645   1.084   1.610   2.614 -0.3723 -0.2474  0.1128
   21MOL   C60624646   1.117   1.607   2.766 -0.5036  0.3112 -0.0528
   21MOL   C60724647   1.177   1.472   2.827  0.0616 -0.5352  0.2558
   21MOL   C60824648   1.305   1.429   2.739  0.4783  0.2013 -0.4978
   21MOL   C60924649   1.431   1.510   2.757  0.0500  0.5631 -0.7416
   21MOL   C61024650   1.547   1.458   2.679 -0.0459 -0.0553 -0.6445
   21MOL   C61124651   1.678   1.530   2.701 -0.4623 -0.5339  0.4669
   21MOL   C61224652   1.791   1.487   2.604 -0.5475  0.3543  0.4904
   21MOL   O61324653   1.828   1.344   2.623  0.8098 -0.2502 -0.0475
   21MOL   C61424654   1.895   1.313   2.727  0.0215 -0.3741 -0.3727
   21MOL   O61524655   1.967   1.387   2.801  0.3984 -0.2857  0.8649
   21MOL   C61624656   1.894   1.163   2.748  0.6097  0.0808 -0.2015
   21MOL   C61724657   1.750   1.107   2.774  0.7908  0.0880  0.0453
   21MOL   C61824658   1.666   1.167   2.893 -0.3742 -0.5434 -0.0892
   21MOL   C61924659   1.529   1.092   2.907  0.4837  0.1354  0.2008
   21MOL   C62024660   1.447   1.126   3.037  0.0092  0.1222 -0.1334
   21MOL   C62124661   1.305   1.055   3.053 -0.2371 -0.9201 -0.4187
   21MOL   C62224662   1.268   1.041   3.198 -0.0849 -0.1231  0.4919
   21MOL   C62324663   1.126   0.988   3.214 -0.1602 -0.4445 -0.6835
   21MOL   C62424664   1.105   0.911   3.342 -0.3075 -0.5687  0.2576
   21MOL   O62524665   1.191   0.889   3.428 -0.0188 -0.2214  0.2346
   21MOL   H62624666   0.931   1.670   2.422  0.7996 -0.4940 -0.1759
   21MOL   H62724667   1.078   1.749   2.377  1.1790  2.1739  0.9415
   21MOL   H62824668   1.104   1.820   2.613 -0.1266 -0.4398  2.3414
   21MOL   H62924669   0.947   1.767   2.651  0.0004  0.1733 -0.1981
   21MOL   H63024670   1.024   1.523   2.587  0.5434 -0.8371 -0.0322
   21MOL   H63124671   1.181   1.606   2.565 -0.3631  1.3531 -0.0467
   21MOL   H63224672   1.200   1.677   2.778  0.0537 -0.2692 -0.4868
   21MOL   H63324673   1.034   1.640   2.828 -0.1617 -0.1100  0.6445
   21MOL   H63424674   1.096   1.399   2.827  0.7042 -1.2805  1.8851
   21MOL   H63524675   1.196   1.493   2.932  0.3214  3.3357 -0.4829
   21MOL   H63624676   1.279   1.423   2.634 -3.0612  0.5335  0.2703
   21MOL   H63724677   1.323   1.327   2.773  0.0975 -0.7345 -3.0255
   21MOL   H63824678   1.450   1.521   2.864 -2.1071 -2.1719 -0.0138
   21MOL   H63924679   1.410   1.608   2.714 -0.2947  0.3930 -0.9642
   21MOL   H64024680   1.513   1.443   2.577  0.5134  0.9955 -0.9909
   21MOL   H64124681   1.566   1.354   2.707 -1.4018 -0.1351  0.0294
   21MOL   H64224682   1.659   1.635   2.678  0.6785 -0.3888  0.1555
   21MOL   H64324683   1.709   1.535   2.805 -2.9876 -2.4052  1.3690
   21MOL   H64424684   1.770   1.515   2.501  1.6404  0.7761  0.1303
   21MOL   H64524685   1.883   1.535   2.638 -0.1242 -2.8229  4.2625
   21MOL   H64624686   1.968   1.135   2.822 -1.4748 -1.0465  1.5121
   21MOL   H64724687   1.932   1.120   2.655 -0.6532 -0.1873 -0.6075
   21MOL   H64824688   1.770   1.002   2.797  0.3110 -0.4557 -1.8584
   21MOL   H64924689   1.681   1.110   2.689 -0.2754  2.8184  0.9524
   21MOL   H65024690   1.648   1.273   2.877 -1.0659 -0.7965 -1.0281
   21MOL   H65124691   1.711   1.154   2.992 -1.3687 -2.8837  0.0765
   21MOL   H65224692   1.543   0.984   2.911 -0.3002  0.0518  0.7725
   21MOL   H65324693   1.466   1.112   2.821  2.7837 -0.5660 -1.6944
   21MOL   H65424694   1.506   1.094   3.122 -1.3131 -0.6803  0.4858
   21MOL   H65524695   1.427   1.233   3.047 -1.6649 -0.2744  0.8399
   21MOL   H65624696   1.225   1.105   2.997 -1.5714  0.7388  2.8209
   21MOL   H65724697   1.316   0.952   3.019 -0.6459 -0.9107 -0.5830
   21MOL   H65824698   1.285   1.134   3.253  0.3988  0.3062 -0.3671
   21MOL   H65924699   1.337   0.969   3.242 -1.8656 -1.4601  1.1637
   21MOL   H66024700   1.060   1.074   3.208 -0.7089 -0.8321 -0.1445
   21MOL   H66124701   1.093   0.924   3.132 -2.6422  0.7404 -0.6256
   21MOL   O66224702   0.972   0.868   3.345  0.3023  0.2075 -0.1898
   21MOL   C66324703   0.930   0.792   3.454  0.0741 -0.9269 -0.6486
   21MOL   C66424704   0.892   0.872   3.579 -0.0572 -0.1903  0.3455
   21MOL   C66524705   0.791   0.800   3.667  0.6336 -0.1218  0.0515
   21MOL   C66624706   0.645   0.857   3.662 -0.2412  0.1096  0.0591
   21MOL   C66724707   0.568   0.771   3.754  0.3244 -0.1923 -0.2032
   21MOL   C66824708   0.421   0.829   3.769 -0.7603  0.1418  0.3146
   21MOL   C66924709   0.347   0.744   3.879  0.1031  0.0153  0.4191
   21MOL   C67024710   0.203   0.793   3.897 -0.2304 -0.8826 -0.5814
   21MOL   C67124711   0.124   0.711   4.000  0.3683 -0.6855 -0.2350
   21MOL   C67224712   0.007   0.791   4.036  0.3173  0.8137  0.0624
   21MOL   O67324713   7.667   0.757   3.932 -0.4820  0.3248  0.2663
   21MOL   C67424714   7.544   0.823   3.932  0.0754 -0.3789 -0.1522
   21MOL   O67524715   7.514   0.909   4.015 -0.1309  0.3473 -0.8310
   21MOL   C67624716   7.445   0.785   3.826  0.2179 -0.1784  0.8231
   21MOL   C67724717   7.375   0.903   3.758 -0.3202  0.0683  0.2749
   21MOL   C67824718   7.459   0.965   3.643  0.2858 -0.5900 -0.1664
   21MOL   C67924719   7.378   1.054   3.546  0.2151 -0.0558 -0.7761
   21MOL   C68024720   7.465   1.105   3.432 -0.1062  0.2941 -0.4073
   21MOL   C68124721   7.377   1.185   3.335 -0.1495  0.5551  0.0790
   21MOL   C68224722   7.436   1.254   3.216 -0.2114  0.1441 -0.0534
   21MOL   C68324723   7.529   1.375   3.249  0.4501 -0.3619 -0.1699
   21MOL   C68424724   7.449   1.510   3.270 -0.4264  0.0883 -0.1430
   21MOL   O68524725   7.462   1.603   3.187 -0.0109  0.2675  0.0475
   21MOL   H68624726   0.838   0.737   3.432 -0.2450 -0.8900  0.5724
   21MOL   H68724727   1.008   0.724   3.488  0.7652  0.3833  0.4022
   21MOL   H68824728   0.972   0.933   3.620  0.0567 -0.5264  0.6203
   21MOL   H68924729   0.828   0.953   3.544 -0.0932  0.8032  2.6563
   21MOL   H69024730   0.778   0.700   3.625  0.0855  0.3550 -0.9303
   21MOL   H69124731   0.835   0.789   3.766 -1.8316 -3.1685  0.8977
   21MOL   H69224732   0.633   0.961   3.692 -0.3541  0.6651 -1.8201
   21MOL   H69324733   0.607   0.852   3.560  1.6524 -0.1900 -0.6663
   21MOL   H69424734   0.608   0.789   3.853 -1.4280 -0.7326  0.6269
   21MOL   H69524735   0.578   0.666   3.727 -2.0439 -0.7420  0.9997
   21MOL   H69624736   0.373   0.817   3.672  2.1716 -0.0860 -1.1534
   21MOL   H69724737   0.419   0.937   3.780  2.5864  0.2638  0.1438
   21MOL   H69824738   0.388   0.746   3.980  1.3115  1.8325 -0.0838
   21MOL   H69924739   0.355   0.640   3.848  0.9902 -0.4387  2.1320
   21MOL   H70024740   0.151   0.782   3.802 -0.3801 -0.8149 -0.5069
   21MOL   H70124741   0.206   0.896   3.931 -1.0556 -0.8320 -0.6566
   21MOL   H70224742   0.097   0.610   3.970  1.5188 -1.1369  0.2414
   21MOL   H70324743   0.182   0.690   4.090 -0.1558 -0.5576  0.1312
   21MOL   H70424744   7.729   0.771   4.137 -0.8219  0.0089 -0.4789
   21MOL   H70524745   0.036   0.896   4.041 -3.1916  1.8222  0.1605
   21MOL   H70624746   7.374   0.714   3.869  0.4318 -1.1234 -0.3393
   21MOL   H70724747   7.504   0.726   3.756 -3.5361 -1.0572 -1.7399
   21MOL   H70824748   7.358   0.977   3.837 -0.4165  2.7029 -2.1639
   21MOL   H70924749   7.275   0.872   3.726 -0.4397 -0.6758  1.3494
   21MOL   H71024750   7.511   0.884   3.591 -1.5039 -1.9079  0.0461
   21MOL   H71124751   7.535   1.024   3.694  0.5639 -0.7972 -0.3383
   21MOL   H71224752   7.331   1.138   3.596 -0.0944  0.1268 -1.3684
   21MOL   H71324753   7.295   0.995   3.506 -0.4088 -0.5011  1.1384
   21MOL   H71424754   7.534   1.179   3.473 -0.5968 -0.2536  1.4345
   21MOL   H71524755   7.535   1.035   3.386 -1.5028 -0.6271 -1.1772
   21MOL   H71624756   7.303   1.119   3.290  0.2106  0.5697 -0.5434
   21MOL   H71724757   7.332   1.267   3.390 -0.4223 -0.3116  1.1702
   21MOL   H71824758   7.364   1.303   3.150 -1.0293 -0.6363  0.2516
   21MOL   H71924759   7.485   1.178   3.155  0.6673  1.7029 -1.3359
   21MOL   H72024760   7.589   1.348   3.336 -0.6796 -0.9121  0.4406
   21MOL   H72124761   7.596   1.391   3.164  0.3613 -1.0495 -0.3660
   21MOL   O72224762   7.373   1.507   3.384  0.1423  0.3130  0.6344
   21MOL   C72324763   7.319   1.628   3.432 -0.2933  0.0075  0.0064
   21MOL   C72424764   7.275   1.600   3.576  0.1490  0.5324 -0.1608
   21MOL   C72524765   7.143   1.520   3.609 -0.3422  0.3657 -1.3312
   21MOL   C72624766   7.086   1.534   3.753 -0.5043 -0.3564  0.6451
   21MOL   C72724767   6.953   1.456   3.782 -0.0021  0.1999 -0.2863
   21MOL   C72824768   6.902   1.498   3.928 -0.0173  0.4229 -0.3749
   21MOL   C72924769   6.844   1.640   3.946 -0.3120 -0.0856  0.2864
   21MOL   C73024770   6.795   1.669   4.087  0.5297  0.0152  0.0227
   21MOL   C73124771   6.903   1.666   4.198  0.2399 -0.1900 -0.3845
   21MOL   C73224772   6.866   1.718   4.341 -0.1360 -0.2961 -0.0205
   21MOL   O73324773   6.762   1.632   4.367  0.9010 -0.3490  0.2748
   21MOL   C73424774   6.646   1.660   4.432  0.2340 -0.6533  0.5675
   21MOL   O73524775   6.613   1.763   4.490  0.0339 -0.4035  0.5201
   21MOL   C73624776   6.550   1.533   4.450 -0.0862 -0.3115  0.2106
   21MOL   C73724777   6.488   1.466   4.333 -0.2872  0.2834 -0.4554
   21MOL   C73824778   6.415   1.555   4.226 -0.4433  0.6823 -0.5070
   21MOL   C73924779   6.364   1.473   4.113  0.1009 -0.3513  0.0995
   21MOL   C74024780   6.454   1.424   4.010 -0.6980 -0.4087 -0.4067
   21MOL   C74124781   6.386   1.366   3.885 -0.8394 -0.0944 -0.4157
   21MOL   C74224782   6.479   1.306   3.776  0.2516 -0.2917  0.3873
   21MOL   C74324783   6.413   1.256   3.642 -0.7797 -0.6714  0.8799
   21MOL   C74424784   6.336   1.123   3.648  0.2356  0.4738  0.0348
   21MOL   O74524785   6.215   1.120   3.624  0.4902 -0.2393  0.1785
   21MOL   H74624786   7.396   1.704   3.429 -1.2145  0.9742  0.7259
   21MOL   H74724787   7.244   1.657   3.359 -2.6439 -2.5320  1.3020
   21MOL   H74824788   7.362   1.568   3.635  1.4082  3.5009 -0.3188
   21MOL   H74924789   7.252   1.703   3.604 -2.7736  0.9603 -3.7512
   21MOL   H75024790   7.074   1.552   3.531 -3.0628  1.1301  1.2861
   21MOL   H75124791   7.164   1.417   3.582  4.3898  0.6039  0.8595
   21MOL   H75224792   7.160   1.496   3.822  0.6387 -1.5492 -1.1907
   21MOL   H75324793   7.079   1.641   3.773  1.1831 -0.1764  0.3298
   21MOL   H75424794   6.984   1.352   3.775  2.3607  0.8294  0.4770
   21MOL   H75524795   6.874   1.477   3.709 -0.9657  0.8248  0.9033
   21MOL   H75624796   6.985   1.476   3.995  1.4064 -1.9031 -2.7714
   21MOL   H75724797   6.825   1.425   3.953 -1.0311  1.2851 -0.9263
   21MOL   H75824798   6.769   1.661   3.871  1.8878  0.3600 -1.8463
   21MOL   H75924799   6.925   1.711   3.927  2.2247 -3.0384 -0.3901
   21MOL   H76024800   6.719   1.595   4.109  0.3978  0.7488  2.2372
   21MOL   H76124801   6.731   1.757   4.092  0.0643 -0.1521 -2.4848
   21MOL   H76224802   6.932   1.560   4.195  2.0219  0.3173 -2.3996
   21MOL   H76324803   6.985   1.731   4.166  2.1979 -2.2813  0.1966
   21MOL   H76424804   6.947   1.707   4.413  0.9126  0.6801 -1.0300
   21MOL   H76524805   6.826   1.819   4.344  2.7680  0.8895  1.0766
   21MOL   H76624806   6.468   1.576   4.507 -1.1313 -0.9238 -0.8200
   21MOL   H76724807   6.604   1.463   4.514 -0.6324 -0.9624 -0.0278
   21MOL   H76824808   6.417   1.388   4.357  1.1065 -0.4771  1.3076
   21MOL   H76924809   6.564   1.415   4.273  0.3303  1.6096 -0.8452
   21MOL   H77024810   6.478   1.636   4.189 -3.5544  3.9928  1.0732
   21MOL   H77124811   6.338   1.609   4.281 -1.8723 -1.7553 -0.0971
   21MOL   H77224812   6.294   1.544   4.071  0.1228 -0.7633 -0.6429
   21MOL   H77324813   6.315   1.384   4.154 -2.4502  1.9325  2.1807
   21MOL   H77424814   6.522   1.506   3.989 -0.2356 -0.0429  2.2986
   21MOL   H77524815   6.526   1.352   4.051  0.5126  0.4416 -1.0106
   21MOL   H77624816   6.320   1.287   3.921 -1.7670  0.4612 -0.8809
   21MOL   H77724817   6.324   1.443   3.839 -3.4008 -0.9051  1.5528
   21MOL   H77824818   6.531   1.224   3.827 -1.9248 -2.7226 -1.1506
   21MOL   H77924819   6.557   1.381   3.762 -3.4351  3.8225  0.8759
   21MOL   H78024820   6.358   1.335   3.591 -1.1777 -2.2877 -1.2520
   21MOL   H78124821   6.496   1.228   3.578 -0.8118  1.3626 -0.0916
   21MOL   O78224822   6.413   1.019   3.676  0.6492 -0.2503  0.0254
   21MOL   C78324823   6.364   0.892   3.704 -0.1663 -0.2308 -0.3635
   21MOL   C78424824   6.362   0.809   3.580  0.1166  0.6446 -0.5130
   21MOL   C78524825   6.247   0.703   3.583 -0.5964  0.3773  0.2310
   21MOL   C78624826   6.241   0.612   3.450  0.1317 -0.3195 -0.1787
   21MOL   C78724827   6.177   0.681   3.334 -0.4298 -0.7311  0.2299
   21MOL   C78824828   6.150   0.591   3.213 -0.4087  0.5110  0.1373
   21MOL   C78924829   6.059   0.654   3.107  0.3843  0.3327  0.4673
   21MOL   C79024830   6.028   0.561   2.988 -0.0082  0.9479  0.3625
   21MOL   C79124831   5.908   0.607   2.902 -0.4071  0.5402 -0.0343
   21MOL   C79224832   5.873   0.503   2.803 -0.3162  0.6557 -0.1553
   21MOL   O79324833   5.754   0.531   2.746  0.4359  0.1453  0.2528
   21MOL   C79424834   5.686   0.427   2.699 -0.1381  0.2204 -0.4743
   21MOL   O79524835   5.730   0.312   2.697  0.4651 -0.7775 -0.7289
   21MOL   C79624836   5.557   0.466   2.633 -0.5738 -0.4820 -0.2202
   21MOL   C79724837   5.442   0.440   2.728  0.3526  0.0078 -0.6269
   21MOL   C79824838   5.311   0.420   2.657  0.8930 -0.3066  0.1049
   21MOL   C79924839   5.189   0.413   2.750  0.4178  0.1205  0.0944
   21MOL   C80024840   5.048   0.415   2.688  1.5616 -0.1962  0.3900
   21MOL   C80124841   4.940   0.355   2.778  0.4458 -0.6319 -0.3585
   21MOL   C80224842   4.803   0.342   2.701  0.4017 -1.3599  0.0363
   21MOL   C80324843   4.680   0.327   2.789 -0.6432 -0.9239  0.4186
   21MOL   C80424844   4.665   0.204   2.869 -0.1903  0.3871 -0.3775
   21MOL   O80524845   4.635   0.213   2.988  1.3278 -0.1751  0.4692
   21MOL   H80624846   6.398   0.841   3.794 -0.3901  3.1300  1.7108
   21MOL   H80724847   6.259   0.896   3.731  0.0268  0.5994  0.3123
   21MOL   H80824848   6.331   0.865   3.491 -3.2651  1.0826  0.8613
   21MOL   H80924849   6.460   0.766   3.564 -0.6855 -0.9806 -1.1511
   21MOL   H81024850   6.259   0.634   3.667 -0.4679  0.1614  0.0342
   21MOL   H81124851   6.155   0.752   3.612 -1.1186 -2.5459  3.9232
   21MOL   H81224852   6.342   0.578   3.430 -0.1750 -1.4087  0.1073
   21MOL   H81324853   6.192   0.520   3.481 -1.4759  0.6703  0.3135
   21MOL   H81424854   6.247   0.762   3.312 -0.6769 -0.5043  0.2824
   21MOL   H81524855   6.081   0.723   3.364 -0.6128  0.9502 -2.5646
   21MOL   H81624856   6.113   0.495   3.248 -0.6982  0.4137 -0.4241
   21MOL   H81724857   6.246   0.575   3.165  0.5524  3.1436  1.0507
   21MOL   H81824858   6.104   0.748   3.076 -0.5518  0.0579 -1.8429
   21MOL   H81924859   5.970   0.684   3.163  0.1980  1.4051 -0.4138
   21MOL   H82024860   6.003   0.466   3.036 -0.3723  1.7814  1.8646
   21MOL   H82124861   6.114   0.545   2.924 -1.1728  3.1571 -1.8217
   21MOL   H82224862   5.822   0.633   2.964 -1.5134  0.5203 -1.5389
   21MOL   H82324863   5.934   0.701   2.854  1.2731 -0.4506 -1.0902
   21MOL   H82424864   5.946   0.491   2.722 -0.2357 -0.9616  0.1528
   21MOL   H82524865   5.871   0.406   2.851  0.6044  0.5362 -0.3419
   21MOL   H82624866   5.546   0.408   2.541 -1.3924  0.3212 -0.6436
   21MOL   H82724867   5.558   0.571   2.605 -2.1543  0.2397  2.3024
   21MOL   H82824868   5.428   0.530   2.787 -1.3940 -1.3071  1.0084
   21MOL   H82924869   5.464   0.355   2.793 -0.7758 -0.1329 -0.4184
   21MOL   H83024870   5.306   0.325   2.604 -0.3300 -1.2706  1.8779
   21MOL   H83124871   5.281   0.495   2.584  0.1016 -1.5669 -0.9003
   21MOL   H83224872   5.196   0.496   2.820 -1.2992 -0.8873  1.4948
   21MOL   H83324873   5.213   0.330   2.815 -0.0354  0.2029  0.3730
   21MOL   H83424874   5.026   0.515   2.652  1.3803 -0.3391  0.0994
   21MOL   H83524875   5.039   0.358   2.595 -1.2091  1.0017 -0.1357
   21MOL   H83624876   4.969   0.260   2.823  0.0368 -0.1624  0.9309
   21MOL   H83724877   4.931   0.427   2.860 -1.2684 -0.1105 -0.9704
   21MOL   H83824878   4.810   0.261   2.628 -0.0047 -0.9774 -0.4289
   21MOL   H83924879   4.784   0.438   2.652 -1.0888 -1.9883 -0.6352
   21MOL   H84024880   4.692   0.407   2.863  0.3502  1.5500 -2.3471
   21MOL   H84124881   4.584   0.356   2.748  0.6359  3.3842  0.1933
   21MOL   O84224882   4.679   0.080   2.798 -0.4495  0.3036  0.0095
   21MOL   C84324883   4.721   7.712   2.863 -0.0070  0.3766 -0.2523
   21MOL   C84424884   4.865   7.711   2.899 -0.0034 -0.1908  0.3384
   21MOL   C84524885   4.959   7.727   2.776 -0.5295  0.0117  0.2305
   21MOL   C84624886   5.104   7.722   2.819  0.0041  0.2326  0.5948
   21MOL   C84724887   5.188   7.737   2.686 -0.0554 -0.4081 -0.1772
   21MOL   C84824888   5.337   7.709   2.719 -0.3819  0.4888  0.5488
   21MOL   C84924889   5.435   7.755   2.611  0.6289 -0.4653 -0.2131
   21MOL   C85024890   5.572   0.027   2.675 -0.8306  0.9865 -0.3858
   21MOL   C85124891   5.643   7.653   2.739 -0.3639 -0.0884  0.2095
   21MOL   C85224892   5.649   7.529   2.649  0.4762  0.9036  0.1286
   21MOL   O85324893   5.725   7.430   2.707 -0.2061  0.0676  0.1321
   21MOL   C85424894   5.662   7.334   2.785  0.1187  0.9978  0.5867
   21MOL   O85524895   5.548   7.299   2.771  0.3823  0.5038 -0.0050
   21MOL   C85624896   5.747   7.252   2.887 -0.2511  0.0948 -0.2849
   21MOL   C85724897   5.819   7.335   2.994 -1.1786 -0.8873  0.0770
   21MOL   C85824898   5.725   7.430   3.073  0.1610 -0.0689  0.2172
   21MOL   C85924899   5.662   7.358   3.195 -0.0795  0.1629 -0.6980
   21MOL   C86024900   5.594   7.466   3.282 -0.5229  0.1773  1.0115
   21MOL   C86124901   5.542   7.412   3.412  0.1789  0.3798  0.8473
   21MOL   C86224902   5.520   7.524   3.512  0.0496 -0.0617 -0.3433
   21MOL   C86324903   5.392   7.609   3.488  0.0140 -0.2628 -0.0103
   21MOL   C86424904   5.267   7.560   3.559 -0.0943  0.3003 -0.1737
   21MOL   O86524905   5.253   7.570   3.682  0.9333 -0.3022  0.1593
   21MOL   H86624906   4.659   7.683   2.948  1.7189 -0.4879  0.7363
   21MOL   H86724907   4.713   7.630   2.792 -0.2457  0.0304  0.1778
   21MOL   H86824908   4.892   0.042   2.959  0.4661 -0.1532  0.0724
   21MOL   H86924909   4.900   7.617   2.942 -0.5686 -0.2907  0.5806
   21MOL   H87024910   4.931   7.647   2.708 -3.1202  2.5225 -1.8409
   21MOL   H87124911   4.936   0.063   2.722 -2.6041 -1.0413 -0.7639
   21MOL   H87224912   5.129   0.041   2.893 -0.1125  0.8905 -0.0386
   21MOL   H87324913   5.126   7.627   2.867 -1.9371  0.1280  1.3437
   21MOL   H87424914   5.176   0.086   2.662 -0.9591 -0.5359 -0.2996
   21MOL   H87524915   5.142   7.679   2.606  2.5170 -1.7754 -0.7021
   21MOL   H87624916   5.353   7.605   2.747  1.5506  0.4572 -0.6153
   21MOL   H87724917   5.357   0.004   2.813 -0.2193  1.1094  0.1696
   21MOL   H87824918   5.401   0.085   2.554  0.3119  0.0956  0.8137
   21MOL   H87924919   5.445   7.678   2.535  0.2429 -0.6585 -0.0704
   21MOL   H88024920   5.562   0.113   2.742 -1.8560  0.6255 -0.0707
   21MOL   H88124921   5.643   0.065   2.602 -1.5150  1.4678 -0.8006
   21MOL   H88224922   5.746   7.681   2.760  0.1422 -0.7223 -1.3236
   21MOL   H88324923   5.602   7.632   2.837  0.7399  1.6367  1.0647
   21MOL   H88424924   5.550   7.496   2.618  1.0184  0.2084 -0.9115
   21MOL   H88524925   5.693   7.559   2.554 -0.6963 -1.7623 -1.3005
   21MOL   H88624926   5.811   7.180   2.834  0.6713 -0.1407  1.1249
   21MOL   H88724927   5.674   7.192   2.942 -1.0854  0.3726 -1.0779
   21MOL   H88824928   5.905   7.387   2.952 -0.6039 -2.8939 -1.2892
   21MOL   H88924929   5.868   7.263   3.060 -1.7283 -1.0063  0.3564
   21MOL   H89024930   5.643   7.477   3.018 -0.6104  0.3221  1.6613
   21MOL   H89124931   5.781   7.518   3.102  1.1150 -0.3787 -0.6744
   21MOL   H89224932   5.739   7.300   3.246  0.9369  1.2993 -0.9214
   21MOL   H89324933   5.583   7.288   3.167  1.0622 -0.4294 -2.5804
   21MOL   H89424934   5.671   7.541   3.302  1.5108 -1.3557 -0.8031
   21MOL   H89524935   5.512   7.519   3.233  1.0858  2.2280  0.4902
   21MOL   H89624936   5.444   7.369   3.390 -0.3673  1.2142  1.6382
   21MOL   H89724937   5.602   7.329   3.450  0.3096 -0.3082 -0.8187
   21MOL   H89824938   5.606   7.588   3.531 -0.9879  0.8744  1.2128
   21MOL   H89924939   5.506   7.478   3.610 -0.2797  1.1336  0.1701
   21MOL   H90024940   5.397   7.704   3.541 -0.9196 -0.3850  0.2917
   21MOL   H90124941   5.361   7.621   3.384  1.0912 -1.0310 -0.4362
   21MOL   O90224942   5.173   7.517   3.471  0.4894  0.2027 -0.1281
   21MOL   C90324943   5.046   7.486   3.518  0.0572 -0.1517 -0.1823
   21MOL   C90424944   4.945   7.458   3.398 -0.0470  0.0326  0.6789
   21MOL   C90524945   4.814   7.413   3.460  0.6056 -0.0584  0.0489
   21MOL   C90624946   4.709   7.386   3.348 -0.3845  0.3863  0.6467
   21MOL   C90724947   4.559   7.379   3.382 -0.5214 -0.3637  0.2383
   21MOL   C90824948   4.461   7.375   3.266 -0.3531  0.2236  0.8863
   21MOL   C90924949   4.480   7.488   3.164 -0.7067 -0.2621 -0.4197
   21MOL   C91024950   4.347   7.550   3.122  0.7819 -0.3282  0.8274
   21MOL   C91124951   4.364   7.650   3.004 -0.4809 -0.3841 -0.5298
   21MOL   C91224952   4.230   7.706   2.952  0.3558  0.3717  0.4250
   21MOL   O91324953   4.163   0.019   3.053  0.5026 -0.2663 -0.4746
   21MOL   C91424954   4.034   7.756   3.081 -0.1393 -0.2285 -0.0163
   21MOL   O91524955   3.961   7.671   3.030 -0.2221  0.8128 -0.3181
   21MOL   C91624956   3.987   0.087   3.199 -0.3337 -0.6093  0.3653
   21MOL   C91724957   4.054   0.056   3.322 -0.1823  0.4448  0.5396
   21MOL   C91824958   3.983   7.704   3.395 -0.1793 -0.1590  1.1796
   21MOL   C91924959   4.033   7.690   3.532 -0.4695  0.1395 -0.1289
   21MOL   C92024960   3.983   7.556   3.598 -0.9877 -0.2653 -0.6020
   21MOL   C92124961   4.051   7.426   3.557 -0.1309 -0.3160 -0.1221
   21MOL   C92224962   4.001   7.301   3.629  0.3402 -0.2744 -0.1894
   21MOL   C92324963   4.066   7.168   3.596 -0.1900 -0.0182  0.1793
   21MOL   C92424964   4.218   7.166   3.610 -0.1003 -0.5589 -0.1549
   21MOL   O92524965   4.287   7.157   3.509  0.2778  0.6415  0.0731
   21MOL   H92624966   5.063   7.393   3.573 -1.7268 -0.2878  0.1770
   21MOL   H92724967   5.006   7.553   3.594 -2.2363  0.9873 -2.3254
   21MOL   H92824968   4.935   7.544   3.333  2.7465 -0.5743 -0.6364
   21MOL   H92924969   4.983   7.378   3.334 -2.6306 -0.3805 -0.3800
   21MOL   H93024970   4.814   7.332   3.532 -0.7525 -1.0464 -1.0340
   21MOL   H93124971   4.770   7.500   3.510 -1.3828 -1.1417  0.2510
   21MOL   H93224972   4.721   7.447   3.258  1.0993 -1.2775 -0.3058
   21MOL   H93324973   4.737   7.291   3.304  1.3371  0.1898  2.1586
   21MOL   H93424974   4.529   7.462   3.447  0.5077 -1.0811  1.6560
   21MOL   H93524975   4.553   7.286   3.439 -0.5605 -0.7302 -0.3637
   21MOL   H93624976   4.360   7.367   3.306  0.1677 -3.2744  1.6966
   21MOL   H93724977   4.466   7.286   3.203  2.7841  2.0975 -1.6480
   21MOL   H93824978   4.541   7.456   3.078  2.8137 -2.3117  2.6850
   21MOL   H93924979   4.539   7.566   3.212  0.8725 -0.2632 -2.2650
   21MOL   H94024980   4.291   7.584   3.209 -0.4348 -0.6305  0.1844
   21MOL   H94124981   4.290   7.469   3.075 -1.0672  1.5241 -0.2004
   21MOL   H94224982   4.432   7.730   3.031 -2.9373  2.3459 -2.1319
   21MOL   H94324983   4.415   7.601   2.921 -0.8400 -2.1631  0.2661
   21MOL   H94424984   4.232   0.004   2.858  0.2061 -0.8397 -0.2966
   21MOL   H94524985   4.173   7.620   2.918 -0.5184  0.4356  1.7088
   21MOL   H94624986   3.880   0.063   3.204 -0.4685 -0.2751 -0.7109
   21MOL   H94724987   4.008   0.193   3.180 -2.1954 -0.1910  0.4763
   21MOL   H94824988   4.050   0.142   3.390  0.6653  2.0938 -1.4465
   21MOL   H94924989   4.159   0.030   3.311 -0.7199 -1.1705 -1.0703
   21MOL   H95024990   3.990   7.611   3.339 -1.3038  0.2907  0.2765
   21MOL   H95124991   3.877   7.730   3.388 -0.5660 -1.6754  1.3337
   21MOL   H95224992   4.007   0.016   3.597 -0.8076 -0.1964  0.1690
   21MOL   H95324993   4.142   7.690   3.538 -0.4801  1.6035  0.3215
   21MOL   H95424994   4.010   7.562   3.704 -1.9975  0.4560 -0.3808
   21MOL   H95524995   3.875   7.542   3.596 -0.6950 -2.6496 -1.0062
   21MOL   H95624996   4.040   7.399   3.452 -0.3269 -3.1960  0.6158
   21MOL   H95724997   4.159   7.431   3.571  0.3474 -0.9821 -3.1135
   21MOL   H95824998   3.895   7.293   3.603  0.6281  1.5876 -2.0309
   21MOL   H95924999   3.979   7.307   3.736  0.8611  0.7787 -0.1275
   21MOL   H96025000   4.033   7.087   3.662 -1.1710 -0.5469 -0.9215
   21MOL   H96125001   4.043   7.140   3.493  1.8957 -1.4621  0.0802
   21MOL   O96225002   4.254   7.171   3.734 -0.4426  0.3163 -0.0339
   21MOL   C96325003   4.385   7.210   3.766  0.3638 -0.6535 -0.0894
   21MOL   C96425004   4.381   7.365   3.779 -0.4152  0.0687 -0.4710
   21MOL   C96525005   4.276   7.429   3.877  0.1137 -0.0597 -0.1364
   21MOL   C96625006   4.315   7.573   3.932  0.4191  0.4590 -0.2631
   21MOL   C96725007   4.328   7.681   3.817 -0.1857  1.1036  0.2247
   21MOL   C96825008   4.409   0.041   3.885 -0.9268  0.3228  0.1183
   21MOL   C96925009   4.463   0.135   3.777  0.0772  0.2707 -0.0837
   21MOL   C97025010   4.553   0.250   3.831  0.3949  0.1473  0.0077
   21MOL   C97125011   4.637   0.313   3.720 -0.0281  0.2322  0.1833
   21MOL   C97225012   4.706   0.444   3.759 -0.5308  0.3849  0.2206
   21MOL   O97325013   4.789   0.500   3.655  0.3920 -0.3108 -0.1001
   21MOL   C97425014   4.817   0.632   3.661 -0.1014  0.3801  0.4047
   21MOL   O97525015   4.755   0.713   3.732 -0.2131 -0.3520  0.5766
   21MOL   C97625016   4.921   0.676   3.557 -0.8152 -0.2582  0.3610
   21MOL   C97725017   4.843   0.713   3.423 -0.1089  0.4956 -0.2149
   21MOL   C97825018   4.791   0.859   3.435 -0.2659  0.1343  0.1804
   21MOL   C97925019   4.715   0.903   3.304  0.0362 -1.4033 -0.1073
   21MOL   C98025020   4.656   1.045   3.333  0.4738 -0.1614 -0.7701
   21MOL   C98125021   4.552   1.089   3.225  0.0095  0.3735 -0.6741
   21MOL   C98225022   4.472   1.213   3.254 -1.0911  0.2654 -0.4476
   21MOL   C98325023   4.363   1.251   3.158 -0.3305 -0.2283  0.4594
   21MOL   C98425024   4.268   1.365   3.204  1.0821  1.0188  0.0852
   21MOL   O98525025   4.247   1.391   3.322 -0.1935 -0.4222  0.2958
   21MOL   H98625026   4.412   7.169   3.863  1.9719  0.3424 -0.0997
   21MOL   H98725027   4.461   7.176   3.695  0.7482  1.9517 -0.9955
   21MOL   H98825028   4.476   7.394   3.826 -1.8094  0.8395  1.9449
   21MOL   H98925029   4.382   7.412   3.681 -1.2790 -1.1765 -1.0783
   21MOL   H99025030   4.180   7.426   3.824 -0.2254 -1.5214  0.5395
   21MOL   H99125031   4.253   7.363   3.961 -1.8034  0.2835 -0.3688
   21MOL   H99225032   4.252   7.602   4.016  1.4137 -1.6650  1.2782
   21MOL   H99325033   4.406   7.554   3.990 -0.5303 -4.0185 -0.0792
   21MOL   H99425034   4.227   7.709   3.786 -1.1006 -0.1845  1.9708
   21MOL   H99525035   4.378   7.648   3.726 -0.5871  0.3113  0.2861
   21MOL   H99625036   4.486   0.007   3.954 -0.7775 -0.3376 -0.3814
   21MOL   H99725037   4.352   0.093   3.962  1.3462  1.5766  1.0047
   21MOL   H99825038   4.374   0.177   3.731  0.2169  2.3342  1.4440
   21MOL   H99925039   4.523   0.078   3.706  1.2985  0.0233  1.1296
   21MOL     H125040   4.613   0.222   3.918 -1.5577 -2.5035  0.5940
   21MOL     H225041   4.489   0.334   3.859 -0.9973 -0.6398 -0.7538
   21MOL     H325042   4.721   0.247   3.700  0.5420  0.6260  1.2476
   21MOL     H425043   4.587   0.324   3.624 -1.8167 -2.9010  0.6986
   21MOL     H525044   4.627   0.515   3.786  0.2640  0.2109  3.1450
   21MOL     H625045   4.764   0.433   3.850 -0.4934 -1.1468  0.0247
   21MOL     H725046   4.993   0.596   3.539 -1.5613 -1.0290  0.7208
   21MOL     H825047   4.981   0.762   3.585 -1.6893  0.0780  1.2240
   21MOL     H925048   4.766   0.639   3.404 -0.3230  0.3508  1.2247
   21MOL    H1025049   4.913   0.690   3.342 -0.3424  0.3894 -0.3859
   21MOL    H1125050   4.882   0.919   3.445 -0.7297  0.7960  0.4704
   21MOL    H1225051   4.738   0.870   3.529 -0.8051 -1.1075  0.0272
   21MOL    H1325052   4.643   0.824   3.283 -0.0804 -1.5470  0.8128
   21MOL    H1425053   4.772   0.920   3.213  1.4987  0.0179  1.0434
   21MOL    H1525054   4.612   1.035   3.433  2.8531  2.4019  0.5843
   21MOL    H1625055   4.728   1.125   3.346  1.8329 -1.7822  2.4189
   21MOL    H1725056   4.609   1.098   3.132 -0.7033  2.6922 -0.9182
   21MOL    H1825057   4.477   1.014   3.204  0.5478 -0.6978  1.0963
   21MOL    H1925058   4.532   1.300   3.283 -1.6615  0.3248  0.6000
   21MOL    H2025059   4.418   1.185   3.345  0.7807  0.9514  0.9035
   21MOL    H2125060   4.414   1.282   3.067  3.5731 -1.6149  2.0584
   21MOL    H2225061   4.294   1.173   3.128 -1.2839  0.8354 -0.1634
   21MOL    O2325062   4.216   1.432   3.102  0.3253 -0.0777  0.3553
   21MOL    C2425063   4.123   1.540   3.128 -0.5785  0.3607 -0.3259
   21MOL    C2525064   4.192   1.677   3.120  0.1499 -0.0039 -0.0530
   21MOL    C2625065   4.243   1.717   2.978 -0.6832 -0.4211  0.5577
   21MOL    C2725066   4.299   1.864   2.974  0.0033  0.1678  0.4205
   21MOL    C2825067   4.391   1.899   2.852  0.2144  1.2736 -0.0732
   21MOL    C2925068   4.450   2.033   2.843  0.2118  0.5138 -0.2827
   21MOL    C3025069   4.567   2.041   2.741 -0.2094 -0.5005 -0.3289
   21MOL    C3125070   4.521   2.049   2.599  0.5824 -0.0839 -0.2932
   21MOL    C3225071   4.635   2.097   2.508  0.0397 -0.6636  0.2457
   21MOL    C3325072   4.584   2.147   2.370  0.0980  0.2858  0.0821
   21MOL    O3425073   4.496   2.257   2.383 -0.0452 -0.4755  0.2494
   21MOL    C3525074   4.435   2.297   2.278  0.2179  0.7341  0.0183
   21MOL    O3625075   4.415   2.234   2.175  0.1005 -0.0289 -0.2490
   21MOL    C3725076   4.367   2.432   2.301  0.4268  0.3224 -0.2729
   21MOL    C3825077   4.451   2.559   2.304  0.1213 -0.1770 -1.0255
   21MOL    C3925078   4.366   2.693   2.296  0.2987  0.9058  1.0960
   21MOL    C4025079   4.330   2.736   2.151  0.2065 -0.1018  0.4187
   21MOL    C4125080   4.226   2.846   2.142  0.2992 -0.0230  0.3256
   21MOL    C4225081   4.219   2.915   2.005 -0.0810  0.4307  0.8095
   21MOL    C4325082   4.116   3.033   1.976 -0.2245 -0.4324 -0.0467
   21MOL    C4425083   4.097   3.081   1.835 -0.0492  0.1104 -0.6496
   21MOL    C4525084   4.229   3.117   1.758  0.6762  0.4225  0.1622
   21MOL    O4625085   4.297   3.027   1.721  0.0047  0.2890 -0.1761
   21MOL    H4725086   4.042   1.529   3.056  0.5711  0.4932 -1.6620
   21MOL    H4825087   4.078   1.538   3.227  0.4352  0.8347  0.1583
   21MOL    H4925088   4.122   1.749   3.162 -1.2368 -0.9699 -0.6713
   21MOL    H5025089   4.270   1.677   3.196  0.1495 -0.9814 -0.0408
   21MOL    H5125090   4.329   1.657   2.947  0.5646  1.2561  0.7312
   21MOL    H5225091   4.162   1.715   2.905 -1.0837  2.1478  0.8896
   21MOL    H5325092   4.220   1.939   2.963  0.3335  0.6803  1.4574
   21MOL    H5425093   4.346   1.878   3.072  1.2249 -2.0887  0.1794
   21MOL    H5525094   4.333   1.898   2.759  0.6514 -1.5407 -0.3678
   21MOL    H5625095   4.465   1.819   2.838 -3.0985 -1.8922 -0.3836
   21MOL    H5725096   4.475   2.058   2.946 -2.5005 -0.3631  0.6303
   21MOL    H5825097   4.374   2.106   2.816  0.3888  0.2047 -1.6376
   21MOL    H5925098   4.626   1.953   2.763 -1.3149 -1.2570 -0.3517
   21MOL    H6025099   4.628   2.131   2.755 -0.8890  0.2251 -1.9437
   21MOL    H6125100   4.443   2.124   2.589 -2.4327 -3.1061 -0.1200
   21MOL    H6225101   4.473   1.957   2.567  1.0391  0.1414 -1.6436
   21MOL    H6325102   4.697   2.174   2.554 -2.1226  0.4323  1.4194
   21MOL    H6425103   4.717   2.028   2.489 -0.6904 -1.2264 -0.9978
   21MOL    H6525104   4.671   2.183   2.315 -1.0947  0.7415 -1.5395
   21MOL    H6625105   4.541   2.068   2.310  0.9899 -2.2104  2.6176
   21MOL    H6725106   4.311   2.418   2.394  0.3216  1.6483 -0.1231
   21MOL    H6825107   4.293   2.437   2.221  1.7500 -2.2882 -1.7121
   21MOL    H6925108   4.530   2.564   2.229  0.5304 -0.9644 -0.6578
   21MOL    H7025109   4.501   2.551   2.401  0.8110  1.4007 -1.2387
   21MOL    H7125110   4.430   2.768   2.341 -0.3471  1.7100  0.6785
   21MOL    H7225111   4.274   2.694   2.354  0.5400 -0.1173  1.5077
   21MOL    H7325112   4.279   2.654   2.100 -0.5255  0.3142  0.4740
   21MOL    H7425113   4.427   2.761   2.108  0.5639 -2.6509 -0.3401
   21MOL    H7525114   4.128   2.802   2.163  0.0037  0.5802  0.2532
   21MOL    H7625115   4.246   2.921   2.219  2.5319  0.7734 -0.9876
   21MOL    H7725116   4.323   2.939   1.987  0.6440 -2.0199  1.5663
   21MOL    H7825117   4.196   2.836   1.933 -1.0712 -0.0933  1.6681
   21MOL    H7925118   4.146   3.108   2.050  2.1254 -2.2218  0.8872
   21MOL    H8025119   4.019   2.990   2.000 -0.7690  1.9067  2.1963
   21MOL    H8125120   4.037   3.006   1.783 -0.0098 -0.5957  0.3081
   21MOL    H8225121   4.035   3.171   1.838  1.0087  0.8703 -1.3518
   21MOL    O8325122   4.256   3.246   1.747  0.2688  0.5158 -0.0309
   21MOL    C8425123   4.376   3.282   1.684 -0.0496 -0.5868 -0.6381
   21MOL    C8525124   4.472   3.294   1.795 -0.1831  0.1700 -0.0926
   21MOL    C8625125   4.613   3.349   1.763 -0.2856  0.2427 -0.3357
   21MOL    C8725126   4.710   3.325   1.876  0.5176 -0.2946  0.1016
   21MOL    C8825127   4.850   3.392   1.860 -0.2954  0.1067 -0.6281
   21MOL    C8925128   4.945   3.358   1.977 -0.2876  0.2209  0.0729
   21MOL    C9025129   5.076   3.450   1.968 -0.0331 -0.7237  0.0522
   21MOL    C9125130   5.165   3.444   2.102  0.5345  0.0754  0.9852
   21MOL    C9225131   5.264   3.563   2.111 -0.4512  0.3126 -0.0088
   21MOL    C9325132   5.346   3.561   2.238 -1.3454 -0.1961  0.5635
   21MOL    O9425133   5.429   3.676   2.229  0.1606 -0.3132 -0.2171
   21MOL    C9525134   5.524   3.682   2.336 -0.2368 -0.0750  0.4305
   21MOL    O9625135   5.532   3.611   2.437 -0.2322  0.2033 -0.1386
   21MOL    C9725136   5.630   3.789   2.303 -0.3484 -0.1507 -0.2995
   21MOL    C9825137   5.561   3.928   2.268  0.3487  0.4046  0.7765
   21MOL    C9925138   5.494   3.999   2.388  0.6991 -0.0794 -0.0576
   21MOL   C10025139   5.454   4.148   2.376 -0.1636 -0.5084  0.5413
   21MOL   C10125140   5.372   4.165   2.249  1.1525 -0.0668 -0.1209
   21MOL   C10225141   5.287   4.291   2.256 -0.3418 -0.1068 -0.2035
   21MOL   C10325142   5.244   4.340   2.118  0.4451  0.9923 -0.2771
   21MOL   C10425143   5.357   4.393   2.028 -0.1485 -0.6039  0.0022
   21MOL   C10525144   5.327   4.430   1.886 -0.5838  0.2070  0.0162
   21MOL   O10625145   5.343   4.546   1.849  0.7112  0.1418 -0.2075
   21MOL   H10725146   4.406   3.214   1.604  1.9283  0.7913 -1.1107
   21MOL   H10825147   4.354   3.380   1.641 -1.0389 -1.2919 -1.7574
   21MOL   H10925148   4.435   3.354   1.878 -0.7371  1.4732 -1.2819
   21MOL   H11025149   4.483   3.193   1.835  0.8429  0.4079  0.2356
   21MOL   H11125150   4.659   3.314   1.670  2.3584  0.7267  0.7305
   21MOL   H11225151   4.604   3.450   1.725 -2.0942  0.6801  1.1782
   21MOL   H11325152   4.668   3.355   1.973  2.2633 -0.4389  0.9326
   21MOL   H11425153   4.726   3.217   1.878 -0.7621 -0.6686 -4.3279
   21MOL   H11525154   4.839   3.500   1.868  1.2836  0.3285 -1.3880
   21MOL   H11625155   4.896   3.375   1.763 -0.2331 -0.6256 -0.4704
   21MOL   H11725156   4.970   3.253   1.964 -0.3430 -0.3092  3.7363
   21MOL   H11825157   4.889   3.361   2.071 -1.0607 -0.1814 -0.3656
   21MOL   H11925158   5.058   3.550   1.931  1.5594  0.2982  1.9275
   21MOL   H12025159   5.142   3.409   1.892  0.3502 -0.6210  0.3287
   21MOL   H12125160   5.233   3.359   2.101 -1.3764 -1.4804 -0.2256
   21MOL   H12225161   5.100   3.449   2.190  1.2186  1.8631  1.4150
   21MOL   H12325162   5.327   3.553   2.023 -0.8288 -2.5838  0.0175
   21MOL   H12425163   5.205   3.654   2.097 -0.9382 -0.0313 -0.2279
   21MOL   H12525164   5.281   3.569   2.325  1.0541  1.3030  2.2955
   21MOL   H12625165   5.400   3.467   2.246 -2.4482 -0.8331  0.5894
   21MOL   H12725166   5.692   3.763   2.217 -1.7011 -0.9679 -1.0490
   21MOL   H12825167   5.693   3.806   2.390 -0.9348  1.7804 -0.2255
   21MOL   H12925168   5.496   3.922   2.180  2.9851  2.3904 -1.3643
   21MOL   H13025169   5.641   3.990   2.229 -0.8561 -0.1122 -2.7258
   21MOL   H13125170   5.559   3.995   2.476  1.4994  3.4026 -0.3897
   21MOL   H13225171   5.407   3.939   2.414  1.2309 -1.1911 -0.7931
   21MOL   H13325172   5.538   4.217   2.378 -0.8188  0.2845  0.8040
   21MOL   H13425173   5.396   4.180   2.462  0.8893  1.0674  0.6867
   21MOL   H13525174   5.430   4.152   2.158  1.1631  1.1549 -0.3008
   21MOL   H13625175   5.297   4.086   2.250  0.4354  0.6070  0.4334
   21MOL   H13725176   5.207   4.289   2.331 -0.2160  0.7409 -0.0362
   21MOL   H13825177   5.353   4.363   2.305 -0.6689 -0.0724  0.1989
   21MOL   H13925178   5.174   4.423   2.122  1.0751  1.4972  0.2811
   21MOL   H14025179   5.189   4.262   2.066 -0.8586  0.9913  1.0760
   21MOL   H14125180   5.402   4.479   2.077  0.9815 -1.4823  0.5413
   21MOL   H14225181   5.431   4.314   2.017 -2.0367 -2.5587  0.8584
   21MOL   O14325182   5.291   4.325   1.806 -0.6301  0.0919 -0.0950
   21MOL   C14425183   5.244   4.350   1.672  0.1258  0.4861  0.1110
   21MOL   C14525184   5.351   4.301   1.577  0.0813  0.8214  0.0938
   21MOL   C14625185   5.362   4.154   1.556  0.1847  0.8912 -0.4449
   21MOL   C14725186   5.466   4.119   1.445  0.0668 -0.4011 -0.0255
   21MOL   C14825187   5.464   3.968   1.428  0.0623 -0.2552  0.4249
   21MOL   C14925188   5.583   3.936   1.336 -0.4919  0.4763  0.5402
   21MOL   C15025189   5.587   3.782   1.306 -0.2432 -0.1321 -0.3499
   21MOL   C15125190   5.715   3.724   1.243 -0.7298 -0.1209 -0.4499
   21MOL   C15225191   5.731   3.751   1.097  0.2877 -0.0043 -0.2278
   21MOL   C15325192   5.845   3.697   1.020 -0.2900 -0.3389  0.6372
   21MOL   O15425193   5.836   3.725   0.887  0.3247 -0.3873  0.7410
   21MOL   C15525194   5.926   3.680   0.801 -0.9109  0.5357  0.3070
   21MOL   O15625195   6.036   3.633   0.827  0.0854  0.6027 -0.1803
   21MOL   C15725196   5.880   3.700   0.660  0.2896  0.5174 -0.5083
   21MOL   C15825197   5.741   3.642   0.625 -0.0968  0.0137  0.0614
   21MOL   C15925198   5.733   3.488   0.636 -0.6823 -0.1213  0.1254
   21MOL   C16025199   5.808   3.413   0.516  1.0417 -0.8042 -0.2373
   21MOL   C16125200   5.833   3.266   0.541 -0.1093 -0.2812  0.8515
   21MOL   C16225201   5.908   3.211   0.415  0.4425 -0.3976 -0.2780
   21MOL   C16325202   5.929   3.059   0.403  0.2487 -0.0778 -0.4365
   21MOL   C16425203   6.058   3.016   0.337  0.0612 -0.1045  0.2635
   21MOL   C16525204   6.042   3.031   0.185 -0.4003 -0.0479 -0.0316
   21MOL   O16625205   5.942   3.009   0.117  0.2124 -0.4359 -0.3279
   21MOL   H16725206   5.159   4.284   1.657 -1.4809  2.1204  1.8115
   21MOL   H16825207   5.204   4.450   1.655  1.1208  1.0754  1.1628
   21MOL   H16925208   5.353   4.348   1.479  1.4974 -2.4212 -1.4921
   21MOL   H17025209   5.445   4.343   1.614  2.3698 -2.1331 -2.1891
   21MOL   H17125210   5.386   4.118   1.656 -0.5897  2.7981  0.4641
   21MOL   H17225211   5.263   4.123   1.524  0.0640  0.4365  0.3660
   21MOL   H17325212   5.445   4.173   1.353  0.9571  1.5292  0.8615
   21MOL   H17425213   5.561   4.162   1.477  0.4904  1.3761 -3.4279
   21MOL   H17525214   5.375   3.920   1.389  0.6583 -1.5261  0.5750
   21MOL   H17625215   5.475   3.934   1.531  0.7608  2.5935  1.3316
   21MOL   H17725216   5.681   3.973   1.366  0.7755 -0.6690 -2.0305
   21MOL   H17825217   5.568   3.983   1.238  0.3007 -3.4788 -1.5931
   21MOL   H17925218   5.498   3.750   1.251 -1.2291 -0.6746  1.4867
   21MOL   H18025219   5.576   3.722   1.396  0.7471 -0.4983 -0.4636
   21MOL   H18125220   5.718   3.616   1.257  0.8431  0.2802  2.9381
   21MOL   H18225221   5.807   3.758   1.290 -0.4722  0.6270 -1.4971
   21MOL   H18325222   5.640   3.715   1.049  0.1682  0.3787 -0.2958
   21MOL   H18425223   5.731   3.860   1.088  0.6705  0.3830  3.6157
   21MOL   H18525224   5.941   3.739   1.048  0.4982 -0.7927 -1.2584
   21MOL   H18625225   5.840   3.589   1.033 -1.6183 -0.2893  0.5559
   21MOL   H18725226   5.954   3.676   0.584  0.1202  1.1451 -0.8712
   21MOL   H18825227   5.874   3.809   0.651  0.9679  0.4809 -1.5203
   21MOL   H18925228   5.712   3.674   0.525  0.4897  1.0666  0.2218
   21MOL   H19025229   5.664   3.687   0.688  0.8562  0.8869  0.6260
   21MOL   H19125230   5.636   3.440   0.641 -0.7108  0.0408  1.3313
   21MOL   H19225231   5.778   3.456   0.730 -0.8593  2.2249  1.0309
   21MOL   H19325232   5.907   3.456   0.522  1.5068 -2.0566  1.7808
   21MOL   H19425233   5.757   3.425   0.420 -3.4131 -0.6841  1.9850
   21MOL   H19525234   5.883   3.255   0.637  1.9085 -2.2302 -0.4036
   21MOL   H19625235   5.732   3.226   0.547 -1.0572  1.5900 -1.6685
   21MOL   H19725236   5.856   3.240   0.324  0.3900  0.4509  0.0148
   21MOL   H19825237   6.003   3.264   0.426  0.7200 -1.0385  0.4825
   21MOL   H19925238   5.843   3.029   0.344  1.3201 -0.8054 -1.6449
   21MOL   H20025239   5.925   3.009   0.499 -1.0917  3.1787  1.2822
   21MOL   H20125240   6.148   3.073   0.362  0.9372 -1.3325 -0.0468
   21MOL   H20225241   6.086   2.912   0.355  1.3651  0.5778  2.3210
   21MOL   H20325242   6.132   3.071   0.139 -0.2719  0.2625  0.4825
   22MOL     O125243   1.736   3.346   3.288 -0.3642 -0.6231  0.4240
   22MOL     C225244   1.700   3.212   3.321  0.6013  0.4168  0.2372
   22MOL     C325245   1.705   3.175   3.467  0.1388 -0.3745  0.3285
   22MOL     C425246   1.836   3.218   3.531 -0.1132  0.3708  0.0036
   22MOL     C525247   1.823   3.251   3.683 -0.3895  0.4761 -0.0468
   22MOL     C625248   1.846   3.132   3.776 -0.5309 -1.2028 -0.7663
   22MOL     C725249   1.850   3.188   3.921 -0.1267 -0.2396 -0.5878
   22MOL     C825250   1.912   3.088   4.017  0.1630  0.6815  0.3211
   22MOL     C925251   1.916   3.124   4.163  0.2953  0.2834 -0.4735
   22MOL    C1025252   1.954   2.998   4.232  0.0619  0.1755  0.3379
   22MOL    C1125253   1.932   2.998   4.388  0.2465 -0.4951 -0.1971
   22MOL    O1225254   2.032   3.072   4.452 -0.3144  0.0262  0.0900
   22MOL    C1325255   2.016   3.118   4.574  0.8541 -0.6362 -1.1680
   22MOL    O1425256   1.908   3.120   4.640  0.2597  0.1026 -0.5816
   22MOL    C1525257   2.135   3.194   4.634  0.6133 -0.2584 -0.5762
   22MOL    C1625258   2.184   3.301   4.534 -1.1858 -0.1874 -0.1166
   22MOL    C1725259   2.294   3.405   4.574  0.2872 -0.0391  0.2595
   22MOL    C1825260   2.270   3.485   4.703  0.3481 -0.8127 -0.1217
   22MOL    C1925261   2.388   3.570   4.740  0.1820 -0.5437 -0.4663
   22MOL    C2025262   2.350   3.684   4.836  0.2739  0.4896 -0.7320
   22MOL    C2125263   2.474   3.774   4.861 -0.3300 -0.8271  0.4216
   22MOL    C2225264   2.522   3.776   5.005  0.3325 -0.6133 -0.1509
   22MOL    C2325265   2.610   3.657   5.057 -0.2809 -0.4119 -0.1451
   22MOL    O2425266   2.731   3.661   5.066  0.0887  0.2363 -0.1462
   22MOL    H2525267   1.600   3.186   3.285  0.3551  0.7027  0.7145
   22MOL    H2625268   1.764   3.138   3.272 -0.9799 -1.0083  0.2750
   22MOL    H2725269   1.623   3.227   3.515  1.4744  1.1275  1.0126
   22MOL    H2825270   1.697   3.067   3.484 -0.3391 -0.5339 -0.8817
   22MOL    H2925271   1.915   3.148   3.502 -0.9375 -1.1302  1.2918
   22MOL    H3025272   1.867   3.313   3.487  1.4180  0.6737  1.6979
   22MOL    H3125273   1.896   3.327   3.708  0.6876 -0.2947 -0.8180
   22MOL    H3225274   1.726   3.296   3.707 -0.3524  1.0252 -0.8776
   22MOL    H3325275   1.943   3.085   3.758  0.6072 -0.0061  1.8572
   22MOL    H3425276   1.758   3.070   3.764 -1.1244 -0.3330 -0.9369
   22MOL    H3525277   1.751   3.213   3.959 -0.5228  0.5125 -2.0778
   22MOL    H3625278   1.904   3.282   3.924 -0.6701  0.0151  1.7969
   22MOL    H3725279   2.012   3.066   3.979  0.5770 -1.5281  2.5684
   22MOL    H3825280   1.851   2.998   4.010  0.5464  0.3542  1.0829
   22MOL    H3925281   1.819   3.160   4.197  1.6743  2.9737  0.7636
   22MOL    H4025282   1.987   3.204   4.179 -0.0121  0.4253  0.1747
   22MOL    H4125283   1.903   2.913   4.188  2.5145 -0.6398 -1.0291
   22MOL    H4225284   2.062   2.992   4.214 -0.0663 -0.8141 -0.1184
   22MOL    H4325285   1.834   3.040   4.409  0.8236  1.6514 -1.5566
   22MOL    H4425286   1.949   2.896   4.422  0.7274 -0.9672 -1.7700
   22MOL    H4525287   2.210   3.119   4.659  0.5602  0.0687  0.5745
   22MOL    H4625288   2.110   3.238   4.730 -2.0570 -0.1335 -1.2655
   22MOL    H4725289   2.098   3.348   4.487 -0.2671 -1.0322 -2.7454
   22MOL    H4825290   2.224   3.256   4.443  0.4674  1.3242 -0.1599
   22MOL    H4925291   2.294   3.474   4.490  0.9838  0.7955  0.9352
   22MOL    H5025292   2.393   3.361   4.587  2.1561  3.7814 -0.4378
   22MOL    H5125293   2.256   3.432   4.798 -0.5649  0.7677  0.6438
   22MOL    H5225294   2.178   3.543   4.697  0.8535  0.0184  0.1449
   22MOL    H5325295   2.460   3.508   4.793  1.9085  1.0800 -0.8554
   22MOL    H5425296   2.426   3.611   4.646  1.5752  1.0058  0.7411
   22MOL    H5525297   2.261   3.741   4.807  0.1922  1.3155  1.0747
   22MOL    H5625298   2.322   3.624   4.923 -2.6436  0.9661 -1.2746
   22MOL    H5725299   2.455   3.878   4.837  4.2005 -0.3112 -1.4137
   22MOL    H5825300   2.557   3.749   4.795 -2.1248 -0.7645 -1.8947
   22MOL    H5925301   2.585   3.865   5.008  0.2078 -0.4418 -1.7561
   22MOL    H6025302   2.442   3.795   5.075  0.0096  1.6068 -1.0870
   22MOL    H6125303   1.732   3.361   3.195  1.8175  0.9456  0.5378
   22MOL    O6225304   2.539   3.550   5.077  0.6180 -0.3942 -0.1174
   22MOL    C6325305   2.620   3.435   5.129 -0.3218 -0.7112 -0.0050
   22MOL    C6425306   2.684   3.348   5.017 -0.1302 -0.1121  0.1075
   22MOL    C6525307   2.575   3.274   4.934 -0.2652 -0.4377 -0.0420
   22MOL    C6625308   2.624   3.201   4.808  0.0608  0.4394 -0.2118
   22MOL    C6725309   2.509   3.126   4.748 -0.0237 -0.2979 -0.6771
   22MOL    C6825310   2.545   3.071   4.606 -0.0022 -0.4838  0.5334
   22MOL    C6925311   2.441   2.965   4.551  0.1897  0.3198 -0.1312
   22MOL    C7025312   2.458   2.958   4.394 -0.1776 -0.0402  0.6340
   22MOL    C7125313   2.390   2.834   4.333  0.3607  0.7817  0.3619
   22MOL    C7225314   2.319   2.848   4.202  0.2410 -0.1113 -0.1385
   22MOL    O7325315   2.193   2.782   4.193  0.1517 -0.1819 -0.3029
   22MOL    C7425316   2.181   2.661   4.138 -0.1408  0.6943 -1.0007
   22MOL    O7525317   2.279   2.604   4.086 -0.2656 -0.7130 -0.0163
   22MOL    C7625318   2.040   2.595   4.137  0.0576  0.1344 -0.9854
   22MOL    C7725319   1.970   2.596   4.274 -0.1532 -0.7183  0.3553
   22MOL    C7825320   1.829   2.536   4.260 -0.1746 -0.5921 -0.1017
   22MOL    C7925321   1.747   2.556   4.388  0.5117  0.4606 -0.8006
   22MOL    C8025322   1.613   2.481   4.362  0.2985  0.1743 -0.9121
   22MOL    C8125323   1.508   2.524   4.472  0.1198  0.5105  0.3893
   22MOL    C8225324   1.384   2.446   4.481  0.0951  0.6475 -0.5531
   22MOL    C8325325   1.281   2.485   4.589 -0.5421 -0.0128 -0.1185
   22MOL    C8425326   1.330   2.474   4.735  0.5933 -0.3412  0.2066
   22MOL    O8525327   1.372   2.570   4.798  0.4695  0.3076 -0.3620
   22MOL    H8625328   2.709   3.475   5.178 -0.8235 -1.2478  1.3567
   22MOL    H8725329   2.558   3.371   5.192 -2.6500  2.9790  1.5915
   22MOL    H8825330   2.738   3.414   4.948 -1.2226  0.6524 -0.0300
   22MOL    H8925331   2.754   3.270   5.047 -0.9035 -1.0521 -0.5200
   22MOL    H9025332   2.531   3.200   5.001 -0.0794  1.2975  2.0480
   22MOL    H9125333   2.489   3.337   4.913 -0.3766 -0.4680  0.3181
   22MOL    H9225334   2.668   3.280   4.748  1.8033 -0.9415 -0.8276
   22MOL    H9325335   2.707   3.136   4.836  0.6936  1.7411  1.0156
   22MOL    H9425336   2.429   3.200   4.744  0.7212  0.9419  3.7973
   22MOL    H9525337   2.478   3.046   4.816 -2.1284  1.2098  0.1938
   22MOL    H9625338   2.642   3.022   4.590 -0.9259 -2.0616 -0.4380
   22MOL    H9725339   2.549   3.160   4.543 -2.0821 -0.2883  0.6632
   22MOL    H9825340   2.336   2.986   4.570  0.3166 -0.0186  0.9615
   22MOL    H9925341   2.464   2.868   4.596  0.9547  1.1277  1.2561
   22MOL   H10025342   2.557   2.968   4.350 -0.6694 -0.4369 -0.5784
   22MOL   H10125343   2.414   3.051   4.359  0.1656 -0.8053 -1.9084
   22MOL   H10225344   2.448   2.742   4.341 -1.1478 -0.1337  0.9782
   22MOL   H10325345   2.317   2.808   4.410 -0.4710 -0.5373 -0.8570
   22MOL   H10425346   2.284   2.951   4.193  1.0070  0.1937  0.3171
   22MOL   H10525347   2.390   2.821   4.124  1.1565 -0.4260  0.7968
   22MOL   H10625348   2.038   2.489   4.114  1.0560  0.4784 -2.7501
   22MOL   H10725349   1.979   2.638   4.058 -0.9435  0.5958  0.0168
   22MOL   H10825350   1.960   2.700   4.306  0.9618 -0.0578 -1.3239
   22MOL   H10925351   2.042   2.539   4.332  0.6073  0.1392  0.2709
   22MOL   H11025352   1.840   2.429   4.240 -0.3788 -0.4660 -0.9093
   22MOL   H11125353   1.779   2.591   4.180  0.0197  0.1299  0.2698
   22MOL   H11225354   1.723   2.662   4.397 -1.2245 -0.0919  1.5145
   22MOL   H11325355   1.794   2.520   4.479  0.0246 -0.6299 -0.9775
   22MOL   H11425356   1.575   2.512   4.264 -1.8836  0.0856 -0.1161
   22MOL   H11525357   1.620   2.372   4.362 -1.9560  0.0143 -0.4849
   22MOL   H11625358   1.560   2.520   4.567  2.0015  0.4604 -0.6132
   22MOL   H11725359   1.495   2.630   4.449 -2.9255  0.0125 -0.4570
   22MOL   H11825360   1.416   2.345   4.506 -2.4835 -0.2532 -0.8025
   22MOL   H11925361   1.342   2.436   4.381 -1.0580  0.0110 -0.0160
   22MOL   H12025362   1.252   2.586   4.559 -0.4416 -0.0719 -0.4156
   22MOL   H12125363   1.185   2.437   4.573 -0.2843 -0.1666 -1.2337
   22MOL   O12225364   1.326   2.344   4.791 -0.2189  0.2189 -0.3027
   22MOL   C12325365   1.359   2.329   4.932 -0.6417 -0.1482 -0.5227
   22MOL   C12425366   1.517   2.319   4.958  0.4092 -0.2625 -0.2128
   22MOL   C12525367   1.539   2.315   5.105  0.1947 -0.2951 -0.3724
   22MOL   C12625368   1.693   2.334   5.131  0.6640  0.2671  0.1511
   22MOL   C12725369   1.737   2.372   5.275  0.4859  0.4823  0.8892
   22MOL   C12825370   1.704   2.517   5.306  0.0969 -0.7021 -0.5847
   22MOL   C12925371   1.758   2.553   5.439  0.2292  0.0976  0.1473
   22MOL   C13025372   1.720   2.690   5.491 -0.2701  0.0690  0.5599
   22MOL   C13125373   1.732   2.694   5.642  0.3155  0.1915 -0.3287
   22MOL   C13225374   1.620   2.622   5.725 -0.0992 -0.5977 -0.5730
   22MOL   O13325375   1.640   2.658   5.861 -0.6771 -0.6074  0.7564
   22MOL   C13425376   1.562   2.604   5.962 -0.6467  0.1308 -0.0263
   22MOL   O13525377   1.460   2.544   5.940 -0.1073  0.1687 -0.0660
   22MOL   C13625378   1.611   2.651   6.102 -0.4819  0.0873  0.0480
   22MOL   C13725379   1.555   2.787   6.148 -0.4556  0.3523 -0.2963
   22MOL   C13825380   1.396   2.784   6.145 -0.0001  0.6492  0.2994
   22MOL   C13925381   1.330   2.915   6.183 -0.7277  0.4666 -0.7414
   22MOL   C14025382   1.177   2.919   6.175 -0.0405 -0.5509  0.3301
   22MOL   C14125383   1.109   3.031   6.255  0.1525  0.2379 -0.0398
   22MOL   C14225384   0.954   3.045   6.233 -0.4276  0.4048 -0.4277
   22MOL   C14325385   0.897   3.180   6.273  0.3168  0.2044  0.0092
   22MOL   C14425386   0.756   3.213   6.213  0.7583  0.0834  0.5707
   22MOL   O14525387   0.751   3.282   6.110  0.0324 -0.5296 -0.0634
   22MOL   H14625388   1.320   2.405   4.999  1.0226  0.3285 -0.0808
   22MOL   H14725389   1.313   2.236   4.965  2.2454 -1.3902  0.2219
   22MOL   H14825390   1.547   2.234   4.898 -2.5537 -1.2002 -0.4158
   22MOL   H14925391   1.580   2.393   4.908  1.0505 -1.4228 -1.1405
   22MOL   H15025392   1.470   2.388   5.148  0.5430 -0.4932  0.5386
   22MOL   H15125393   1.499   2.218   5.136 -4.2547  1.2399 -0.9877
   22MOL   H15225394   1.743   2.244   5.096  0.1495 -0.7831  2.0144
   22MOL   H15325395   1.734   2.413   5.069 -1.0461  2.2270  1.4598
   22MOL   H15425396   1.846   2.362   5.279  0.2794 -3.8047 -1.2757
   22MOL   H15525397   1.707   2.299   5.351 -1.2873  0.9218  0.6313
   22MOL   H15625398   1.596   2.525   5.306  0.1212 -0.2877  0.3011
   22MOL   H15725399   1.747   2.575   5.224  1.6696 -0.4911  0.3562
   22MOL   H15825400   1.866   2.541   5.437  0.4760  1.9441  1.1534
   22MOL   H15925401   1.710   2.485   5.509  2.6639  0.1472  1.9171
   22MOL   H16025402   1.618   2.716   5.463  0.4313 -0.0828 -2.2375
   22MOL   H16125403   1.793   2.759   5.449  0.1283 -1.5491 -1.4362
   22MOL   H16225404   1.827   2.655   5.681 -1.0019 -1.3342  1.4782
   22MOL   H16325405   1.735   2.800   5.664 -0.2023  0.2771 -0.6737
   22MOL   H16425406   1.522   2.665   5.709 -0.6717 -1.0443  1.5323
   22MOL   H16525407   1.607   2.515   5.712  0.3269 -1.0959  2.5636
   22MOL   H16625408   1.719   2.661   6.108 -0.7509  3.4777  0.1857
   22MOL   H16725409   1.580   2.575   6.174 -0.2598 -1.3884 -1.3728
   22MOL   H16825410   1.589   2.872   6.088  3.2870  0.6426  2.0625
   22MOL   H16925411   1.589   2.802   6.250 -1.4469 -1.2758  0.2812
   22MOL   H17025412   1.350   2.708   6.208  0.6206 -0.7895 -0.9570
   22MOL   H17125413   1.363   2.751   6.046  0.5629  0.4971  0.1628
   22MOL   H17225414   1.366   2.989   6.112  1.2490 -0.1671 -0.4161
   22MOL   H17325415   1.368   2.949   6.279  1.3035  0.1272 -1.4051
   22MOL   H17425416   1.143   2.929   6.072 -0.4035 -1.7801  0.3260
   22MOL   H17525417   1.146   2.820   6.207  1.2360 -0.1514  2.8993
   22MOL   H17625418   1.130   3.025   6.362  3.0264  1.7436 -0.4672
   22MOL   H17725419   1.147   3.131   6.234 -0.0216  0.1811 -0.6367
   22MOL   H17825420   0.905   2.969   6.294  1.4596  1.3743  2.3786
   22MOL   H17925421   0.921   3.020   6.132 -1.2563 -0.2748  0.0088
   22MOL   H18025422   0.877   3.184   6.380  0.1904 -0.1743 -0.0002
   22MOL   H18125423   0.958   3.269   6.258 -0.9744  1.1517  0.2419
   22MOL   O18225424   0.656   3.146   6.269 -0.3189 -0.0619  0.1661
   22MOL   C18325425   0.528   3.152   6.214  0.3432 -0.7871  0.1795
   22MOL   C18425426   0.408   3.101   6.302 -0.0186 -0.1078 -0.2729
   22MOL   C18525427   0.275   3.108   6.221 -0.1218  0.0797 -0.4006
   22MOL   C18625428   0.149   3.091   6.310 -0.9538  0.7641 -0.4645
   22MOL   C18725429   0.015   3.088   6.233 -0.3076  0.3381 -0.1238
   22MOL   C18825430   7.739   3.235   6.185  0.1438  0.5087  0.2605
   22MOL   C18925431   7.588   3.243   6.147  0.3353  0.4797 -0.0491
   22MOL   C19025432   7.553   3.386   6.152  0.4029  1.1364  0.4576
   22MOL   C19125433   7.405   3.425   6.116  0.0124 -0.6633  0.0935
   22MOL   C19225434   7.357   3.559   6.185 -0.2272 -0.6754 -0.1744
   22MOL   O19325435   7.429   3.674   6.136  0.1110  0.8791  0.2616
   22MOL   C19425436   7.534   3.732   6.188 -0.6965 -0.0630  0.1989
   22MOL   O19525437   7.599   3.695   6.285 -0.4017  0.0712  0.0662
   22MOL   C19625438   7.568   3.861   6.108  0.0911  0.0894 -1.1910
   22MOL   C19725439   7.623   3.832   5.963 -0.4963 -0.5241  0.2067
   22MOL   C19825440   7.735   3.737   5.953  0.0496  0.4780 -0.3298
   22MOL   C19925441   0.007   3.697   5.802 -0.1147  0.4145 -0.3234
   22MOL   C20025442   7.748   3.550   5.759  0.4997 -0.1163  0.2182
   22MOL   C20125443   0.104   3.465   5.821 -0.2479  0.2231 -0.2403
   22MOL   C20225444   0.090   3.316   5.782 -0.4895  0.2776 -0.6184
   22MOL   C20325445   0.213   3.236   5.828 -0.5212  0.6659 -0.3415
   22MOL   C20425446   0.201   3.084   5.827  0.3279 -0.7980  0.6690
   22MOL   O20525447   0.103   3.021   5.784  0.2130  1.2173 -0.1732
   22MOL   H20625448   0.506   3.256   6.191  0.7755 -0.3379  1.7555
   22MOL   H20725449   0.528   3.093   6.122 -0.0475  0.0533 -0.3625
   22MOL   H20825450   0.432   2.996   6.317  1.5451 -0.1200 -2.6477
   22MOL   H20925451   0.393   3.152   6.397 -0.7262 -0.3551 -0.2503
   22MOL   H21025452   0.271   3.201   6.164  0.3208 -0.2480 -0.9695
   22MOL   H21125453   0.274   3.028   6.147  1.0980  0.4319 -0.8009
   22MOL   H21225454   0.153   2.998   6.366 -0.0317  0.4651 -1.0196
   22MOL   H21325455   0.148   3.166   6.389  4.1249 -0.9485  1.4107
   22MOL   H21425456   7.684   3.050   6.286 -0.9935  4.1255  1.6108
   22MOL   H21525457   0.029   3.020   6.149 -0.2824 -1.3723  1.2438
   22MOL   H21625458   0.035   3.268   6.096 -1.0220 -0.1457 -0.6875
   22MOL   H21725459   0.009   3.302   6.267  1.4184 -0.2347  0.4653
   22MOL   H21825460   7.515   3.190   6.208 -0.1661  0.1137 -0.9601
   22MOL   H21925461   7.564   3.216   6.044 -3.7941  0.5261  0.8109
   22MOL   H22025462   7.623   3.451   6.099  1.6844 -1.9516 -1.7812
   22MOL   H22125463   7.561   3.411   6.258  0.5563  1.3824  0.3888
   22MOL   H22225464   7.406   3.434   6.008  3.1348  2.4502  0.3104
   22MOL   H22325465   7.344   3.348   6.164 -2.4176  0.7864 -0.6060
   22MOL   H22425466   7.253   3.564   6.155 -0.2252  1.1792  0.0384
   22MOL   H22525467   7.375   3.559   6.292  0.2201  0.6620 -0.2422
   22MOL   H22625468   7.648   3.911   6.163  0.1779  0.8752 -2.0271
   22MOL   H22725469   7.485   3.931   6.117 -1.8730 -2.2086 -0.9360
   22MOL   H22825470   7.645   3.930   5.920 -1.1251 -1.1630 -1.6104
   22MOL   H22925471   7.534   3.792   5.915 -0.3177  0.6440 -1.1280
   22MOL   H23025472   7.712   3.647   6.010  2.9514  1.9778  3.4508
   22MOL   H23125473   0.068   3.787   5.991  0.7111  0.2192 -1.4987
   22MOL   H23225474   0.104   3.736   5.771 -0.1702  2.9286  2.4926
   22MOL   H23325475   7.686   3.754   5.751 -0.4497 -0.2704 -0.5958
   22MOL   H23425476   7.650   3.510   5.784 -0.6011  1.8356 -0.8184
   22MOL   H23525477   7.737   3.548   5.651 -1.9919  0.9628  0.4164
   22MOL   H23625478   0.196   3.508   5.781 -0.4435  0.2705 -0.6448
   22MOL   H23725479   0.109   3.475   5.930  2.2959  0.4365 -0.3527
   22MOL   H23825480   0.085   3.301   5.675  0.7096  0.6562 -0.7410
   22MOL   H23925481   7.753   3.278   5.822 -2.3518  2.5934 -2.6441
   22MOL   H24025482   0.288   3.253   5.750  0.9506 -1.6742  0.4938
   22MOL   H24125483   0.262   3.266   5.920 -0.7595 -0.2651  0.1016
   22MOL   O24225484   0.302   3.021   5.886 -0.4112  0.1450 -0.0599
   22MOL   C24325485   0.283   2.885   5.912 -0.2720  0.6758 -0.1977
   22MOL   C24425486   0.428   2.833   5.922 -0.4991  0.6781 -0.4287
   22MOL   C24525487   0.440   2.691   5.978  1.0590  0.3104  0.5564
   22MOL   C24625488   0.587   2.643   5.996  0.3805  0.3535  0.3882
   22MOL   C24725489   0.640   2.674   6.139 -0.2682 -0.2048  0.3142
   22MOL   C24825490   0.792   2.656   6.147 -0.0369  0.1714  0.4026
   22MOL   C24925491   0.840   2.510   6.118 -0.3691  0.0079 -0.8847
   22MOL   C25025492   0.826   2.415   6.241  0.0659 -0.0739 -0.1176
   22MOL   C25125493   0.828   2.268   6.201 -0.5951  0.1313  0.1517
   22MOL   C25225494   0.772   2.175   6.315 -0.0317 -0.6415 -0.3671
   22MOL   O25325495   0.865   2.145   6.410  0.0412 -0.0677  0.0389
   22MOL   C25425496   0.824   2.100   6.526 -0.6690  0.5835 -0.0521
   22MOL   O25525497   0.709   2.071   6.565 -0.4911 -0.2631  0.3696
   22MOL   C25625498   0.939   2.075   6.624  0.5617  0.1649  0.0517
   22MOL   C25725499   1.021   2.195   6.670  0.3025 -0.4284 -0.1458
   22MOL   C25825500   1.155   2.149   6.735 -0.9374 -0.5785  0.9632
   22MOL   C25925501   1.268   2.133   6.622  0.2024  0.3227  0.1552
   22MOL   C26025502   1.372   2.038   6.657 -0.2988 -0.5755 -0.1889
   22MOL   C26125503   1.453   1.989   6.537 -0.2024  0.2894  0.7888
   22MOL   C26225504   1.541   1.869   6.567  0.3126 -0.2358  0.7267
   22MOL   C26325505   1.640   1.835   6.449 -0.1320  0.1490 -0.1845
   22MOL   C26425506   1.753   1.938   6.430  0.0145 -0.3232  0.3980
   22MOL   O26525507   1.844   1.950   6.506  0.2094  0.6211 -0.2771
   22MOL   H26625508   0.226   2.876   6.004  1.8760  0.7272  1.1575
   22MOL   H26725509   0.231   2.827   5.836 -0.3389 -0.0945  0.4368
   22MOL   H26825510   0.478   2.848   5.826  0.7574 -3.0841 -0.4481
   22MOL   H26925511   0.483   2.899   5.990 -1.4895  0.2377  0.8117
   22MOL   H27025512   0.381   2.669   6.067  0.1465 -0.6296 -0.2572
   22MOL   H27125513   0.398   2.619   5.907  2.2630 -0.9025  1.0608
   22MOL   H27225514   0.597   2.537   5.973  0.2657  0.7770 -1.7120
   22MOL   H27325515   0.640   2.697   5.918  0.1232  1.5166  1.0071
   22MOL   H27425516   0.587   2.612   6.211  1.4646 -1.4543  0.5566
   22MOL   H27525517   0.613   2.775   6.167  1.3934  0.2750  0.2738
   22MOL   H27625518   0.833   2.691   6.242  0.3720  0.0777  0.2631
   22MOL   H27725519   0.847   2.714   6.073 -0.9554  2.0161  1.1319
   22MOL   H27825520   0.939   2.500   6.074 -1.3227 -3.0094 -2.5186
   22MOL   H27925521   0.772   2.470   6.042 -1.1759 -0.8149  0.2503
   22MOL   H28025522   0.726   2.432   6.279  0.1889  0.4943 -0.0384
   22MOL   H28125523   0.892   2.444   6.323  1.0945  1.5261 -1.4581
   22MOL   H28225524   0.762   2.258   6.114  0.8443  0.1581 -0.9675
   22MOL   H28325525   0.928   2.236   6.173 -0.1503  0.0810  1.7445
   22MOL   H28425526   0.686   2.228   6.357 -0.5184 -0.3241 -1.7296
   22MOL   H28525527   0.741   2.083   6.267  2.4006 -0.4691 -2.3590
   22MOL   H28625528   1.000   2.010   6.561 -0.9191 -1.0672 -0.1047
   22MOL   H28725529   0.896   2.010   6.700 -1.1985 -3.1963 -3.6417
   22MOL   H28825530   0.958   2.253   6.738 -0.0133 -1.8360  0.7854
   22MOL   H28925531   1.039   2.262   6.586  0.9352 -0.8398 -0.3324
   22MOL   H29025532   1.141   2.049   6.776 -0.9703 -0.6475  0.7827
   22MOL   H29125533   1.193   2.218   6.811  0.1390  0.6437 -0.6431
   22MOL   H29225534   1.307   2.224   6.578 -0.0241  0.1305 -0.4536
   22MOL   H29325535   1.221   2.077   6.541 -0.9489 -1.0086  1.7119
   22MOL   H29425536   1.429   2.090   6.733 -0.2057 -0.1841 -0.5252
   22MOL   H29525537   1.332   1.948   6.704  0.7026  0.1344  2.0754
   22MOL   H29625538   1.383   1.956   6.460 -0.9082  1.9349  0.7115
   22MOL   H29725539   1.501   2.078   6.496 -0.4098  0.6444  1.3174
   22MOL   H29825540   1.483   1.781   6.596  1.1729 -1.1855 -0.3612
   22MOL   H29925541   1.612   1.886   6.647  0.0251  2.0654  0.5261
   22MOL   H30025542   1.678   1.739   6.484 -0.0274 -0.1308 -1.0592
   22MOL   H30125543   1.582   1.829   6.357 -1.5518  3.0080  0.4423
   22MOL   O30225544   1.726   2.021   6.333  0.2944  0.0651 -0.0693
   22MOL   C30325545   1.803   2.136   6.306 -0.4378 -0.2192  0.7146
   22MOL   C30425546   1.736   2.261   6.361  0.5759  0.2522 -0.1662
   22MOL   C30525547   1.611   2.297   6.287  0.1425 -0.2895  0.2962
   22MOL   C30625548   1.532   2.395   6.378  0.4350 -0.4137  0.4464
   22MOL   C30725549   1.395   2.435   6.333  0.6068  0.3595 -0.3439
   22MOL   C30825550   1.302   2.503   6.437 -0.5711  0.0541 -0.3228
   22MOL   C30925551   1.154   2.509   6.399  0.0140 -0.7612 -0.2189
   22MOL   C31025552   1.083   2.584   6.514 -0.3803 -0.4254  0.1052
   22MOL   C31125553   1.098   2.736   6.501 -0.3265 -0.0116 -0.3893
   22MOL   C31225554   1.023   2.805   6.623 -0.1568  0.1105  0.4842
   22MOL   O31325555   0.897   2.853   6.577  0.7053  0.5467 -0.5078
   22MOL   C31425556   0.782   2.774   6.587 -0.5348  0.3682 -0.3646
   22MOL   O31525557   0.776   2.658   6.628 -0.1819  1.0490 -0.3598
   22MOL   C31625558   0.659   2.847   6.539 -0.0042 -0.4406 -0.9977
   22MOL   C31725559   0.562   2.922   6.640  0.3297  0.1233  0.5640
   22MOL   C31825560   0.629   3.039   6.716  0.0411  0.5112  0.2541
   22MOL   C31925561   0.664   3.153   6.619 -0.3366 -0.0424 -0.3800
   22MOL   C32025562   0.708   3.284   6.679  0.2078  1.1416 -0.7064
   22MOL   C32125563   0.692   3.410   6.589 -0.0360  0.2977 -0.6567
   22MOL   C32225564   0.770   3.536   6.633 -0.3267 -0.3465  0.2723
   22MOL   C32325565   0.727   3.592   6.768 -0.1949 -0.1734  0.0934
   22MOL   C32425566   0.580   3.629   6.767 -0.6053 -0.1656 -0.3188
   22MOL   O32525567   0.551   3.745   6.726 -0.1495 -0.2765 -0.6148
   22MOL   H32625568   1.896   2.127   6.361  1.0836  0.9893 -1.5896
   22MOL   H32725569   1.842   2.148   6.205  0.6940  2.5882  1.4441
   22MOL   H32825570   1.720   2.249   6.468  1.0973  0.6870 -0.0388
   22MOL   H32925571   1.800   2.348   6.350 -0.5381  1.1406  0.1721
   22MOL   H33025572   1.648   2.341   6.194  0.0005 -1.5379 -0.3620
   22MOL   H33125573   1.546   2.213   6.263  0.6847 -0.9116  0.9748
   22MOL   H33225574   1.516   2.349   6.475  1.3860 -0.2264  0.7022
   22MOL   H33325575   1.583   2.491   6.387 -1.8384  0.9010 -0.2508
   22MOL   H33425576   1.341   2.345   6.305 -0.6328  1.3860 -1.3780
   22MOL   H33525577   1.400   2.486   6.236  0.2746 -1.1605 -1.1716
   22MOL   H33625578   1.340   2.604   6.451  0.0245 -0.1021 -0.7655
   22MOL   H33725579   1.315   2.463   6.538  1.0556  1.6015  0.1128
   22MOL   H33825580   1.104   2.413   6.390  0.3288 -0.7479 -2.2875
   22MOL   H33925581   1.142   2.556   6.301 -0.4058  0.1128  0.2491
   22MOL   H34025582   1.115   2.541   6.609 -0.5254 -1.9549 -0.5252
   22MOL   H34125583   0.976   2.561   6.508 -0.5329 -0.3815  2.3165
   22MOL   H34225584   1.204   2.761   6.502 -0.3204 -0.0483  0.6644
   22MOL   H34325585   1.046   2.767   6.410  0.4428  4.0461  0.4686
   22MOL   H34425586   1.009   2.740   6.710  0.8046 -0.8162 -0.0339
   22MOL   H34525587   1.079   2.892   6.657 -0.6492  0.5926  0.0632
   22MOL   H34625588   0.590   2.770   6.507 -2.8946  1.5455  0.2359
   22MOL   H34725589   0.678   2.914   6.454 -3.4069 -1.1611 -2.3992
   22MOL   H34825590   0.525   2.839   6.700  0.9479  0.2450  1.1154
   22MOL   H34925591   0.487   2.963   6.572  0.1739 -0.3671  0.4360
   22MOL   H35025592   0.726   3.014   6.759  0.8519  1.3804 -1.0331
   22MOL   H35125593   0.559   3.071   6.794 -2.3500 -0.5912 -1.3763
   22MOL   H35225594   0.570   3.177   6.568  0.6016  1.7609 -1.3152
   22MOL   H35325595   0.728   3.124   6.536  2.3385  0.7101  1.3591
   22MOL   H35425596   0.660   3.301   6.775  0.8840 -0.7826 -0.0129
   22MOL   H35525597   0.812   3.266   6.704 -0.0163  0.7863 -0.0085
   22MOL   H35625598   0.731   3.388   6.489 -1.0337  1.8414 -1.4033
   22MOL   H35725599   0.588   3.440   6.579 -0.6634 -1.8456 -0.8081
   22MOL   H35825600   0.770   3.621   6.565 -3.5671  1.1808  2.0402
   22MOL   H35925601   0.874   3.503   6.635 -0.0673  0.3533 -1.0840
   22MOL   H36025602   0.749   3.528   6.853 -0.6153 -1.9621 -1.0957
   22MOL   H36125603   0.787   3.681   6.786 -1.7859  0.8945  0.1627
   22MOL   O36225604   0.511   3.537   6.838  0.1167  0.0451  0.2291
   22MOL   C36325605   0.381   3.565   6.884  0.9222  0.1508  0.0454
   22MOL   C36425606   0.351   3.468   6.999  0.0505 -0.6716  0.4272
   22MOL   C36525607   0.324   3.321   6.956  0.3743 -0.1444 -0.2773
   22MOL   C36625608   0.324   3.228   7.073  0.2721  0.8704  0.4059
   22MOL   C36725609   0.306   3.077   7.034 -0.0051 -0.0353 -0.4384
   22MOL   C36825610   0.297   2.997   7.164  0.1755 -0.0370  0.7395
   22MOL   C36925611   0.287   2.847   7.137 -0.1977  0.2691  0.9102
   22MOL   C37025612   0.294   2.759   7.257 -0.1386  0.0544 -0.4356
   22MOL   C37125613   0.293   2.604   7.226  0.0718  0.2322 -0.1889
   22MOL   C37225614   0.304   2.526   7.354 -0.6714  1.0423 -0.0313
   22MOL   O37325615   0.301   2.387   7.321  0.6966 -0.2651 -0.0288
   22MOL   C37425616   0.275   2.291   7.418 -0.0895 -0.2455  0.1571
   22MOL   O37525617   0.264   2.317   7.538 -0.0967 -0.3445 -0.3294
   22MOL   C37625618   0.257   2.148   7.359  0.0991  0.0499 -0.3014
   22MOL   C37725619   0.135   2.125   7.266  0.0839  0.5232  0.3599
   22MOL   C37825620   7.752   2.150   7.331 -0.3211 -0.7152  0.0168
   22MOL   C37925621   7.639   2.128   7.231  0.0637  0.5099  0.0553
   22MOL   C38025622   7.513   2.084   7.306 -0.4336  0.4839  0.0254
   22MOL   C38125623   7.394   2.113   7.218  0.1666  0.1038  0.1587
   22MOL   C38225624   7.369   2.259   7.175 -0.6654  0.6390  0.3357
   22MOL   C38325625   7.219   2.278   7.132 -0.5029  0.5438  0.2249
   22MOL   C38425626   7.194   2.204   6.994 -0.5893  0.1209  0.3729
   22MOL   O38525627   7.120   2.110   6.985  1.0566  0.0650 -0.1649
   22MOL   H38625628   0.369   3.671   6.906 -0.6799  0.7830 -3.5302
   22MOL   H38725629   0.315   3.548   6.799  1.8804 -2.4871 -0.2177
   22MOL   H38825630   0.439   3.470   7.063 -2.1432  2.3540  3.5990
   22MOL   H38925631   0.268   3.503   7.061 -0.6935 -1.2230 -0.2609
   22MOL   H39025632   0.226   3.316   6.909  0.3591 -1.9673 -0.1186
   22MOL   H39125633   0.404   3.305   6.884  0.1796 -3.1632  0.1074
   22MOL   H39225634   0.417   3.233   7.129 -0.9959  2.3458  2.4423
   22MOL   H39325635   0.257   3.256   7.155  0.4642 -0.7780  1.1569
   22MOL   H39425636   0.396   3.059   6.975  0.8915 -2.2576  1.4843
   22MOL   H39525637   0.214   3.052   6.982  0.6951 -1.5096 -1.0101
   22MOL   H39625638   0.215   3.033   7.227  0.3992 -0.4756  1.2917
   22MOL   H39725639   0.387   3.018   7.222 -1.4060  0.8896  2.9276
   22MOL   H39825640   0.358   2.815   7.061 -0.9790  1.1943 -0.2361
   22MOL   H39925641   0.190   2.827   7.091  0.1644  1.5223 -0.4091
   22MOL   H40025642   0.204   2.775   7.318 -1.9224 -1.8671 -2.4883
   22MOL   H40125643   0.382   2.786   7.316 -0.6492 -2.1692  1.4129
   22MOL   H40225644   0.196   2.570   7.188  0.1696 -0.9307  0.5837
   22MOL   H40325645   0.377   2.590   7.158  0.3097 -1.3369  0.4179
   22MOL   H40425646   0.393   2.546   7.413 -0.2438  0.7816 -0.5835
   22MOL   H40525647   0.224   2.556   7.423  0.0144 -1.2164  1.8170
   22MOL   H40625648   0.254   2.079   7.443  0.1208  0.9293  0.4240
   22MOL   H40725649   0.352   2.119   7.313  0.2883 -0.8958  0.6615
   22MOL   H40825650   0.146   2.022   7.231  2.0816  1.0842 -0.7372
   22MOL   H40925651   0.137   2.195   7.182  1.7754 -0.3205 -0.3446
   22MOL   H41025652   7.744   2.256   7.357 -0.7494 -0.9071  0.6946
   22MOL   H41125653   7.737   2.094   7.424  0.6893  1.6858  1.6717
   22MOL   H41225654   7.656   2.048   7.159  1.3492  0.8390 -0.0076
   22MOL   H41325655   7.611   2.219   7.178  1.4031  0.9178  0.0368
   22MOL   H41425656   7.517   1.975   7.316  1.5271  0.7093  2.1206
   22MOL   H41525657   7.499   2.130   7.404  0.8562  3.5725 -1.1625
   22MOL   H41625658   7.403   2.047   7.131 -0.4619  1.2392 -0.7874
   22MOL   H41725659   7.311   2.070   7.275  0.9691  0.6374  1.7419
   22MOL   H41825660   7.431   2.300   7.095 -1.2941  0.2546 -0.3635
   22MOL   H41925661   7.384   2.322   7.263  0.8755  0.0884  0.4733
   22MOL   H42025662   7.148   2.241   7.206 -0.0392 -0.5016  0.1686
   22MOL   H42125663   7.194   2.383   7.119  1.1385  1.2046  2.0776
   22MOL   O42225664   7.260   2.256   6.892  0.4438 -0.0228 -0.1669
   22MOL   C42325665   7.253   2.210   6.755  0.0480  0.3808 -0.1509
   22MOL   C42425666   7.336   2.083   6.727 -0.0019  0.3816 -0.5674
   22MOL   C42525667   7.485   2.101   6.736 -0.0887 -0.1078 -0.4156
   22MOL   C42625668   7.566   1.973   6.682 -0.4182 -0.1553 -0.7766
   22MOL   C42725669   7.715   1.996   6.697  0.3947  0.2365  0.1907
   22MOL   C42825670   0.041   1.884   6.636 -0.4488  0.0212 -0.0878
   22MOL   C42925671   0.195   1.916   6.624  0.0622 -0.8404 -0.7546
   22MOL   C43025672   0.276   1.800   6.581 -0.3359  0.3253  0.2137
   22MOL   C43125673   0.429   1.837   6.565 -0.2055  0.4152  0.9505
   22MOL   C43225674   0.518   1.735   6.507 -0.1464  0.5656 -0.2606
   22MOL   O43325675   0.497   1.625   6.607  0.7071  0.2234  0.4383
   22MOL   C43425676   0.498   1.501   6.553 -0.0544  0.3854 -0.0698
   22MOL   O43525677   0.529   1.478   6.434  0.2223 -0.2740  0.1969
   22MOL   C43625678   0.469   1.394   6.655 -0.1706 -0.2051 -0.5055
   22MOL   C43725679   0.539   1.261   6.616 -0.2269 -0.1401  0.7804
   22MOL   C43825680   0.554   1.181   6.749  0.0715  0.3979  0.3785
   22MOL   C43925681   0.589   1.030   6.719  0.1786 -0.3789  0.6595
   22MOL   C44025682   0.603   0.940   6.844  0.1640  0.6263  0.0757
   22MOL   C44125683   0.722   0.964   6.933  0.0915  0.2199 -0.5038
   22MOL   C44225684   0.737   0.861   7.046  0.7289  0.2974  0.2824
   22MOL   C44325685   0.856   0.888   7.143 -0.2398 -0.2699 -0.0527
   22MOL   C44425686   0.862   0.793   7.260  0.4243  0.5126  0.2375
   22MOL   O44525687   0.837   0.667   7.245 -0.5723 -0.5011 -0.1612
   22MOL   H44625688   7.155   2.200   6.709 -0.6334  1.1702  1.1003
   22MOL   H44725689   7.301   2.293   6.704  1.7403  0.1765  1.0508
   22MOL   H44825690   7.301   1.998   6.784  3.1933  0.3506  1.5106
   22MOL   H44925691   7.320   2.048   6.625  0.3879  1.7820 -1.1338
   22MOL   H45025692   7.522   2.187   6.679  1.4490  1.1757  2.4382
   22MOL   H45125693   7.509   2.126   6.839  0.2477 -0.7819 -0.3254
   22MOL   H45225694   7.529   1.885   6.735  0.7457  1.3246  2.6571
   22MOL   H45325695   7.542   1.956   6.577  1.4644 -1.2888 -1.0505
   22MOL   H45425696   7.738   2.010   6.802 -0.1013  0.4181  0.2771
   22MOL   H45525697   7.743   2.091   6.651  1.0002  0.0331  0.1317
   22MOL   H45625698   0.004   1.851   6.539 -1.9687  0.8454  0.2040
   22MOL   H45725699   0.031   1.794   6.696 -2.4569  1.0603  1.1797
   22MOL   H45825700   0.229   1.930   6.727 -0.3169 -2.4707 -0.3918
   22MOL   H45925701   0.209   2.000   6.556 -0.2724 -0.4984 -0.4052
   22MOL   H46025702   0.239   1.766   6.483 -0.5888  0.3287  0.3070
   22MOL   H46125703   0.259   1.715   6.647 -2.5711 -0.0582 -0.8151
   22MOL   H46225704   0.438   1.931   6.510 -0.0799  0.8651  1.7306
   22MOL   H46325705   0.471   1.860   6.663  0.4053  0.4389  0.6847
   22MOL   H46425706   0.480   1.714   6.407 -0.9984 -3.2186  0.7770
   22MOL   H46525707   0.622   1.767   6.507  0.3955 -1.1533 -0.6929
   22MOL   H46625708   0.369   1.361   6.681  0.5002 -0.9479  1.1980
   22MOL   H46725709   0.520   1.418   6.748 -0.1339 -0.3413 -0.4914
   22MOL   H46825710   0.635   1.281   6.569 -0.6590  0.7355  0.2562
   22MOL   H46925711   0.474   1.209   6.546  0.2076 -1.4114  1.3161
   22MOL   H47025712   0.463   1.192   6.808 -0.7861  1.6081 -1.1293
   22MOL   H47125713   0.631   1.217   6.817  2.2918 -0.1770 -1.7485
   22MOL   H47225714   0.686   1.024   6.671 -0.3830 -1.1475 -0.3864
   22MOL   H47325715   0.510   0.990   6.656 -0.9481  3.1671 -0.2630
   22MOL   H47425716   0.507   0.919   6.891  0.5586 -1.5693 -0.0869
   22MOL   H47525717   0.630   0.840   6.811  0.3714  0.4886  0.6486
   22MOL   H47625718   0.805   0.959   6.862 -0.2671 -0.8858 -0.8557
   22MOL   H47725719   0.714   1.065   6.974  1.7632 -0.1894  0.9273
   22MOL   H47825720   0.739   0.767   6.991  2.4830  0.2855  0.3253
   22MOL   H47925721   0.646   0.867   7.106  1.7018  2.2660  1.6182
   22MOL   H48025722   0.952   0.886   7.090  0.4994  0.8561  1.2121
   22MOL   H48125723   0.853   0.991   7.179 -1.5418  0.2782 -1.6433
   22MOL   O48225724   0.863   0.872   7.376  0.2729  0.3369  0.3837
   22MOL   C48325725   0.853   0.812   7.500 -0.2812 -1.3266  0.4238
   22MOL   C48425726   0.816   0.909   7.604  0.0459  0.2171  0.4391
   22MOL   C48525727   0.667   0.953   7.603 -1.3852 -0.6332 -0.1524
   22MOL   C48625728   0.638   1.023   7.738  0.8508 -0.1282 -0.0244
   22MOL   C48725729   0.503   1.087   0.004  0.6210  0.1352 -1.0064
   22MOL   C48825730   0.472   1.215   7.689  0.2315  0.5825 -0.0743
   22MOL   C48925731   0.324   1.264   7.711 -0.1006  0.1607  0.7902
   22MOL   C49025732   0.284   1.398   7.644  0.3755  0.0620  0.2960
   22MOL   C49125733   0.136   1.444   7.661  0.7429  0.1800  0.3510
   22MOL   C49225734   0.049   1.379   7.553 -0.3607  0.0315 -0.3734
   22MOL   O49325735   7.668   1.406   7.577 -1.1107  0.2087 -0.7673
   22MOL   C49425736   7.571   1.385   7.487 -0.4317 -0.5306 -0.5930
   22MOL   O49525737   7.603   1.382   7.371  0.1244 -0.6358 -0.0633
   22MOL   C49625738   7.422   1.387   7.529  0.0854 -0.1475 -0.7667
   22MOL   C49725739   7.346   1.523   7.521  0.0065  0.2437 -0.2603
   22MOL   C49825740   7.201   1.530   7.592 -0.1706  0.3124 -0.1705
   22MOL   C49925741   7.111   1.420   7.541  0.6716 -0.0513  0.6132
   22MOL   C50025742   6.984   1.394   7.615  0.4499  0.9669  0.1403
   22MOL   C50125743   6.929   1.252   7.622  0.7250  0.0295 -0.3621
   22MOL   C50225744   6.791   1.252   7.697  0.2736 -0.4417  0.0955
   22MOL   C50325745   6.708   1.121   7.677 -0.2778 -0.5286  0.8817
   22MOL   C50425746   6.578   1.140   7.751  0.0205  0.4752 -0.0200
   22MOL   O50525747   6.532   1.250   0.025  0.1110  0.3084  0.4882
   22MOL   H50625748   0.779   0.732   7.505 -1.2547 -0.5184 -0.7508
   22MOL   H50725749   0.949   0.766   7.523  0.2336  0.4267  1.9805
   22MOL   H50825750   0.838   0.855   7.696 -0.3916 -1.3107 -0.3530
   22MOL   H50925751   0.872   1.003   7.600  0.3714  0.1514  2.8127
   22MOL   H51025752   0.634   1.021   7.525  0.7170 -0.3803 -0.8635
   22MOL   H51125753   0.606   0.863   7.597 -1.0240 -1.2124  3.6394
   22MOL   H51225754   0.662   0.964   0.070  0.7431 -2.0556 -1.2389
   22MOL   H51325755   0.713   1.101   7.739  0.3052  0.4079 -0.2777
   22MOL   H51425756   0.480   1.088   0.110 -0.4633  2.7516 -1.2119
   22MOL   H51525757   0.436   1.007   7.729  0.2979  0.1541 -0.3758
   22MOL   H51625758   0.480   1.212   7.581 -0.4410  0.2555 -0.1193
   22MOL   H51725759   0.537   1.298   7.717  1.5331 -0.1323 -0.9565
   22MOL   H51825760   0.304   1.292   0.058  2.0246  1.2537  0.9304
   22MOL   H51925761   0.249   1.188   7.688 -0.7404  1.0734 -0.2079
   22MOL   H52025762   0.308   1.387   7.538  0.7365  2.0121  0.1467
   22MOL   H52125763   0.349   1.477   7.682  1.1451 -0.4301 -0.0086
   22MOL   H52225764   0.111   1.420   0.008 -3.8732  0.0084 -0.6841
   22MOL   H52325765   0.136   1.553   7.651  0.2892 -0.0334 -2.4735
   22MOL   H52425766   0.078   1.433   7.463 -1.9775  0.8050 -0.4482
   22MOL   H52525767   0.079   1.277   7.527  1.1743  0.1327  0.9376
   22MOL   H52625768   7.419   1.349   7.631 -0.1103 -1.3939 -1.2255
   22MOL   H52725769   7.367   1.306   7.483 -2.7232  1.3614 -0.1600
   22MOL   H52825770   7.334   1.548   7.415  0.7582 -0.3030 -0.4823
   22MOL   H52925771   7.414   1.599   7.559 -1.8676  1.4555  0.6906
   22MOL   H53025772   7.162   1.625   7.554  1.3924  2.1793  2.6867
   22MOL   H53125773   7.205   1.524   7.701 -0.9331 -1.7535 -0.2428
   22MOL   H53225774   7.167   1.329   7.520  1.6603  0.8637 -0.8596
   22MOL   H53325775   7.076   1.445   7.440 -0.1802  0.5103  1.0404
   22MOL   H53425776   6.988   1.424   7.720 -2.7414  2.3819 -0.0942
   22MOL   H53525777   6.907   1.451   7.564 -2.3020 -2.4003  0.3433
   22MOL   H53625778   6.913   1.211   7.522 -0.0224 -1.9802  0.5451
   22MOL   H53725779   7.015   1.194   7.656  1.3527  1.6900  0.9157
   22MOL   H53825780   6.739   1.343   7.668 -1.1428 -1.0688  0.5997
   22MOL   H53925781   6.807   1.251   0.048  0.3972 -1.5670  0.0790
   22MOL   H54025782   6.682   1.110   7.572 -0.3632 -1.0749  0.9561
   22MOL   H54125783   6.754   1.026   7.702  1.8844  0.1737 -0.3258
   22MOL   O54225784   6.526   1.017   0.019 -0.0355 -0.2534 -0.1437
   22MOL   C54325785   6.389   1.005   0.065  0.2869 -0.2784 -0.2135
   22MOL   C54425786   6.363   0.857   0.051 -0.1886  0.5222 -0.3821
   22MOL   C54525787   6.210   0.815   0.073 -0.5651 -0.2738  0.1917
   22MOL   C54625788   6.184   0.665   0.075  0.0181 -0.2513 -0.3956
   22MOL   C54725789   6.270   0.579   0.161  0.3002 -0.0553 -0.2390
   22MOL   C54825790   6.229   0.427   0.151  0.1796  0.4461 -0.0904
   22MOL   C54925791   6.325   0.333   0.231 -0.5667  0.5880 -0.0248
   22MOL   C55025792   6.293   0.189   0.195 -0.1016  0.5343  0.1961
   22MOL   C55125793   6.358   0.088   0.288  0.0974 -0.1467  0.1609
   22MOL   C55225794   6.338   7.701   0.252 -0.2523  0.5688  0.2234
   22MOL   O55325795   6.207   7.669   0.288  0.4984 -0.5375 -0.1061
   22MOL   C55425796   6.109   7.641   0.206  0.1090  0.2894 -0.1920
   22MOL   O55525797   6.115   7.633   0.086 -0.2517 -0.1035 -0.4590
   22MOL   C55625798   5.980   7.604   0.276  0.2210 -0.1911 -0.1891
   22MOL   C55725799   5.894   7.499   0.198 -0.5059  0.1616 -0.7755
   22MOL   C55825800   5.764   7.462   0.269  0.2017 -0.1647 -0.6245
   22MOL   C55925801   5.693   7.348   0.195 -0.2139 -0.3896 -0.4537
   22MOL   C56025802   5.564   7.328   0.273 -0.4282 -0.7872 -0.2316
   22MOL   C56125803   5.478   7.215   0.207  0.4993 -0.3857  0.2095
   22MOL   C56225804   5.336   7.200   0.274 -0.3369  0.1950  0.2297
   22MOL   C56325805   5.236   7.097   0.209 -0.5003  0.2215  0.3019
   22MOL   C56425806   5.120   7.068   0.305 -0.0290 -0.6021  0.1877
   22MOL   O56525807   5.085   6.954   0.334 -0.4153 -0.3003  0.1661
   22MOL   H56625808   6.380   1.041   0.167 -0.4587 -0.0608 -0.3527
   22MOL   H56725809   6.322   1.054   7.751 -0.8862 -1.4014  0.1087
   22MOL   H56825810   6.401   0.820   7.712  1.2211 -1.4524  0.8945
   22MOL   H56925811   6.427   0.812   0.127  1.8232  2.9976 -0.5541
   22MOL   H57025812   6.177   0.859   0.167 -0.4415 -2.7063  1.4059
   22MOL   H57125813   6.145   0.857   7.753 -0.0609  2.5781  1.2593
   22MOL   H57225814   6.080   0.649   0.104  0.3171  2.1858  2.1740
   22MOL   H57325815   6.178   0.637   7.726  2.0670 -0.8250 -0.3816
   22MOL   H57425816   6.274   0.613   0.265 -0.6374  0.3191 -0.3150
   22MOL   H57525817   6.375   0.588   0.135  0.7738 -2.7269  0.5569
   22MOL   H57625818   6.216   0.389   0.050  1.1046 -2.7370  0.9396
   22MOL   H57725819   6.127   0.420   0.189  0.5596 -2.1426  0.5153
   22MOL   H57825820   6.304   0.344   0.337  1.8457  1.2854  0.3982
   22MOL   H57925821   6.427   0.371   0.226 -0.8319  1.9237  3.4053
   22MOL   H58025822   6.324   0.182   0.090 -0.7852  1.4983 -0.0739
   22MOL   H58125823   6.186   0.187   0.215  0.1122 -1.6639  1.2167
   22MOL   H58225824   6.465   0.108   0.294 -0.0630  0.9890 -0.6560
   22MOL   H58325825   6.336   0.106   0.393 -1.7275 -0.7472 -0.0975
   22MOL   H58425826   6.373   7.668   0.154 -1.3369 -0.9680  0.3430
   22MOL   H58525827   6.405   7.638   0.311  0.1173 -1.1496 -1.9834
   22MOL   H58625828   5.928   7.697   0.298  0.5004 -0.1798  0.4284
   22MOL   H58725829   6.001   7.571   0.377 -0.6563  1.6980  0.6384
   22MOL   H58825830   5.952   7.407   0.206  1.3265  1.5133  2.2932
   22MOL   H58925831   5.884   7.519   0.091 -0.9881 -0.4135 -0.8376
   22MOL   H59025832   5.699   7.548   0.252 -0.3016 -0.4967 -0.3755
   22MOL   H59125833   5.777   7.432   0.373  1.3011 -0.0663 -0.7230
   22MOL   H59225834   5.747   7.254   0.183 -1.5331 -1.1807 -0.3973
   22MOL   H59325835   5.671   7.395   0.099  1.0899 -0.3602 -0.7357
   22MOL   H59425836   5.575   7.307   0.380 -0.2197 -1.5464 -0.3943
   22MOL   H59525837   5.517   7.425   0.261  3.2325  0.8911 -1.7650
   22MOL   H59625838   5.472   7.231   0.099  2.7823 -0.4866  0.0515
   22MOL   H59725839   5.526   7.118   0.209  0.2565 -0.5492 -1.4151
   22MOL   H59825840   5.298   7.302   0.276 -0.9824 -0.0451  0.2897
   22MOL   H59925841   5.364   7.180   0.378  3.1983 -0.7447 -0.8411
   22MOL   H60025842   5.190   7.146   0.123  0.6704  0.3537 -0.2718
   22MOL   H60125843   5.288   7.008   0.174 -0.2162  0.5119 -0.0276
   22MOL   O60225844   5.060   7.176   0.353  0.4885 -0.0677  0.3402
   22MOL   C60325845   4.951   7.160   0.442 -0.3116  0.0707  0.4025
   22MOL   C60425846   4.821   7.207   0.377  0.0848  0.4445 -0.3371
   22MOL   C60525847   4.816   7.364   0.371  0.4370  0.4948 -0.8199
   22MOL   C60625848   4.704   7.428   0.284 -0.0949 -0.8630 -0.3346
   22MOL   C60725849   4.717   7.584   0.283 -0.2176 -0.6376  0.1034
   22MOL   C60825850   4.604   7.661   0.210  0.8337 -0.5339 -0.4402
   22MOL   C60925851   4.607   7.629   0.059 -0.1128  0.3685 -0.7721
   22MOL   C61025852   4.509   7.715   7.748  0.0312 -0.4540 -0.3006
   22MOL   C61125853   4.556   0.101   7.728  0.0095  0.6740  0.9019
   22MOL   C61225854   4.494   0.182   7.610 -0.5358  1.3352 -0.0540
   22MOL   O61325855   4.537   0.122   7.486  0.1842  0.2115 -0.4338
   22MOL   C61425856   4.659   0.149   7.431  0.3754  0.1366  0.0570
   22MOL   O61525857   4.749   0.215   7.480 -0.1156 -0.0515  0.3818
   22MOL   C61625858   4.668   0.087   7.293  1.0482 -0.1528  0.3113
   22MOL   C61725859   4.754   0.172   7.207  0.2866  0.4075  0.3036
   22MOL   C61825860   4.786   0.101   7.069 -0.2697  0.4347 -0.1910
   22MOL   C61925861   4.889   0.165   6.982  0.1904  0.4807  0.3435
   22MOL   C62025862   4.959   0.072   6.885  0.6147 -0.1156 -0.2519
   22MOL   C62125863   5.056   0.151   6.791 -0.3102  0.3670 -0.1738
   22MOL   C62225864   5.143   0.052   6.713  0.6803 -0.1090 -0.1739
   22MOL   C62325865   5.256   0.132   6.634 -0.0319  0.2031  0.4554
   22MOL   C62425866   5.352   0.043   6.563 -0.0976  0.1129  0.0621
   22MOL   O62525867   5.344   7.674   6.571 -0.1376 -0.3419  0.2732
   22MOL   H62625868   4.950   7.060   0.483  0.7474  0.5254  1.5538
   22MOL   H62725869   4.972   7.215   0.534 -2.4002  1.4621  0.0958
   22MOL   H62825870   4.792   7.153   0.287 -0.3534 -1.6879  1.0523
   22MOL   H62925871   4.750   7.186   0.457  1.1929  0.7664  0.7490
   22MOL   H63025872   4.828   7.406   0.471  2.9916  0.7728 -1.2203
   22MOL   H63125873   4.906   7.396   0.319 -0.3806 -0.3057 -2.7635
   22MOL   H63225874   4.708   7.390   0.182  1.5801 -0.8736 -0.2879
   22MOL   H63325875   4.607   7.393   0.318 -0.1657 -1.4576 -1.1269
   22MOL   H63425876   4.816   7.600   0.239 -0.6803  1.9915 -0.0310
   22MOL   H63525877   4.724   7.623   0.384 -2.8418 -0.2343  0.1714
   22MOL   H63625878   4.614   0.009   0.236  1.3225 -1.0663  1.5984
   22MOL   H63725879   4.508   7.636   0.254  0.4955 -1.2872 -1.5564
   22MOL   H63825880   4.575   7.527   0.040  0.8609  0.1124 -1.0357
   22MOL   H63925881   4.702   7.651   0.011  1.8640  0.7976  3.0986
   22MOL   H64025882   4.410   7.718   0.038 -0.2034  1.2161 -0.8775
   22MOL   H64125883   4.479   7.672   7.652 -3.2523  1.1016 -0.0332
   22MOL   H64225884   4.527   0.157   0.060 -0.7917  0.7246  0.6065
   22MOL   H64325885   4.664   0.110   7.715 -0.1219  0.9010 -0.0765
   22MOL   H64425886   4.385   0.180   7.618 -0.4600  1.6755  1.1970
   22MOL   H64525887   4.520   0.287   7.623  0.8994  1.3303 -2.5606
   22MOL   H64625888   4.564   0.072   7.267  0.8181 -0.5661  1.4315
   22MOL   H64725889   4.712   7.744   7.309  1.5733 -0.1407 -0.9831
   22MOL   H64825890   4.855   0.185   7.247  0.0123 -1.0702  1.5216
   22MOL   H64925891   4.706   0.266   7.179 -0.7865 -0.1533  0.2253
   22MOL   H65025892   4.693   0.063   7.028  0.1555 -3.1799  1.9522
   22MOL   H65125893   4.835   0.010   7.104 -1.3816 -0.4746 -0.9429
   22MOL   H65225894   4.965   0.220   7.036 -1.5175  0.9250  2.3801
   22MOL   H65325895   4.834   0.241   6.926 -0.1361  0.2715  0.3792
   22MOL   H65425896   5.011   7.753   6.945 -1.9369  1.0623  3.6602
   22MOL   H65525897   4.879   0.020   6.833  2.4535 -0.6227 -2.6444
   22MOL   H65625898   5.001   0.225   6.733 -3.3444 -2.0396 -0.4750
   22MOL   H65725899   5.125   0.212   6.849  0.9354  0.2937 -1.5261
   22MOL   H65825900   5.082   7.748   6.647 -2.8405  1.8245  1.1780
   22MOL   H65925901   5.185   7.744   6.790  0.1583  0.2754  0.4386
   22MOL   H66025902   5.221   0.198   6.555  0.2967  0.4026  0.4772
   22MOL   H66125903   5.324   0.196   6.689  1.4497 -0.3502 -0.7024
   22MOL   O66225904   5.443   0.111   6.496  0.3724 -0.0084 -1.0165
   22MOL   C66325905   5.550   0.047   6.424  0.1894 -0.4791 -0.6898
   22MOL   C66425906   5.684   0.121   6.440 -0.2198  0.1337  0.3448
   22MOL   C66525907   5.741   0.125   6.579 -0.0168 -0.1387  0.2655
   22MOL   C66625908   5.849   0.240   6.594 -0.2438 -0.7210 -0.5913
   22MOL   C66725909   5.989   0.190   6.555  0.4036 -0.3654  0.3617
   22MOL   C66825910   6.110   0.285   6.582  0.4893 -0.2887 -0.1190
   22MOL   C66925911   6.133   0.404   6.496 -0.3746 -0.4219  0.4167
   22MOL   C67025912   6.265   0.470   6.530 -0.0767  0.2358  0.0966
   22MOL   C67125913   6.287   0.606   6.462  0.1199  0.3206  0.1716
   22MOL   C67225914   6.400   0.693   6.521 -0.4128  0.1710 -0.2211
   22MOL   O67325915   6.524   0.623   6.490 -0.0968  0.1890  0.2793
   22MOL   C67425916   6.645   0.666   6.532  0.1655  0.3217  0.2759
   22MOL   O67525917   6.679   0.769   6.587 -0.3210  0.1949 -0.2042
   22MOL   C67625918   6.759   0.562   6.508  0.1462 -0.3800 -0.4341
   22MOL   C67725919   6.881   0.624   6.443  0.7576 -0.2428  0.0600
   22MOL   C67825920   7.005   0.535   6.438  0.7637 -0.3825  0.8498
   22MOL   C67925921   7.121   0.624   6.385  0.0106 -0.1367 -0.6541
   22MOL   C68025922   7.261   0.551   6.387  0.0475 -0.0967  0.4961
   22MOL   C68125923   7.367   0.628   6.311 -0.4725 -0.1511  0.3565
   22MOL   C68225924   7.489   0.537   6.271  0.3537 -1.1024 -0.1068
   22MOL   C68325925   7.561   0.460   6.384 -0.0347  1.1792  0.2694
   22MOL   C68425926   7.604   0.542   6.505  0.6005  0.5324 -0.4442
   22MOL   O68525927   7.573   0.499   6.616 -0.0478  0.0301  0.2517
   22MOL   H68625928   5.577   7.705   6.460 -0.9638 -0.9142 -0.9784
   22MOL   H68725929   5.505   0.036   6.325 -1.8974  2.0380 -0.0789
   22MOL   H68825930   5.767   0.098   6.373 -0.9425  0.5583 -0.6933
   22MOL   H68925931   5.653   0.222   6.413  0.5293  0.6419  1.3086
   22MOL   H69025932   5.663   0.129   6.655 -1.7462  2.4126 -1.5453
   22MOL   H69125933   5.788   0.027   6.587  1.2470  0.6048  2.1088
   22MOL   H69225934   5.828   0.320   6.524 -2.1661 -0.1808  0.5715
   22MOL   H69325935   5.848   0.290   6.691  1.8718 -1.4752 -0.1422
   22MOL   H69425936   6.001   0.144   6.457  3.0842  1.0400 -0.0251
   22MOL   H69525937   6.008   0.111   6.627 -0.5227 -0.9053  0.0201
   22MOL   H69625938   6.200   0.224   6.569 -0.1712 -1.1605 -0.7268
   22MOL   H69725939   6.104   0.318   6.685 -1.9662 -0.0048 -0.3091
   22MOL   H69825940   6.051   0.475   6.507  0.2486  0.0248  2.4199
   22MOL   H69925941   6.125   0.380   6.390  0.0562  0.8884  0.0824
   22MOL   H70025942   6.346   0.402   6.502 -0.3583  0.6365 -1.7605
   22MOL   H70125943   6.272   0.486   6.637 -1.1353 -1.0376  0.3801
   22MOL   H70225944   6.294   0.597   6.353 -1.0653  2.4526 -0.1050
   22MOL   H70325945   6.194   0.661   6.473 -0.8492 -0.6471 -2.6677
   22MOL   H70425946   6.396   0.791   6.474  0.8701  0.0954 -0.5157
   22MOL   H70525947   6.383   0.720   6.626 -0.3052 -3.6224  0.8673
   22MOL   H70625948   6.733   0.463   6.471  0.5959 -1.2912  1.6090
   22MOL   H70725949   6.789   0.535   6.610  3.9731 -0.8293 -1.6166
   22MOL   H70825950   6.896   0.719   6.494  0.0682 -0.5918  0.9502
   22MOL   H70925951   6.858   0.646   6.339 -0.4923 -0.5113  0.2709
   22MOL   H71025952   6.996   0.441   6.383  0.7013 -0.5512  1.1465
   22MOL   H71125953   7.030   0.502   6.538  1.7826  2.1577  1.4826
   22MOL   H71225954   7.136   0.709   6.451 -0.4391  0.9053 -1.8754
   22MOL   H71325955   7.086   0.666   6.291  2.1077 -0.1490 -1.4570
   22MOL   H71425956   7.296   0.525   6.487  2.3086  0.1824 -0.2018
   22MOL   H71525957   7.243   0.450   6.352 -0.2767 -0.3513  1.3951
   22MOL   H71625958   7.320   0.677   6.225  1.1122 -0.7014 -0.8606
   22MOL   H71725959   7.402   0.718   6.361 -1.0598  1.2119 -1.6298
   22MOL   H71825960   7.564   0.602   6.225  1.7617  0.1720  3.7906
   22MOL   H71925961   7.464   0.464   6.194  2.7441 -2.8016  0.6819
   22MOL   H72025962   7.516   0.365   6.413  1.5783  0.0818 -0.7461
   22MOL   H72125963   7.652   0.422   6.337 -1.4543 -1.0002 -0.7835
   22MOL   O72225964   7.667   0.657   6.478  0.5412  0.3668 -0.1763
   22MOL   C72325965   7.676   0.755   6.583  0.7578 -0.6437  0.5296
   22MOL   C72425966   7.545   0.845   6.575 -0.7248 -0.2728 -0.6674
   22MOL   C72525967   7.424   0.806   6.665  0.3530 -0.0928  0.5246
   22MOL   C72625968   7.318   0.904   6.682  0.6322 -0.6978  0.7548
   22MOL   C72725969   7.193   0.852   6.758  0.3028 -0.0474  0.3666
   22MOL   C72825970   7.100   0.962   6.810  0.5237 -0.1422  0.9305
   22MOL   C72925971   6.966   0.909   6.876 -0.6937  0.2635 -0.4532
   22MOL   C73025972   6.863   1.020   6.905  0.2676  0.0946 -0.2001
   22MOL   C73125973   6.730   0.968   6.957  0.6596 -0.1942 -0.2001
   22MOL   C73225974   6.604   1.053   6.945 -0.4905 -0.4871 -0.2623
   22MOL   O73325975   6.602   1.159   7.043 -0.5478 -0.3865  0.2586
   22MOL   C73425976   6.627   1.287   7.019  0.1738 -0.4373  0.2547
   22MOL   O73525977   6.667   1.324   6.904 -0.1754 -0.3417 -0.0275
   22MOL   C73625978   6.600   1.386   7.125  0.0915  0.1122  0.4638
   22MOL   C73725979   6.686   1.355   7.252  0.4821 -0.1507 -0.1598
   22MOL   C73825980   6.838   1.354   7.225 -0.6639  0.2611 -0.6160
   22MOL   C73925981   6.903   1.494   7.221 -0.4908 -0.0558 -0.3770
   22MOL   C74025982   7.046   1.497   7.159  0.0764 -0.2728 -0.5164
   22MOL   C74125983   7.101   1.643   7.166  0.4192  0.4008 -0.8268
   22MOL   C74225984   7.253   1.628   7.127  0.6392 -0.2788  0.6760
   22MOL   C74325985   7.322   1.762   7.130 -0.0793  0.0727  0.1364
   22MOL   C74425986   7.474   1.747   7.105 -0.3442  0.6085  0.1505
   22MOL   O74525987   7.532   1.820   7.025 -0.4155 -0.4850  0.1282
   22MOL   H74625988   7.690   0.720   6.685 -1.4081  1.5991  1.6508
   22MOL   H74725989   0.008   0.817   6.570 -0.2875  0.2453 -2.6708
   22MOL   H74825990   7.576   0.944   6.608 -1.7819  0.3189 -1.4202
   22MOL   H74925991   7.518   0.871   6.472 -0.3251 -1.2167 -1.0151
   22MOL   H75025992   7.385   0.713   6.623  3.5282 -0.9377 -0.7538
   22MOL   H75125993   7.466   0.778   6.762 -0.1134  0.8529  1.0027
   22MOL   H75225994   7.367   0.989   6.731  0.2797  0.3674 -0.7249
   22MOL   H75325995   7.294   0.935   6.580  0.6784  0.8838  1.2101
   22MOL   H75425996   7.224   0.808   6.853 -0.8842  0.0310  0.7932
   22MOL   H75525997   7.145   0.779   6.694 -2.0217  1.2516  0.5674
   22MOL   H75625998   7.081   1.019   6.719  0.4319 -1.3083  0.2105
   22MOL   H75725999   7.159   1.029   6.874  0.2225  0.2422  0.8108
   22MOL   H75826000   6.989   0.853   6.966 -1.3884 -0.3577 -0.6554
   22MOL   H75926001   6.922   0.837   6.807  0.8566 -0.1830 -0.9893
   22MOL   H76026002   6.854   1.082   6.816  0.5758 -0.0832 -0.3568
   22MOL   H76126003   6.897   1.098   6.973  1.2777 -0.2671 -0.2866
   22MOL   H76226004   6.711   0.876   6.902 -3.8547  0.6518 -0.2275
   22MOL   H76326005   6.734   0.941   7.063 -0.1650 -1.2067 -0.4174
   22MOL   H76426006   6.598   1.084   6.840 -3.1073 -3.2288 -0.9879
   22MOL   H76526007   6.515   0.990   6.945 -0.1242 -1.0502 -2.9585
   22MOL   H76626008   6.495   1.379   7.153  0.1546  0.3938  0.7635
   22MOL   H76726009   6.629   1.485   7.091 -0.6279 -0.9947 -3.7698
   22MOL   H76826010   6.668   1.259   7.300  1.3410 -0.2419  0.0004
   22MOL   H76926011   6.665   1.416   7.340 -1.4947 -0.2701 -0.5363
   22MOL   H77026012   6.858   1.295   7.136  0.0999 -0.1388 -0.1906
   22MOL   H77126013   6.890   1.314   7.312 -0.8793 -0.9953 -1.0641
   22MOL   H77226014   6.902   1.541   7.319 -1.1395  3.5538 -1.9944
   22MOL   H77326015   6.845   1.557   7.153 -2.2655 -0.5803  0.6294
   22MOL   H77426016   7.112   1.430   7.215  1.1856 -0.5582 -2.1322
   22MOL   H77526017   7.039   1.452   7.060 -1.8197 -1.0842 -0.0332
   22MOL   H77626018   7.043   1.717   7.110 -0.2217 -0.1073 -0.8412
   22MOL   H77726019   7.090   1.681   7.268  0.7713  0.1525 -0.6950
   22MOL   H77826020   7.256   1.578   7.030  1.2375  0.6052  0.2371
   22MOL   H77926021   7.309   1.562   7.192  0.0186 -1.1224  0.3655
   22MOL   H78026022   7.291   1.839   7.060 -0.8690 -0.0480  0.3520
   22MOL   H78126023   7.307   1.806   7.229  0.0882  1.6867 -0.5415
   22MOL   O78226024   7.540   1.660   7.192 -0.0471  0.4069  0.3944
   22MOL   C78326025   7.676   1.639   7.178  0.5250  0.4642 -0.3551
   22MOL   C78426026   7.749   1.699   7.300 -0.0270 -0.1873  0.1550
   22MOL   C78526027   0.141   1.659   7.288 -0.3564  1.2080  0.4707
   22MOL   C78626028   0.240   1.732   7.380  0.3247  0.0942 -0.0456
   22MOL   C78726029   0.387   1.723   7.354  0.3167  0.5540 -0.4692
   22MOL   C78826030   0.466   1.840   7.404  0.4208  0.2489  0.0412
   22MOL   C78926031   0.621   1.828   7.403  0.9951 -0.2300 -0.5959
   22MOL   C79026032   0.682   1.952   7.454 -0.3794 -1.1701  0.1214
   22MOL   C79126033   0.806   1.929   7.552  0.1537  0.3963  0.1181
   22MOL   C79226034   0.771   1.848   7.681 -0.4456  0.2913 -0.4226
   22MOL   O79326035   0.889   1.850   0.015  0.1435  0.2559 -0.3449
   22MOL   C79426036   0.888   1.921   0.133 -0.5278  0.0198 -0.2437
   22MOL   O79526037   0.786   1.966   0.185 -0.3069  0.2883  0.2504
   22MOL   C79626038   1.023   1.964   0.193  0.0573 -0.9602  0.3314
   22MOL   C79726039   1.101   1.842   0.254  0.1933 -0.0914 -0.6138
   22MOL   C79826040   1.163   1.755   0.142 -0.0066  0.1014  0.2637
   22MOL   C79926041   1.258   1.653   0.204  0.1107 -0.0161  0.4004
   22MOL   C80026042   1.332   1.583   0.091  0.1879 -0.5909  0.0685
   22MOL   C80126043   1.438   1.486   0.141  1.4163  0.1244 -0.1018
   22MOL   C80226044   1.444   1.352   0.070  0.1561  0.4011 -0.2576
   22MOL   C80326045   1.549   1.256   0.130  0.3960 -0.2946  0.3918
   22MOL   C80426046   1.695   1.297   0.105  0.8051  0.0545  0.0156
   22MOL   O80526047   1.724   1.383   0.025 -0.1322  0.7492 -0.1226
   22MOL   H80626048   7.699   1.535   7.159  0.2021  0.2479  0.3926
   22MOL   H80726049   7.712   1.680   7.084 -0.4927 -2.7535 -2.1972
   22MOL   H80826050   7.743   1.808   7.308  0.3714 -0.1815  0.3970
   22MOL   H80926051   7.701   1.673   7.394 -2.5092  1.5765 -0.5642
   22MOL   H81026052   0.140   1.552   7.312 -1.2844  0.7337 -1.5478
   22MOL   H81126053   0.171   1.674   7.184  0.8962 -2.4991  0.2149
   22MOL   H81226054   0.222   1.838   7.369 -0.0118 -0.1244 -1.6586
   22MOL   H81326055   0.224   1.710   7.486  0.3290  0.2455 -0.0135
   22MOL   H81426056   0.392   1.717   7.246 -0.2807  2.2943 -0.6054
   22MOL   H81526057   0.433   1.633   7.396  0.0245  1.4179  1.7938
   22MOL   H81626058   0.427   1.853   7.505 -1.2655  2.2312 -0.8291
   22MOL   H81726059   0.442   1.931   7.350 -0.3984 -0.3961 -0.6874
   22MOL   H81826060   0.667   1.808   7.306  2.7188  0.5588  0.0461
   22MOL   H81926061   0.645   1.745   7.469  1.7841  0.5982  0.1651
   22MOL   H82026062   0.610   2.017   7.505  0.4656 -0.2945  0.2149
   22MOL   H82126063   0.705   2.019   7.371 -0.1967 -2.1180 -0.6025
   22MOL   H82226064   0.882   1.871   7.499  1.1452  0.7704  1.1154
   22MOL   H82326065   0.848   2.027   7.572  0.5900  0.2623 -0.1375
   22MOL   H82426066   0.676   1.888   7.716  0.0708  0.1940  1.1324
   22MOL   H82526067   0.771   1.742   7.654  1.8537  0.2976 -0.5548
   22MOL   H82626068   1.015   2.042   0.269  4.5706 -0.5634  0.5778
   22MOL   H82726069   1.073   2.013   0.109 -2.9515 -0.6691 -1.3451
   22MOL   H82826070   1.028   1.771   0.293  0.1940  0.6912  0.8373
   22MOL   H82926071   1.178   1.877   0.322  1.5169 -2.4679 -0.8097
   22MOL   H83026072   1.215   1.825   0.077 -0.7305  0.7565  0.3739
   22MOL   H83126073   1.092   1.709   0.073  1.9796 -2.3753 -0.1665
   22MOL   H83226074   1.205   1.577   0.261  0.0022  0.1929  0.5810
   22MOL   H83326075   1.319   1.717   0.268 -0.0360  1.3591 -0.7909
   22MOL   H83426076   1.281   1.538   0.006 -0.5294 -1.6146  1.0383
   22MOL   H83526077   1.395   1.659   0.043  1.8252 -2.3030 -0.5972
   22MOL   H83626078   1.534   1.537   0.139  1.7048 -0.3766  0.5835
   22MOL   H83726079   1.424   1.463   0.247  1.2247  2.4996  0.4116
   22MOL   H83826080   1.466   1.373   7.722 -0.4064 -0.3667 -0.5360
   22MOL   H83926081   1.348   1.300   0.075  0.4157  0.0955  2.4070
   22MOL   H84026082   1.526   1.265   0.236  0.2762  0.0886  0.3355
   22MOL   H84126083   1.533   1.154   0.095  1.9110 -0.0311 -1.1441
   22MOL   O84226084   1.778   1.227   0.175  0.2161  0.5149  1.5903
   22MOL   C84326085   1.919   1.236   0.160  0.3545 -0.3162  0.1598
   22MOL   C84426086   1.986   1.107   0.118 -0.4035  0.0023  0.6107
   22MOL   C84526087   1.966   1.066   7.731  0.6774 -0.3669 -0.7486
   22MOL   C84626088   1.853   0.960   7.726  0.0918 -0.3871 -1.0875
   22MOL   C84726089   1.815   0.919   7.583 -0.6655  0.3155 -0.9500
   22MOL   C84826090   1.730   1.016   7.506 -0.0161 -0.3262  0.0354
   22MOL   C84926091   1.672   0.975   7.369  0.4065  0.3918  0.1694
   22MOL   C85026092   1.563   1.072   7.328  0.7590 -0.4752 -0.1524
   22MOL   C85126093   1.488   1.025   7.198  0.2897 -0.4259  0.3261
   22MOL   C85226094   1.403   1.133   7.129  0.1288  0.3447  0.8910
   22MOL   O85326095   1.308   1.182   7.221  0.1423  0.4176 -0.5736
   22MOL   C85426096   1.191   1.113   7.225  0.7835 -0.6703 -0.6361
   22MOL   O85526097   1.154   1.024   7.151  0.2755 -0.1721  0.0353
   22MOL   C85626098   1.098   1.151   7.341  0.0503  0.5760  0.0790
   22MOL   C85726099   1.165   1.147   7.481 -0.5070  0.2452  0.1455
   22MOL   C85826100   1.196   1.013   7.548 -0.0209  0.2013  0.4714
   22MOL   C85926101   1.255   1.012   7.683  0.0957  0.1915 -0.1382
   22MOL   C86026102   1.256   0.872   7.746  0.3783 -0.0216 -0.1393
   22MOL   C86126103   1.315   0.870   0.132 -0.1799 -0.0001 -1.0727
   22MOL   C86226104   1.229   0.940   0.238 -0.2984 -0.0725 -0.7239
   22MOL   C86326105   1.289   0.931   0.388  0.5435 -0.4010 -0.1630
   22MOL   C86426106   1.184   0.935   0.497  0.0685 -0.2061 -0.3775
   22MOL   O86526107   1.070   0.979   0.481 -0.0414 -0.0747  0.4130
   22MOL   H86626108   1.942   1.319   0.093  0.6701 -0.4026  0.1583
   22MOL   H86726109   1.962   1.262   0.256 -0.2390 -1.0580  0.6325
   22MOL   H86826110   2.094   1.105   0.133 -0.2433 -0.2843 -0.5486
   22MOL   H86926111   1.951   1.028   0.185  1.2129 -2.7280 -1.6335
   22MOL   H87026112   1.946   1.158   7.676  0.5543  0.0547  0.0075
   22MOL   H87126113   2.062   1.019   7.709 -0.1410 -2.1959 -0.4986
   22MOL   H87226114   1.888   0.870   0.020  1.2676  0.8549  0.3483
   22MOL   H87326115   1.768   0.998   0.025  0.6948 -1.7907  0.8563
   22MOL   H87426116   1.773   0.818   7.579 -1.2860  0.3860  2.4245
   22MOL   H87526117   1.905   0.919   7.521  1.0818  0.9974  1.5183
   22MOL   H87626118   1.784   1.108   7.484  0.0615 -0.2148  0.6886
   22MOL   H87726119   1.650   1.047   7.573 -1.2202 -2.8897 -0.1402
   22MOL   H87826120   1.636   0.873   7.383  2.0259  0.0877  2.3542
   22MOL   H87926121   1.756   0.975   7.300  1.4500 -1.6185  1.3913
   22MOL   H88026122   1.597   1.175   7.313 -1.9774  0.2646 -1.6039
   22MOL   H88126123   1.493   1.075   7.411 -1.4281  0.1978 -1.9896
   22MOL   H88226124   1.553   0.996   7.116 -0.5535  1.3956 -1.0240
   22MOL   H88326125   1.416   0.947   7.224  1.7306 -1.6026  0.8600
   22MOL   H88426126   1.470   1.215   7.104  0.0087  0.4759  1.0036
   22MOL   H88526127   1.359   1.091   7.038 -0.6308  1.3435  0.7924
   22MOL   H88626128   1.020   1.076   7.338  0.8214 -0.2189 -0.4809
   22MOL   H88726129   1.058   1.251   7.324 -2.2987 -0.2294  0.6914
   22MOL   H88826130   1.103   1.192   7.559 -0.5376  0.1931  0.1517
   22MOL   H88926131   1.253   1.212   7.485  0.3188 -0.9191  1.6440
   22MOL   H89026132   1.266   0.965   7.480  0.7135 -1.3843  2.2958
   22MOL   H89126133   1.103   0.957   7.548  0.0121  0.1370 -0.5335
   22MOL   H89226134   1.193   1.079   7.742  0.5199  1.0758 -0.6893
   22MOL   H89326135   1.359   1.041   7.675 -0.1144  0.7308 -0.9218
   22MOL   H89426136   1.158   0.824   7.743 -0.3524  1.4432 -0.2429
   22MOL   H89526137   1.317   0.807   7.683 -1.4617 -1.8753 -0.0590
   22MOL   H89626138   1.343   0.776   0.178 -0.1838  0.3350 -0.3801
   22MOL   H89726139   1.409   0.925   0.121  0.2902 -0.4793  0.4740
   22MOL   H89826140   1.128   0.900   0.238 -0.9156  1.4653 -1.3418
   22MOL   H89926141   1.227   1.048   0.225  0.6558 -0.1089 -1.2958
   22MOL   H90026142   1.350   0.841   0.387 -0.2774 -0.9649 -1.9154
   22MOL   H90126143   1.357   1.017   0.394  0.0770  0.1306 -2.1129
   22MOL   O90226144   1.233   0.885   0.614 -0.8748 -0.3174 -0.1625
   22MOL   C90326145   1.149   0.862   0.718 -0.0550  0.5085 -0.9514
   22MOL   C90426146   1.231   0.870   0.851  0.3171  0.4445 -0.0922
   22MOL   C90526147   1.144   0.846   0.977  0.3068 -0.0795  0.8464
   22MOL   C90626148   1.210   0.869   1.114  0.4102 -0.7537  0.3928
   22MOL   C90726149   1.346   0.798   1.131 -0.0452  0.7619 -0.3271
   22MOL   C90826150   1.391   0.750   1.270  0.2176  0.0106 -0.7170
   22MOL   C90926151   1.527   0.683   1.276  0.0837 -0.1377 -0.3157
   22MOL   C91026152   1.562   0.599   1.397  0.0641 -0.4641 -0.1000
   22MOL   C91126153   1.609   0.679   1.518  0.2586 -0.3919 -0.2246
   22MOL   C91226154   1.624   0.606   1.651  0.2445 -0.2490  0.5855
   22MOL   O91326155   1.655   0.693   1.765  0.5429 -0.6075 -0.4784
   22MOL   C91426156   1.776   0.681   1.825  0.5472  0.0038  0.3431
   22MOL   O91526157   1.875   0.627   1.774 -0.5507 -0.1767  0.3871
   22MOL   C91626158   1.778   0.750   1.960 -0.6637 -0.9205 -0.8836
   22MOL   C91726159   1.851   0.661   2.063  0.3106 -0.0897 -0.0095
   22MOL   C91826160   1.767   0.540   2.119  0.1671 -0.6115 -0.7459
   22MOL   C91926161   1.857   0.450   2.206 -0.2443  0.5707 -0.1211
   22MOL   C92026162   1.778   0.335   2.274  0.5240 -0.7032  0.1359
   22MOL   C92126163   1.861   0.250   2.372  0.0272  0.3396  0.4322
   22MOL   C92226164   1.798   0.116   2.404  0.3658 -0.5311 -0.2954
   22MOL   C92326165   1.892   0.016   2.476  0.6652 -0.1230 -0.6475
   22MOL   C92426166   1.924   7.656   2.386 -0.3419 -0.2853  0.6374
   22MOL   O92526167   1.843   7.608   2.303  0.1657  0.4747 -0.6442
   22MOL   H92626168   1.067   0.933   0.726  1.2984  1.9566  0.4952
   22MOL   H92726169   1.101   0.764   0.722 -3.3986  2.1486  1.7098
   22MOL   H92826170   1.306   0.791   0.850 -0.6881 -0.5263 -0.6661
   22MOL   H92926171   1.274   0.969   0.865  0.9824  0.6355 -3.1017
   22MOL   H93026172   1.050   0.901   0.968 -1.4027 -3.2902 -1.9369
   22MOL   H93126173   1.114   0.742   0.975  0.2579 -0.1715  3.9154
   22MOL   H93226174   1.235   0.974   1.130  2.0870 -1.3291  1.8335
   22MOL   H93326175   1.142   0.838   1.193  1.3431 -2.2255  0.6449
   22MOL   H93426176   1.426   0.857   1.088  1.1163 -0.2563  0.3901
   22MOL   H93526177   1.343   0.709   1.067 -0.0225 -0.3879  1.2271
   22MOL   H93626178   1.308   0.688   1.303  1.9780 -1.9681  0.1410
   22MOL   H93726179   1.401   0.834   1.338 -0.6837 -1.6180  1.4965
   22MOL   H93826180   1.609   0.748   1.249  0.7716 -1.6055 -1.8180
   22MOL   H93926181   1.536   0.615   1.191 -0.6635  0.9352 -1.2639
   22MOL   H94026182   1.639   0.523   1.387  0.9981  0.8456 -3.4926
   22MOL   H94126183   1.479   0.542   1.439 -0.0490 -0.5754 -0.4821
   22MOL   H94226184   1.706   0.724   1.499 -0.6400  1.3803 -0.6869
   22MOL   H94326185   1.536   0.759   1.526 -0.8440 -1.3485 -0.5619
   22MOL   H94426186   1.525   0.570   1.680  0.3332 -0.5574  0.5117
   22MOL   H94526187   1.691   0.519   1.655  0.7949  0.1772  0.6544
   22MOL   H94626188   1.675   0.765   1.993  0.0771 -0.4136  1.3126
   22MOL   H94726189   1.823   0.849   1.963 -1.7371 -0.4904  2.8090
   22MOL   H94826190   1.894   0.717   2.147 -1.3714  1.2914 -0.0416
   22MOL   H94926191   1.936   0.628   2.004  0.1355  0.2949 -0.4841
   22MOL   H95026192   1.723   0.481   2.038  1.0653 -1.4357 -0.6406
   22MOL   H95126193   1.688   0.573   2.186 -0.5787  1.7932 -2.7133
   22MOL   H95226194   1.896   0.506   2.292 -1.8925 -0.1655  1.1280
   22MOL   H95326195   1.938   0.416   2.142 -2.1144 -1.1465 -1.6214
   22MOL   H95426196   1.688   0.369   2.325  1.2617 -0.3187  1.1832
   22MOL   H95526197   1.742   0.273   2.192 -1.2765  3.4403 -2.4241
   22MOL   H95626198   1.951   0.217   2.320 -0.2224 -0.5869  0.5758
   22MOL   H95726199   1.880   0.300   2.467 -2.2236 -1.7926  2.0818
   22MOL   H95826200   1.753   0.075   2.313 -0.9864 -0.7930  0.4764
   22MOL   H95926201   1.720   0.137   2.478  1.3842  0.3942  0.5176
   22MOL   H96026202   1.986   0.066   2.497  0.1514  0.3915  0.5109
   22MOL   H96126203   1.841   7.727   2.561  0.5460  0.9506 -0.1306
   22MOL   O96226204   2.036   7.606   2.411 -0.0171 -0.7062  0.6258
   22MOL   C96326205   2.090   7.496   2.347  0.0494  0.0986 -0.2394
   22MOL   C96426206   2.110   7.390   2.455 -0.3392 -0.1766 -0.8902
   22MOL   C96526207   2.185   7.266   2.410  1.2984 -0.4543  0.1185
   22MOL   C96626208   2.200   7.164   2.517 -0.3618 -0.0560  0.2065
   22MOL   C96726209   2.263   7.031   2.466  0.2988 -0.3675 -0.8892
   22MOL   C96826210   2.228   6.914   2.567  0.2562 -0.0673  1.0601
   22MOL   C96926211   2.297   6.783   2.538 -0.1626  0.3386 -0.0069
   22MOL   C97026212   2.260   6.670   2.638  0.2548  0.6098  0.0132
   22MOL   C97126213   2.112   6.617   2.629 -0.0268 -0.4409 -0.3044
   22MOL   C97226214   2.066   6.586   2.481 -0.3900 -0.4975 -1.2055
   22MOL   O97326215   1.939   6.532   2.497  0.6061  0.6881  0.1159
   22MOL   C97426216   1.912   6.409   2.447 -0.4159 -0.4010  0.8930
   22MOL   O97526217   1.990   6.337   2.381 -0.0866  0.1437 -0.3078
   22MOL   C97626218   1.763   6.377   2.462  0.2241  0.2522  0.3357
   22MOL   C97726219   1.705   6.331   2.326 -0.3573 -0.1202 -0.0909
   22MOL   C97826220   1.550   6.329   2.322  0.6957  0.1166 -0.1210
   22MOL   C97926221   1.500   6.295   2.184  0.6162 -0.0076  0.7387
   22MOL   C98026222   1.487   6.418   2.094  0.1194  0.6867  0.0364
   22MOL   C98126223   1.436   6.382   1.947  0.9396 -0.0152 -0.0160
   22MOL   C98226224   1.444   6.487   1.835 -0.7066  0.0136 -0.4068
   22MOL   C98326225   1.406   6.421   1.706 -0.4412 -0.3880  0.6335
   22MOL   C98426226   1.448   6.502   1.582  0.5714 -0.7602  0.4273
   22MOL   O98526227   1.518   6.458   1.492  0.6855  0.8070  0.3672
   22MOL   H98626228   2.021   7.447   2.278 -1.6368  3.1791 -0.8216
   22MOL   H98726229   2.182   7.513   2.293 -0.1711  2.6210  0.1204
   22MOL   H98826230   2.166   7.440   2.535 -1.9776  2.3724 -1.2829
   22MOL   H98926231   2.014   7.352   2.488 -0.9587 -0.2625 -2.7425
   22MOL   H99026232   2.144   7.244   2.311 -0.9142  2.7675  0.2429
   22MOL   H99126233   2.285   7.298   2.380  1.5347 -0.3252  1.0327
   22MOL   H99226234   2.257   7.205   2.600 -2.6538  1.4118  1.1012
   22MOL   H99326235   2.103   7.137   2.558 -0.2897  0.2649  0.5799
   22MOL   H99426236   2.369   7.040   2.442  0.5232  1.4908  0.6433
   22MOL   H99526237   2.223   7.010   2.366 -1.1090  0.3916 -0.5041
   22MOL   H99626238   2.122   6.888   2.573  1.0116 -3.4787  1.0875
   22MOL   H99726239   2.257   6.946   2.667  3.1557 -1.7962  0.8479
   22MOL   H99826240   2.406   6.793   2.539 -0.2411  1.4178 -1.4344
   22MOL   H99926241   2.282   6.739   2.440  3.1444 -0.7401 -0.1074
   22MOL     H126242   2.297   6.709   2.733  1.5074  2.4242 -1.1922
   22MOL     H226243   2.324   6.583   2.622 -0.9921 -0.3918  0.3698
   22MOL     H326244   2.100   6.533   2.698 -1.8312  1.1593  1.4073
   22MOL     H426245   2.035   6.682   2.670 -1.3582 -1.8504 -0.5327
   22MOL     H526246   2.071   6.670   2.412 -1.9200  1.8304  1.4118
   22MOL     H626247   2.134   6.513   2.439  1.3022  0.2014  0.2742
   22MOL     H726248   1.719   6.454   2.525 -2.4204  1.6708 -3.0522
   22MOL     H826249   1.752   6.282   2.515  2.3740 -0.9266 -1.2225
   22MOL     H926250   1.746   6.234   2.297  0.4746 -0.2795  1.5647
   22MOL    H1026251   1.745   6.397   2.250 -1.9632  0.7499 -0.1890
   22MOL    H1126252   1.514   6.426   2.357  1.7787  0.6069 -0.3501
   22MOL    H1226253   1.498   6.260   2.388 -2.0350  0.4943 -1.7853
   22MOL    H1326254   1.402   6.250   2.196  0.1441  0.8894  0.3509
   22MOL    H1426255   1.561   6.219   2.135  0.2032 -0.3188  0.7016
   22MOL    H1526256   1.417   6.486   2.141  1.5604  2.0082  0.3132
   22MOL    H1626257   1.578   6.477   2.089 -0.0395  0.8554 -1.0552
   22MOL    H1726258   1.489   6.295   1.908 -0.3021 -0.5040 -0.6197
   22MOL    H1826259   1.340   6.332   1.941  0.4642  0.8301  0.4697
   22MOL    H1926260   1.545   6.528   1.830 -0.2957 -1.1657 -2.4671
   22MOL    H2026261   1.372   6.564   1.861 -1.7477 -0.7760 -0.8692
   22MOL    H2126262   1.455   6.323   1.703  0.0574 -0.2025  2.1706
   22MOL    H2226263   1.301   6.393   1.705 -0.8908  1.2705  1.2284
   22MOL    O2326264   1.422   6.632   1.588 -0.1747 -0.2280 -0.2266
   22MOL    C2426265   1.463   6.717   1.478  0.7577 -0.4780  0.6920
   22MOL    C2526266   1.616   6.759   1.486  0.0114  0.4877 -0.4299
   22MOL    C2626267   1.649   6.830   1.615  0.2465  0.1212 -0.7857
   22MOL    C2726268   1.804   6.857   1.617  0.0575 -0.3557 -0.2069
   22MOL    C2826269   1.848   6.897   1.761 -0.4626  0.6421  0.5259
   22MOL    C2926270   1.989   6.963   1.764  0.9719  0.0749  0.5381
   22MOL    C3026271   2.027   7.003   1.907  0.2433 -0.5644 -0.6154
   22MOL    C3126272   2.166   7.059   1.920 -0.5864 -0.1937 -0.2439
   22MOL    C3226273   2.218   7.085   2.063  0.4245 -0.3513  0.2223
   22MOL    C3326274   2.364   7.138   2.055  0.8021  0.2007  1.1202
   22MOL    O3426275   2.370   7.249   1.968  0.0279  0.3811 -0.1608
   22MOL    C3526276   2.328   7.373   2.005 -0.0136  0.3407 -0.3411
   22MOL    O3626277   2.268   7.396   2.108  0.2562  0.2679  0.1676
   22MOL    C3726278   2.355   7.480   1.905  0.2421  0.7190  0.3180
   22MOL    C3826279   2.280   7.452   1.769 -0.2473  0.7530 -0.8855
   22MOL    C3926280   2.132   7.438   1.769 -0.6560 -0.1139  0.7358
   22MOL    C4026281   2.066   7.410   1.633 -0.2206  0.5776  0.3182
   22MOL    C4126282   1.912   7.370   1.647  0.1932  0.5284  0.4158
   22MOL    C4226283   1.843   7.345   1.511  0.1529  0.7339 -0.0556
   22MOL    C4326284   1.703   7.295   1.529 -0.8989  0.0102 -0.6310
   22MOL    C4426285   1.652   7.223   1.407 -0.5490  0.0163  0.1135
   22MOL    C4526286   1.505   7.174   1.410 -0.7082 -0.5131  0.8524
   22MOL    O4626287   1.477   7.059   1.387 -0.0430  0.5028 -0.0428
   22MOL    H4726288   1.450   6.661   1.386 -1.0548 -0.1638  0.7486
   22MOL    H4826289   1.405   6.807   1.456  2.4210  0.5477  0.3223
   22MOL    H4926290   1.670   6.665   1.476  2.1794  1.7733 -1.1471
   22MOL    H5026291   1.633   6.826   1.402  1.5151 -0.4493 -0.9020
   22MOL    H5126292   1.583   6.914   1.631 -0.9891 -0.6628 -1.6774
   22MOL    H5226293   1.624   6.764   1.698  0.9058  0.5668 -0.2278
   22MOL    H5326294   1.860   6.769   1.588 -0.0308 -0.9613  1.3775
   22MOL    H5426295   1.817   6.939   1.546 -1.1850 -1.1080 -1.3231
   22MOL    H5526296   1.854   6.805   1.819  1.4462  1.5072  1.7123
   22MOL    H5626297   1.776   6.970   1.797  0.4733  2.0980 -0.4880
   22MOL    H5726298   1.987   7.043   1.690 -0.0504  1.9383  2.5513
   22MOL    H5826299   2.060   6.890   1.724 -1.3853 -1.1365 -1.5816
   22MOL    H5926300   2.031   6.913   1.969  2.5894  0.2281  0.4341
   22MOL    H6026301   1.952   7.069   1.952 -0.5720 -1.8096 -0.1192
   22MOL    H6126302   2.160   7.150   1.862  0.0293  1.1211  1.7040
   22MOL    H6226303   2.234   6.996   1.863  1.5399  1.6128  0.2512
   22MOL    H6326304   2.156   7.158   2.116  1.2500  0.4301  0.1173
   22MOL    H6426305   2.225   6.993   2.121 -0.0906 -2.6770 -3.2794
   22MOL    H6526306   2.412   7.159   2.150 -1.7150  0.1838  2.4417
   22MOL    H6626307   2.409   7.055   2.001 -1.5160 -2.4512  3.1163
   22MOL    H6726308   2.462   7.493   1.889  0.9434 -0.5907  3.6378
   22MOL    H6826309   2.321   7.572   1.952  0.5835  0.2036  1.5763
   22MOL    H6926310   2.317   7.359   1.726  1.4539  1.0618 -0.1440
   22MOL    H7026311   2.311   7.522   1.692 -0.7426 -0.5757 -2.3122
   22MOL    H7126312   2.095   7.538   1.794  2.2769  0.6586  2.1790
   22MOL    H7226313   2.100   7.365   1.843  0.4959 -0.6194  0.7456
   22MOL    H7326314   2.131   7.334   1.591 -1.3027 -0.8275  1.1679
   22MOL    H7426315   2.080   7.497   1.568 -0.2662 -0.6933 -1.4411
   22MOL    H7526316   1.908   7.281   1.709 -2.2839  0.7365  0.5856
   22MOL    H7626317   1.864   7.448   1.706 -2.2316 -0.7596  0.1756
   22MOL    H7726318   1.842   7.433   1.447  0.7197 -1.4454 -3.1857
   22MOL    H7826319   1.904   7.269   1.462 -0.9321 -0.1396 -0.0709
   22MOL    H7926320   1.633   7.379   1.532 -1.0950 -0.2023  1.5139
   22MOL    H8026321   1.694   7.228   1.614 -1.2452  1.3191  0.3863
   22MOL    H8126322   1.671   7.292   1.325  0.7511  0.4086  0.7298
   22MOL    H8226323   1.714   7.135   1.390  0.3817  0.3390  1.7267
   22MOL    O8326324   1.420   7.280   1.413  0.1733  0.0484  0.5384
   22MOL    C8426325   1.285   7.257   1.393 -0.0076 -0.2037  0.1301
   22MOL    C8526326   1.215   7.383   1.447  0.9032 -0.6584 -0.5225
   22MOL    C8626327   1.060   7.379   1.448 -0.0702  0.8724  0.7540
   22MOL    C8726328   0.992   7.499   1.527  0.5285  0.4969 -0.1216
   22MOL    C8826329   0.840   7.494   1.542 -0.8028  0.3727  0.6756
   22MOL    C8926330   0.759   7.527   1.412  0.1847 -0.0565 -0.3434
   22MOL    C9026331   0.609   7.508   1.441 -0.1446  0.0455  0.0913
   22MOL    C9126332   0.527   7.517   1.308 -0.4708 -0.0499  0.0650
   22MOL    C9226333   0.378   7.509   1.341 -0.6529  0.3937 -0.0592
   22MOL    C9326334   0.291   7.479   1.223 -0.4403  0.1943  0.2055
   22MOL    O9426335   0.315   7.348   1.166 -0.2045 -0.6334  0.5980
   22MOL    C9526336   0.236   7.243   1.196 -0.6880 -0.1582 -1.0167
   22MOL    O9626337   0.131   7.250   1.254 -0.3810  0.0407 -0.2731
   22MOL    C9726338   0.280   7.109   1.139 -0.2297  0.1155 -0.0922
   22MOL    C9826339   0.166   7.029   1.074 -0.2996 -0.3112  0.2576
   22MOL    C9926340   0.208   6.882   1.056 -0.2344 -0.1887  0.7284
   22MOL   C10026341   0.109   6.801   0.975  0.2371  0.5632  0.4075
   22MOL   C10126342   0.116   6.649   0.995 -0.3808  0.1759  0.3460
   22MOL   C10226343   0.017   6.586   0.897  0.4079 -0.2861  0.0546
   22MOL   C10326344   0.033   6.433   0.873  0.2346 -0.0030  0.3727
   22MOL   C10426345   7.673   6.372   0.789  0.0178 -0.1382  0.6026
   22MOL   C10526346   7.679   6.225   0.770  0.2660 -0.1614 -0.1779
   22MOL   O10626347   7.707   6.154   0.857 -0.2931 -1.0301  0.7302
   22MOL   H10726348   1.263   7.241   1.288 -4.4917 -0.5362  1.0144
   22MOL   H10826349   1.257   7.168   1.449 -1.5257 -1.1172 -2.0321
   22MOL   H10926350   1.260   7.386   1.546  0.3295 -1.0188 -0.2503
   22MOL   H11026351   1.245   7.477   1.402  1.8917  0.3466  2.1051
   22MOL   H11126352   1.017   7.368   1.348  1.0949  0.1930  0.3197
   22MOL   H11226353   1.027   7.287   1.497 -0.3737 -1.1798 -3.1070
   22MOL   H11326354   1.038   7.481   1.624  0.5459  1.3711  0.0357
   22MOL   H11426355   1.020   7.593   1.479  0.8211  0.7184  0.4778
   22MOL   H11526356   0.816   7.561   1.625 -0.6083  3.0628 -1.3778
   22MOL   H11626357   0.804   7.394   1.569  0.1424 -0.8370 -2.3035
   22MOL   H11726358   0.790   7.460   1.332  1.0239  0.7856 -0.7173
   22MOL   H11826359   0.791   7.625   1.377  0.5865 -0.0348  0.0870
   22MOL   H11926360   0.579   7.572   1.524 -1.6685  0.9805 -1.1516
   22MOL   H12026361   0.601   7.413   1.493 -0.3889  0.4819  0.8480
   22MOL   H12126362   0.557   7.434   1.244 -1.4192 -0.8755  0.6724
   22MOL   H12226363   0.559   7.601   1.247 -0.4245 -0.8931 -1.0857
   22MOL   H12326364   0.350   7.462   1.435 -0.1104  0.8060  0.3104
   22MOL   H12426365   0.352   7.609   1.377 -1.2006 -0.0384  0.7530
   22MOL   H12526366   0.184   7.487   1.240 -0.7220 -0.9334 -0.9437
   22MOL   H12626367   0.315   7.553   1.146  1.8184  2.2283  2.7376
   22MOL   H12726368   0.331   7.051   1.216  2.0474  0.7877 -1.0624
   22MOL   H12826369   0.352   7.119   1.058  1.2322  1.1721  1.3184
   22MOL   H12926370   0.139   7.065   0.975  0.3738 -1.3104 -0.2921
   22MOL   H13026371   0.074   7.031   1.133 -1.1315 -0.7179 -1.0244
   22MOL   H13126372   0.240   6.833   1.148  0.3818  1.0217  1.1763
   22MOL   H13226373   0.294   6.876   0.989 -1.0204  1.0070 -0.4299
   22MOL   H13326374   0.125   6.816   0.868 -1.0597 -2.8019 -0.3007
   22MOL   H13426375   0.007   6.830   0.997  0.2579  0.0410  1.1937
   22MOL   H13526376   0.217   6.624   0.962  0.4907  0.9052  2.3291
   22MOL   H13626377   0.098   6.617   1.098  0.4137 -1.2009  0.0728
   22MOL   H13726378   7.670   6.604   0.926  1.1979  0.1032  2.8407
   22MOL   H13826379   0.036   6.631   0.800  2.3833 -0.4370  0.3524
   22MOL   H13926380   0.036   6.379   0.968  0.0949  0.9446  0.9260
   22MOL   H14026381   0.131   6.422   0.828  0.0210 -0.8169  0.1034
   22MOL   H14126382   7.578   6.410   0.828 -0.1685  0.3323 -0.2902
   22MOL   H14226383   7.659   6.422   0.693  2.3389 -0.0312  0.2970
   22MOL   O14326384   7.643   6.191   0.645 -0.0391 -0.2807 -0.4673
   22MOL   C14426385   7.643   6.052   0.608 -1.1284  0.1742 -0.2924
   22MOL   C14526386   7.584   6.020   0.474 -0.3042  0.1593 -0.7122
   22MOL   C14626387   7.609   5.877   0.419 -0.6710 -0.1280 -0.4231
   22MOL   C14726388   7.538   5.755   0.482  0.0124  0.0451 -0.0359
   22MOL   C14826389   7.623   5.680   0.585 -0.3319 -0.5194  0.6374
   22MOL   C14926390   7.543   5.565   0.652 -0.1665 -0.2377 -0.2799
   22MOL   C15026391   7.621   5.462   0.740 -0.3724 -0.0893 -0.1566
   22MOL   C15126392   7.543   5.351   0.803 -0.1402  0.0505 -0.0621
   22MOL   C15226393   7.478   5.261   0.690  0.1112  0.2576 -0.2268
   22MOL   C15326394   7.429   5.127   0.743 -0.2024 -0.9014 -0.0044
   22MOL   O15426395   7.356   5.146   0.862 -0.0902 -0.5779  0.1651
   22MOL   C15526396   7.292   5.042   0.917 -0.4817 -0.1139  1.6036
   22MOL   O15626397   7.291   4.933   0.865  0.2871  0.2149  0.6673
   22MOL   C15726398   7.228   5.070   1.049  0.4416  1.0217 -0.8141
   22MOL   C15826399   7.312   5.045   1.178  0.4026  0.0490 -0.0285
   22MOL   C15926400   7.421   5.158   1.199  0.0579  0.2837  0.1214
   22MOL   C16026401   7.501   5.131   1.329  0.3559  0.0295 -0.7332
   22MOL   C16126402   7.590   5.249   1.370  0.1624  0.0474  0.3407
   22MOL   C16226403   7.703   5.214   1.464 -0.0127  0.5038 -0.2918
   22MOL   C16326404   0.024   5.327   1.532 -0.1680 -0.5357 -0.1764
   22MOL   C16426405   0.108   5.288   1.655 -0.4719 -0.4247  0.0326
   22MOL   C16526406   0.235   5.212   1.618  0.2412 -0.6395  0.0625
   22MOL   O16626407   0.235   5.104   1.564 -0.1353  0.0899  0.6406
   22MOL   H16726408   7.744   6.013   0.623 -0.5399  1.2607 -1.3343
   22MOL   H16826409   7.584   5.997   0.682 -0.0126 -2.1245 -1.0470
   22MOL   H16926410   7.479   6.013   0.500  0.4842 -0.7188  2.4225
   22MOL   H17026411   7.601   6.088   0.391 -0.2304 -1.3473 -1.9497
   22MOL   H17126412   7.587   5.873   0.312  1.1114 -0.1720 -0.7920
   22MOL   H17226413   7.712   5.845   0.424 -0.7029 -0.2285 -0.4305
   22MOL   H17326414   7.448   5.785   0.535 -0.3361 -1.7742  0.4225
   22MOL   H17426415   7.515   5.683   0.403  0.6586 -0.4393  0.2132
   22MOL   H17526416   7.652   5.746   0.666 -2.6742 -0.3246  1.3569
   22MOL   H17626417   7.708   5.632   0.537  0.3758  0.8110  0.5585
   22MOL   H17726418   7.496   5.509   0.572  1.6558  0.4583 -1.8826
   22MOL   H17826419   7.458   5.607   0.707 -1.3758 -2.6492 -0.2380
   22MOL   H17926420   7.670   5.509   0.825 -0.2338 -1.7531  0.6993
   22MOL   H18026421   7.698   5.427   0.672  1.2745  2.6725  0.1976
   22MOL   H18126422   7.463   5.379   0.871  2.0036  2.0449  1.7095
   22MOL   H18226423   7.605   5.280   0.858 -2.5470 -1.3401  0.9349
   22MOL   H18326424   7.388   5.305   0.647 -0.5525 -2.0972 -1.3199
   22MOL   H18426425   7.552   5.248   0.611 -0.0211 -1.8828 -0.0203
   22MOL   H18526426   7.379   5.076   0.660  0.4798  0.0133 -0.9918
   22MOL   H18626427   7.520   5.070   0.763 -0.1092 -1.1010 -0.9833
   22MOL   H18726428   7.137   5.010   1.053  1.7347 -1.0301 -1.5673
   22MOL   H18826429   7.205   5.176   1.048 -1.0634  0.7565  1.8050
   22MOL   H18926430   7.352   4.943   1.179  1.6143  0.5021 -1.1046
   22MOL   H19026431   7.243   5.043   1.262  1.3329  1.8346  0.8028
   22MOL   H19126432   7.380   5.259   1.204  1.9052  1.0980 -0.9606
   22MOL   H19226433   7.490   5.175   1.118 -0.1032  0.3460 -0.0031
   22MOL   H19326434   7.567   5.048   1.304  1.0490  0.4753 -0.4302
   22MOL   H19426435   7.432   5.115   1.411  1.1487 -0.9147 -0.2492
   22MOL   H19526436   7.638   5.278   1.277  2.3926 -3.4099  0.3035
   22MOL   H19626437   7.531   5.336   1.396  0.7304  0.0337  1.7241
   22MOL   H19726438   7.659   5.153   1.544 -0.6313  0.2210 -0.8373
   22MOL   H19826439   0.021   5.150   1.416 -0.3591 -0.7111  0.7601
   22MOL   H19926440   7.709   5.392   1.583 -0.3887 -0.2086 -0.8992
   22MOL   H20026441   0.083   5.372   1.453 -1.2638  0.7326 -0.2892
   22MOL   H20126442   0.139   5.369   1.720  1.2549 -1.7311  0.8547
   22MOL   H20226443   0.054   5.221   1.721 -0.4878  0.1766  0.6304
   22MOL   H20326444   0.327   5.261   1.648  0.3414 -1.1376  0.5635
   23MOL     O126445   3.653   7.042   5.470  0.2259 -0.7514 -0.0335
   23MOL     C226446   3.629   7.016   5.337  0.4157  0.2533 -0.1487
   23MOL     C326447   3.490   7.040   5.291  0.2950 -0.2056  0.6605
   23MOL     C426448   3.462   7.189   5.284  0.6863 -0.6795  0.2585
   23MOL     C526449   3.325   7.247   5.230  0.7566  0.2188 -0.4735
   23MOL     C626450   3.199   7.218   5.319 -0.1600  0.0222  0.0166
   23MOL     C726451   3.084   7.277   5.243  0.4886  0.6510  0.2906
   23MOL     C826452   2.950   7.238   5.309 -0.0037  0.9003 -0.1203
   23MOL     C926453   2.829   7.288   5.219 -0.5486 -0.1787 -0.2288
   23MOL    C1026454   2.694   7.251   5.290 -0.0735 -0.0637 -0.0603
   23MOL    C1126455   2.570   7.309   5.213  0.0979  0.2558  0.2436
   23MOL    O1226456   2.455   7.328   5.301 -0.6130 -0.4257 -0.1668
   23MOL    C1326457   2.369   7.225   5.317 -0.3443 -0.1946 -0.5209
   23MOL    O1426458   2.383   7.108   5.284 -0.3675 -0.1651 -0.1404
   23MOL    C1526459   2.239   7.281   5.369  0.3806  0.0136  0.3094
   23MOL    C1626460   2.239   7.298   5.520  0.1925  0.3000  0.2689
   23MOL    C1726461   2.154   7.419   5.563  0.3180 -0.5352 -0.5164
   23MOL    C1826462   2.120   7.424   5.712 -0.4950  0.0927 -0.1726
   23MOL    C1926463   2.068   7.556   5.765  0.7773  0.4980 -0.3832
   23MOL    C2026464   2.001   7.556   5.906 -0.0391  0.7948 -0.0419
   23MOL    C2126465   1.922   7.681   5.937  0.6026 -0.4893 -0.4296
   23MOL    C2226466   2.009   0.045   5.964  0.1488 -0.1895  0.3028
   23MOL    C2326467   1.918   0.164   6.007  0.9997 -0.3982  0.0767
   23MOL    O2426468   1.797   0.172   5.979 -0.0732  0.4023 -0.8843
   23MOL    H2526469   3.698   7.079   5.281 -0.0782 -0.8601 -2.0764
   23MOL    H2626470   3.657   6.915   5.307 -0.2566 -0.3291  1.1631
   23MOL    H2726471   3.466   7.015   5.188 -0.9469  2.0507  0.3688
   23MOL    H2826472   3.419   7.000   5.364 -0.2802 -0.8992 -0.2690
   23MOL    H2926473   3.485   7.243   5.376  1.0491 -0.2329 -0.0855
   23MOL    H3026474   3.539   7.232   5.219  0.1893 -1.4841 -0.8757
   23MOL    H3126475   3.326   7.353   5.206 -1.2084  0.0016 -1.5478
   23MOL    H3226476   3.312   7.184   5.142  3.2661 -1.8722  0.5762
   23MOL    H3326477   3.204   7.271   5.415  3.4384  0.5506 -0.3784
   23MOL    H3426478   3.186   7.111   5.330 -2.0588  0.2581  0.1281
   23MOL    H3526479   3.087   7.228   5.146  2.0186 -2.0875  1.6455
   23MOL    H3626480   3.104   7.383   5.228  2.5657  0.1254 -0.8373
   23MOL    H3726481   2.925   7.280   5.406 -0.0223 -1.5919  0.9898
   23MOL    H3826482   2.947   7.131   5.329 -0.7272  0.8257 -0.5902
   23MOL    H3926483   2.832   7.251   5.116  0.6681  1.0167 -0.6354
   23MOL    H4026484   2.834   7.396   5.210 -0.6525  0.1032  2.7533
   23MOL    H4126485   2.679   7.145   5.305  2.2727 -0.5449 -0.9433
   23MOL    H4226486   2.690   7.293   5.390 -1.1090  0.2434 -0.2276
   23MOL    H4326487   2.600   7.399   5.159 -0.7899 -0.2859 -1.1938
   23MOL    H4426488   2.543   7.239   5.134 -0.2463 -2.1461  2.4258
   23MOL    H4526489   2.163   7.209   5.340 -0.2298  0.8249 -0.1309
   23MOL    H4626490   2.222   7.376   5.318  1.6409 -0.3579 -0.8126
   23MOL    H4726491   2.342   7.315   5.553 -0.1272  2.0708  0.3731
   23MOL    H4826492   2.201   7.204   5.561  1.6123 -1.4541 -2.2517
   23MOL    H4926493   2.064   7.429   5.502  0.7636 -5.1480 -2.1137
   23MOL    H5026494   2.207   7.510   5.536  0.5830 -0.3820  0.4974
   23MOL    H5126495   2.206   7.404   5.775 -0.5752  1.4055  0.3766
   23MOL    H5226496   2.058   7.337   5.733  2.2253 -1.3199  2.2085
   23MOL    H5326497   2.137   7.640   5.773 -0.0889  1.2082 -0.1908
   23MOL    H5426498   1.991   7.586   5.694  0.9776 -0.4960 -1.0144
   23MOL    H5526499   1.938   7.471   5.933  1.4383 -0.1998  0.3912
   23MOL    H5626500   2.091   7.541   5.966 -0.0069 -0.8271 -0.4793
   23MOL    H5726501   1.873   7.663   6.033  1.9078  0.4280  0.4378
   23MOL    H5826502   1.840   7.695   5.866  0.9341 -2.5322 -1.2182
   23MOL    H5926503   2.082   0.029   6.044 -0.8002  1.1099  1.4557
   23MOL    H6026504   2.073   0.073   5.880  0.9606  0.0519  0.9922
   23MOL    H6126505   3.630   6.971   5.528 -1.2244 -0.0232  0.3104
   23MOL    O6226506   1.985   0.252   6.080  0.1664 -0.6605  0.6391
   23MOL    C6326507   1.919   0.377   6.107 -0.3256  0.1544 -0.0163
   23MOL    C6426508   2.022   0.477   6.152  0.3597 -0.4737 -1.0853
   23MOL    C6526509   2.060   0.468   6.299 -0.0958 -0.3842  0.6512
   23MOL    C6626510   2.174   0.361   6.325  0.0119 -0.3595  0.3129
   23MOL    C6726511   2.204   0.351   6.474  0.3094  0.2734 -0.2042
   23MOL    C6826512   2.326   0.256   6.504 -0.3187  0.5331  0.2691
   23MOL    C6926513   2.466   0.321   6.459 -0.7330 -0.0040 -0.1868
   23MOL    C7026514   2.583   0.255   6.538 -0.6121 -0.3870  0.5037
   23MOL    C7126515   2.625   0.115   6.475 -0.1579  0.1414  0.2238
   23MOL    C7226516   2.745   0.052   6.549 -0.0498  0.3549  0.2305
   23MOL    O7326517   2.855   0.137   6.510 -0.6671  0.4232  0.0493
   23MOL    C7426518   2.969   0.087   6.473  0.3501  0.2420 -0.0588
   23MOL    O7526519   2.992   7.727   6.457 -0.7520  0.2801  0.4990
   23MOL    C7626520   3.069   0.190   6.423 -0.2591 -0.0835  0.2464
   23MOL    C7726521   3.151   0.251   6.543  0.4314  0.5022  0.1506
   23MOL    C7826522   3.260   0.347   6.492  0.1907  0.3002 -0.2223
   23MOL    C7926523   3.324   0.425   6.613 -0.2665  0.0395  0.1401
   23MOL    C8026524   3.411   0.546   6.561  0.4591 -0.0762 -0.4062
   23MOL    C8126525   3.447   0.645   6.670  0.4753 -0.1912 -0.6442
   23MOL    C8226526   3.580   0.605   6.744  0.2013 -0.1013  0.2580
   23MOL    C8326527   3.645   0.710   6.829  0.5223 -0.6035  0.4321
   23MOL    C8426528   3.710   0.653   6.960  0.2354 -0.4362  0.4067
   23MOL    O8526529   3.708   0.534   6.984 -0.2793 -0.1926  0.2468
   23MOL    H8626530   1.880   0.413   6.013 -0.6145 -0.4388 -0.1294
   23MOL    H8726531   1.835   0.371   6.177 -0.3589  0.2988 -0.0443
   23MOL    H8826532   2.112   0.471   6.090 -0.4435 -2.0938 -2.1348
   23MOL    H8926533   1.971   0.573   6.146  1.8932  0.4101 -0.2289
   23MOL    H9026534   2.099   0.566   6.329 -3.6773  1.5732 -0.8486
   23MOL    H9126535   1.977   0.451   6.368 -1.9370  0.8832 -1.1972
   23MOL    H9226536   2.149   0.258   6.299 -0.5621  0.2036 -1.4420
   23MOL    H9326537   2.269   0.393   6.280 -0.3534 -0.1394 -0.3148
   23MOL    H9426538   2.116   0.311   6.524 -0.4958  0.5319 -1.4142
   23MOL    H9526539   2.216   0.447   6.523 -0.3234 -0.0133  0.5208
   23MOL    H9626540   2.318   0.162   6.449  1.7716  0.6083 -0.1985
   23MOL    H9726541   2.338   0.242   6.611  1.3966 -2.0557 -0.1982
   23MOL    H9826542   2.455   0.428   6.476 -3.3395 -0.1453 -0.7497
   23MOL    H9926543   2.484   0.306   6.353 -0.4525 -1.7465  0.0932
   23MOL   H10026544   2.575   0.248   6.647  3.4023 -1.6017  0.7968
   23MOL   H10126545   2.667   0.317   6.509  0.6418 -1.3058  2.0721
   23MOL   H10226546   2.535   0.054   6.479 -1.5708  2.0042 -2.1500
   23MOL   H10326547   2.647   0.124   6.369 -3.2927 -1.8847 -0.6734
   23MOL   H10426548   2.734   0.040   6.656 -1.5747  0.1599  0.0715
   23MOL   H10526549   2.768   7.706   6.518  1.0105  0.0183  2.1151
   23MOL   H10626550   3.021   0.271   6.368 -2.7768 -1.6439  0.1142
   23MOL   H10726551   3.140   0.140   6.357 -0.4444 -1.7668  1.3008
   23MOL   H10826552   3.197   0.173   6.603 -0.5463 -1.2086 -1.2623
   23MOL   H10926553   3.088   0.305   6.613 -0.9452  0.6170 -1.1436
   23MOL   H11026554   3.218   0.424   6.428  2.1026  2.0458  0.5553
   23MOL   H11126555   3.333   0.290   6.435  1.3565 -0.8386  2.2956
   23MOL   H11226556   3.380   0.353   6.672  1.4564  1.7229  0.6000
   23MOL   H11326557   3.248   0.470   6.676  0.1879  1.2908 -0.1858
   23MOL   H11426558   3.506   0.502   6.529  0.9477  0.0937  0.8066
   23MOL   H11526559   3.372   0.595   6.471  1.1781  2.3116  0.5406
   23MOL   H11626560   3.464   0.744   6.627  0.9525  0.4962  1.1093
   23MOL   H11726561   3.363   0.656   6.738 -0.9073  0.9295 -2.4746
   23MOL   H11826562   3.653   0.556   6.680  0.0824 -2.9118  2.1838
   23MOL   H11926563   3.548   0.523   6.809  1.2927 -0.6789  0.0815
   23MOL   H12026564   3.720   0.767   6.775 -1.0415  1.0688 -0.0161
   23MOL   H12126565   3.570   0.779   6.866 -0.5365 -2.3053  1.5436
   23MOL   O12226566   3.761   0.746   7.036  0.7172 -0.0613 -0.0161
   23MOL   C12326567   3.846   0.718   7.150  0.3381  0.3935 -0.1187
   23MOL   C12426568   3.783   0.695   7.284 -0.0024  0.0873 -0.0898
   23MOL   C12526569   3.895   0.673   7.391  0.3973 -0.1720  0.8569
   23MOL   C12626570   3.987   0.551   7.375 -0.5816  0.4821 -1.1719
   23MOL   C12726571   4.050   0.524   7.522  0.5939 -0.0210  0.5123
   23MOL   C12826572   4.143   0.401   7.509  0.3074  1.1098 -0.0387
   23MOL   C12926573   4.067   0.269   7.499 -0.1119  0.1311 -0.1778
   23MOL   C13026574   4.053   0.188   7.632  0.8037  0.0995 -0.2045
   23MOL   C13126575   3.962   0.250   7.733  0.7479  0.3758 -0.5606
   23MOL   C13226576   3.955   0.169   0.111  0.5859  0.5979 -0.1733
   23MOL   O13326577   4.085   0.169   0.172  0.1327 -0.1182 -0.4404
   23MOL   C13426578   4.098   0.156   0.299 -0.3179 -0.3965  0.6195
   23MOL   O13526579   4.011   0.167   0.388 -0.0332  0.1086  0.0897
   23MOL   C13626580   4.245   0.124   0.334 -0.4757 -0.1362 -0.1454
   23MOL   C13726581   4.342   0.237   0.302 -0.0858  0.0298  1.1407
   23MOL   C13826582   4.320   0.363   0.385 -0.3257  0.1852 -0.1044
   23MOL   C13926583   4.449   0.448   0.380  0.0717  0.1374 -0.0080
   23MOL   C14026584   4.441   0.581   0.459  0.0842  0.5115  0.3085
   23MOL   C14126585   4.350   0.684   0.398 -0.4176  0.2929  0.0061
   23MOL   C14226586   4.356   0.830   0.462 -0.4821 -0.9978  0.2979
   23MOL   C14326587   4.255   0.928   0.389 -0.1273  0.0178  0.2508
   23MOL   C14426588   4.237   1.051   0.474 -0.6593 -0.2132  0.2446
   23MOL   O14526589   4.129   1.084   0.511  0.3389  0.3815 -0.0829
   23MOL   H14626590   3.919   0.639   7.131 -1.6297 -1.4509 -0.1071
   23MOL   H14726591   3.918   0.799   7.160 -0.1888  1.0194 -1.2502
   23MOL   H14826592   3.731   0.788   7.306 -3.3220 -1.1518 -2.3721
   23MOL   H14926593   3.708   0.615   7.279 -1.8625  1.8387 -0.8645
   23MOL   H15026594   3.958   0.762   7.399 -2.0427  1.7716 -0.8407
   23MOL   H15126595   3.848   0.669   7.490 -1.1654 -2.8022  0.0674
   23MOL   H15226596   3.927   0.474   7.327  2.1374 -1.5267 -1.4141
   23MOL   H15326597   4.059   0.561   7.294 -0.4841  3.5643 -0.7540
   23MOL   H15426598   3.972   0.504   7.595 -1.8672  0.5436 -1.8891
   23MOL   H15526599   4.118   0.605   7.551 -1.3326  1.0918  1.9878
   23MOL   H15626600   4.212   0.411   7.592  0.6895  0.0245 -0.2192
   23MOL   H15726601   4.205   0.406   7.419 -2.4865  2.5105 -1.9853
   23MOL   H15826602   4.108   0.212   7.416  0.7003  2.5294 -1.4344
   23MOL   H15926603   3.970   0.297   7.458  0.9378  3.2279 -0.6483
   23MOL   H16026604   4.152   0.165   7.671  0.2201  0.1468  1.3658
   23MOL   H16126605   4.007   0.092   7.612  0.7631  0.0448  0.1493
   23MOL   H16226606   3.991   0.349   0.009  1.3083  0.1122 -0.2575
   23MOL   H16326607   3.864   0.262   7.687 -0.7057  0.3799  2.3870
   23MOL   H16426608   3.873   0.204   0.172 -1.1030  0.0394 -2.0774
   23MOL   H16526609   3.925   0.067   0.089 -1.0170  1.2019 -0.8927
   23MOL   H16626610   4.275   0.030   0.288  0.6639  0.5275 -0.7798
   23MOL   H16726611   4.245   0.110   0.442 -1.2470 -0.6332 -0.2077
   23MOL   H16826612   4.340   0.254   0.194 -3.5373 -1.7551  0.8178
   23MOL   H16926613   4.439   0.192   0.320  0.0738  0.0504  0.3618
   23MOL   H17026614   4.313   0.339   0.491  0.4005  1.0982  0.1528
   23MOL   H17126615   4.227   0.413   0.358 -2.3659 -2.0799  2.4006
   23MOL   H17226616   4.483   0.463   0.277  1.4741  0.5478  0.5082
   23MOL   H17326617   4.533   0.395   0.423 -0.0350 -1.0804 -1.2750
   23MOL   H17426618   4.414   0.552   0.561  0.5537  0.5974  0.4591
   23MOL   H17526619   4.542   0.619   0.444  0.0557  0.1775 -0.7261
   23MOL   H17626620   4.362   0.695   0.291 -0.8701 -0.8143 -0.1605
   23MOL   H17726621   4.250   0.647   0.417 -0.9448  2.4504  1.7754
   23MOL   H17826622   4.453   0.879   0.449 -0.7623 -0.3273  0.7481
   23MOL   H17926623   4.320   0.831   0.565 -1.3674  1.1100 -0.0127
   23MOL   H18026624   4.287   0.949   0.287  1.1933 -1.0617  0.4253
   23MOL   H18126625   4.157   0.884   0.370 -0.7401  2.0421 -1.4610
   23MOL   O18226626   4.355   1.116   0.503 -0.1674  0.1375 -0.2998
   23MOL   C18326627   4.348   1.228   0.587  0.5173  0.6630 -0.0404
   23MOL   C18426628   4.486   1.237   0.651  0.5796  0.2411  0.2567
   23MOL   C18526629   4.597   1.260   0.550  0.1639 -0.6253 -0.2581
   23MOL   C18626630   4.731   1.303   0.608 -0.0052  0.3004  0.1532
   23MOL   C18726631   4.847   1.318   0.502 -0.1417  0.4585  0.0053
   23MOL   C18826632   4.974   1.346   0.572  0.8048  0.2470 -0.5822
   23MOL   C18926633   5.099   1.348   0.494  0.1165 -0.6003  0.5072
   23MOL   C19026634   5.106   1.470   0.405 -0.5185  0.7078 -0.6651
   23MOL   C19126635   5.223   1.467   0.305  0.3820  0.5707  0.5418
   23MOL   C19226636   5.204   1.566   0.188  0.7707  0.4674  0.3377
   23MOL   O19326637   5.316   1.577   0.102  0.0017  0.0568  0.2375
   23MOL   C19426638   5.304   1.549   7.725  0.2245 -1.1381  0.1504
   23MOL   O19526639   5.201   1.551   7.662  0.1383  0.2264  0.1483
   23MOL   C19626640   5.436   1.509   7.656 -0.1696  0.1354  0.4172
   23MOL   C19726641   5.443   1.355   7.638 -0.1852  0.6331  0.0635
   23MOL   C19826642   5.498   1.290   0.015  0.5577  0.1480  0.0002
   23MOL   C19926643   5.521   1.145   7.744  0.2366 -0.5514 -0.6116
   23MOL   C20026644   5.562   1.065   0.113  0.6744 -0.5075 -0.0862
   23MOL   C20126645   5.468   1.063   0.229 -0.4280  0.3099  0.5595
   23MOL   C20226646   5.520   0.970   0.337  0.1250  0.7365 -0.1404
   23MOL   C20326647   5.445   0.964   0.472  0.3565 -0.0260 -0.7877
   23MOL   C20426648   5.480   1.077   0.561  0.5233  0.2828  0.5717
   23MOL   O20526649   5.394   1.161   0.598  0.4004  0.2561  0.1488
   23MOL   H20626650   4.323   1.323   0.540  0.3794  1.0344  0.7794
   23MOL   H20726651   4.270   1.224   0.663  1.7183 -1.6473  1.1339
   23MOL   H20826652   4.498   1.328   0.711  0.4070 -0.4188  1.3098
   23MOL   H20926653   4.509   1.145   0.705 -1.0193 -0.1083  0.3627
   23MOL   H21026654   4.598   1.165   0.497  0.7501  0.1107 -1.6002
   23MOL   H21126655   4.564   1.331   0.474  1.4318 -2.2870 -2.4218
   23MOL   H21226656   4.723   1.397   0.662 -2.2579 -0.6055  1.4431
   23MOL   H21326657   4.753   1.232   0.687  1.7487  1.1457  0.4503
   23MOL   H21426658   4.825   1.400   0.433  0.2611 -1.0073 -1.8939
   23MOL   H21526659   4.848   1.231   0.437 -0.7312 -0.9775  1.8952
   23MOL   H21626660   4.993   1.278   0.655 -2.3514  1.3342  1.1000
   23MOL   H21726661   4.966   1.444   0.620 -3.3467  0.0180 -0.6291
   23MOL   H21826662   5.123   1.248   0.457  2.4559  0.0475  0.2239
   23MOL   H21926663   5.189   1.360   0.555  1.1052 -1.1760 -0.8121
   23MOL   H22026664   5.127   1.549   0.477 -0.2825 -0.8447  0.9855
   23MOL   H22126665   5.017   1.480   0.342 -0.6981 -1.4839 -0.7906
   23MOL   H22226666   5.313   1.493   0.361  0.0395 -1.3204  2.0110
   23MOL   H22326667   5.232   1.367   0.262 -0.2214  1.8119 -2.5757
   23MOL   H22426668   5.113   1.532   0.139  1.2677 -2.2053  1.1853
   23MOL   H22526669   5.185   1.663   0.235 -1.5041 -0.2021  0.8528
   23MOL   H22626670   5.524   1.550   7.704  0.2064 -0.8201  0.5657
   23MOL   H22726671   5.437   1.553   7.556  0.0651  2.7053  1.5060
   23MOL   H22826672   5.505   1.329   7.552  0.2936 -0.2130  0.6520
   23MOL   H22926673   5.342   1.315   7.627 -0.0225  0.4242 -0.7292
   23MOL   H23026674   5.425   1.289   0.096  0.8442 -2.6532  0.2863
   23MOL   H23126675   5.585   1.340   0.056 -1.1936  3.5284 -0.2645
   23MOL   H23226676   5.599   1.125   7.670  1.5702  4.2435 -0.7100
   23MOL   H23326677   5.428   1.105   7.703  1.0458 -1.6327 -1.4358
   23MOL   H23426678   5.587   0.966   0.075 -0.3167 -0.9917  0.5156
   23MOL   H23526679   5.655   1.101   0.156 -0.2550  2.6678 -0.5643
   23MOL   H23626680   5.465   1.161   0.278 -1.3066  0.3526  0.4293
   23MOL   H23726681   5.365   1.046   0.199 -0.4188 -0.8515  1.1536
   23MOL   H23826682   5.627   0.988   0.349  0.2979  0.6276 -1.4707
   23MOL   H23926683   5.516   0.866   0.303  1.5758  0.4755  0.4118
   23MOL   H24026684   5.337   0.965   0.454  0.7868  1.5407 -3.5534
   23MOL   H24126685   5.478   0.876   0.526 -0.6214  0.5905  0.8772
   23MOL   O24226686   5.609   1.079   0.594  0.2655 -0.2857  0.3018
   23MOL   C24326687   5.673   1.198   0.645 -0.3681  0.4163  0.2480
   23MOL   C24426688   5.754   1.271   0.534 -0.2218 -0.0222  0.3011
   23MOL   C24526689   5.656   1.357   0.455 -0.4105  1.0070 -0.1617
   23MOL   C24626690   5.719   1.442   0.346 -0.1380 -0.1247  0.8502
   23MOL   C24726691   5.623   1.534   0.271 -0.1723  0.0464 -0.4259
   23MOL   C24826692   5.704   1.631   0.177 -1.0602  0.4007  0.4779
   23MOL   C24926693   5.775   1.735   0.261 -0.0086  0.0667 -0.8956
   23MOL   C25026694   5.843   1.846   0.182 -0.1427 -0.0057 -0.7042
   23MOL   C25126695   5.903   1.957   0.274 -0.2257 -0.2759  0.4776
   23MOL   C25226696   5.967   2.071   0.185  0.1562  1.1678 -0.4443
   23MOL   O25326697   6.072   2.013   0.101 -0.0811  0.6256 -0.2152
   23MOL   C25426698   6.193   1.975   0.159  0.0107 -0.1518 -0.1553
   23MOL   O25526699   6.224   1.984   0.279  0.1164 -0.3039 -0.3975
   23MOL   C25626700   6.281   1.922   0.052  0.5830 -1.1311  0.0665
   23MOL   C25726701   6.237   1.784   7.753  0.1176 -0.2523 -0.6161
   23MOL   C25826702   6.266   1.671   0.093 -0.0200 -0.1314 -0.1750
   23MOL   C25926703   6.197   1.535   0.075  0.1317 -0.3321 -0.0540
   23MOL   C26026704   6.252   1.415   0.157  0.0997 -0.3742  0.3783
   23MOL   C26126705   6.178   1.286   0.124 -0.0681  0.3533  0.3177
   23MOL   C26226706   6.035   1.285   0.171  0.0935  0.5241  0.1250
   23MOL   C26326707   5.949   1.164   0.126  0.4368  0.2998  0.4856
   23MOL   C26426708   5.912   1.155   7.732  0.4139  0.3608  0.0092
   23MOL   O26526709   5.931   1.055   7.661 -0.3322  0.1049 -0.3544
   23MOL   H26626710   5.625   1.265   0.716 -2.1990 -0.2999 -0.2909
   23MOL   H26726711   5.743   1.151   0.715 -1.1673 -1.6612 -0.2848
   23MOL   H26826712   5.837   1.323   0.583 -1.1971  1.0883  0.8190
   23MOL   H26926713   5.809   1.209   0.463  0.6677  1.6450 -0.5229
   23MOL   H27026714   5.573   1.300   0.412  1.2763 -2.0831  0.5130
   23MOL   H27126715   5.615   1.430   0.525  1.5616  1.6406  0.3591
   23MOL   H27226716   5.796   1.503   0.393  1.3207 -2.2372  1.2262
   23MOL   H27326717   5.775   1.386   0.272 -0.6573  1.0858 -0.4817
   23MOL   H27426718   5.568   1.594   0.343  1.6903  1.9072 -0.5228
   23MOL   H27526719   5.557   1.478   0.204 -0.1138 -1.3655  0.6761
   23MOL   H27626720   5.640   1.685   0.107 -1.2282 -1.0913 -0.5414
   23MOL   H27726721   5.773   1.568   0.121 -1.6296  0.6507 -0.5194
   23MOL   H27826722   5.854   1.701   0.328 -1.1708  0.9843  0.9565
   23MOL   H27926723   5.706   1.793   0.322  1.0300 -0.4525  0.8239
   23MOL   H28026724   5.778   1.895   0.110 -1.5329  0.7304  1.0334
   23MOL   H28126725   5.929   1.806   0.128  0.5805  0.1500  0.3131
   23MOL   H28226726   5.823   2.005   0.331 -0.4638 -0.7740  0.5643
   23MOL   H28326727   5.977   1.920   0.345  0.5210 -0.3869 -0.3543
   23MOL   H28426728   5.884   2.107   0.125  0.1904  1.4065 -0.3495
   23MOL   H28526729   6.008   2.161   0.232 -1.2936  2.0163 -0.7730
   23MOL   H28626730   6.385   1.933   0.084 -0.0494  0.9356  1.4212
   23MOL   H28726731   6.274   2.001   7.734  1.2391 -0.8801  0.2682
   23MOL   H28826732   6.286   1.767   7.657 -0.2623  0.1759 -0.8861
   23MOL   H28926733   6.129   1.787   7.735  0.0489 -1.6578 -0.5268
   23MOL   H29026734   6.242   1.710   0.192 -1.0481 -0.9581 -0.0960
   23MOL   H29126735   6.373   1.660   0.111  0.1410 -0.0853 -1.1099
   23MOL   H29226736   6.204   1.509   7.726  0.4178  2.1449 -0.6731
   23MOL   H29326737   6.090   1.549   0.090 -0.2263 -0.2980 -2.3814
   23MOL   H29426738   6.351   1.382   0.127 -0.2599 -2.1630  1.0902
   23MOL   H29526739   6.244   1.431   0.265 -1.0961  2.5905 -0.0864
   23MOL   H29626740   6.200   1.250   0.023  1.2788  1.4628  0.2040
   23MOL   H29726741   6.235   1.213   0.181  2.7214  2.1528 -0.0876
   23MOL   H29826742   5.983   1.378   0.147 -1.6819  0.2460  2.6860
   23MOL   H29926743   6.043   1.294   0.279  0.0935  0.1428  0.1571
   23MOL   H30026744   5.984   1.062   0.144 -0.0852 -0.1335 -0.9156
   23MOL   H30126745   5.860   1.173   0.188 -1.1579 -2.2626 -1.3502
   23MOL   O30226746   5.855   1.261   7.697  0.2271 -0.1990 -0.4204
   23MOL   C30326747   5.812   1.283   7.562  0.0955  0.5968 -0.1183
   23MOL   C30426748   5.882   1.408   7.515 -0.6471 -0.3052 -0.6949
   23MOL   C30526749   5.830   1.544   7.578 -0.5278  0.2279  0.8029
   23MOL   C30626750   5.887   1.655   7.498 -0.4245 -0.1262  1.0235
   23MOL   C30726751   5.845   1.782   7.562 -0.2001 -0.1985 -0.2628
   23MOL   C30826752   5.877   1.907   7.482 -0.1973  0.0932 -0.2581
   23MOL   C30926753   5.790   1.921   7.352 -0.3392 -0.4265 -0.3982
   23MOL   C31026754   5.826   2.043   7.267  0.2673  0.7036  0.2634
   23MOL   C31126755   5.709   2.098   7.183  0.5607  0.0892  0.2313
   23MOL   C31226756   5.728   2.240   7.118 -0.6019  0.0738 -0.4136
   23MOL   O31326757   5.854   2.244   7.045  0.5279  0.0210  0.1978
   23MOL   C31426758   5.911   2.361   7.019 -0.3240 -0.0734  0.6892
   23MOL   O31526759   5.863   2.477   7.043 -0.2350 -0.5181  0.2134
   23MOL   C31626760   6.051   2.354   6.960 -0.1335 -0.6272  0.1215
   23MOL   C31726761   6.166   2.368   7.058  0.3066 -0.0252  0.0013
   23MOL   C31826762   6.159   2.280   7.185  0.0010 -0.1138 -0.0409
   23MOL   C31926763   6.267   2.307   7.289 -0.0277 -0.2921 -0.2610
   23MOL   C32026764   6.250   2.195   7.390 -0.0627 -0.2055  0.1664
   23MOL   C32126765   6.376   2.180   7.479 -0.4321 -0.3686  0.6287
   23MOL   C32226766   6.413   2.307   7.564 -0.1361 -0.2238 -0.1034
   23MOL   C32326767   6.542   2.310   7.644 -0.0082 -0.6775 -0.1064
   23MOL   C32426768   6.556   2.215   0.004  0.2875  0.4554 -0.1111
   23MOL   O32526769   6.580   2.098   7.738 -0.0235  0.1932 -0.9694
   23MOL   H32626770   5.835   1.202   7.492 -1.4492 -0.7166  0.8545
   23MOL   H32726771   5.706   1.301   7.546  0.1620 -0.3356 -1.7735
   23MOL   H32826772   5.989   1.398   7.532 -0.5206  0.8495 -0.7983
   23MOL   H32926773   5.871   1.425   7.408  0.3877  1.2258 -0.5659
   23MOL   H33026774   5.722   1.540   7.571 -0.3109 -0.9908 -3.3631
   23MOL   H33126775   5.867   1.550   7.680 -2.9119  4.0639  1.5433
   23MOL   H33226776   5.996   1.655   7.497 -0.4258 -0.2080  0.4588
   23MOL   H33326777   5.860   1.649   7.393 -1.8790 -1.1969  1.4464
   23MOL   H33426778   5.885   1.793   7.663 -1.3885  1.0466  0.0950
   23MOL   H33526779   5.739   1.776   7.585  0.1994 -0.7823  1.5210
   23MOL   H33626780   5.984   1.900   7.465  0.0383  0.1541  1.1669
   23MOL   H33726781   5.861   1.993   7.547  0.4372  0.5641 -0.7216
   23MOL   H33826782   5.687   1.941   7.381 -0.8350  1.5150 -3.2216
   23MOL   H33926783   5.801   1.833   7.288  3.0133  0.0653 -0.6216
   23MOL   H34026784   5.908   2.011   7.204  0.5130 -2.0234  1.8512
   23MOL   H34126785   5.872   2.127   7.319  1.3643  2.2654 -3.1307
   23MOL   H34226786   5.688   2.020   7.110  2.2470 -3.5783  3.4861
   23MOL   H34326787   5.621   2.093   7.248  1.4908 -0.8293  1.4551
   23MOL   H34426788   5.658   2.256   7.036 -0.3643  0.2959 -0.5756
   23MOL   H34526789   5.725   2.320   7.192 -0.4174  0.1872 -0.5279
   23MOL   H34626790   6.066   2.422   6.877  1.0787 -1.1643 -0.0985
   23MOL   H34726791   6.048   2.263   6.902 -1.0670  0.9166 -2.3090
   23MOL   H34826792   6.175   2.467   7.103 -1.2646 -0.2085  0.7439
   23MOL   H34926793   6.260   2.351   7.005 -0.0596  0.2948 -0.7498
   23MOL   H35026794   6.146   2.178   7.149  0.4633  0.3992 -1.7085
   23MOL   H35126795   6.065   2.311   7.230 -0.5286 -1.1711 -0.3878
   23MOL   H35226796   6.258   2.407   7.332  0.2718 -0.0582 -0.7298
   23MOL   H35326797   6.369   2.298   7.251 -0.4533  0.9624 -1.8212
   23MOL   H35426798   6.171   2.211   7.463  0.2289  0.9081  0.2403
   23MOL   H35526799   6.226   2.099   7.345  2.3375  0.1984 -2.1067
   23MOL   H35626800   6.365   2.097   7.548 -1.4079  1.2163  2.4473
   23MOL   H35726801   6.458   2.146   7.416  1.8003 -0.8754  3.7051
   23MOL   H35826802   6.338   2.331   7.639 -0.9762 -0.9313 -0.7050
   23MOL   H35926803   6.409   2.394   7.499  3.1485 -0.7539 -1.0802
   23MOL   H36026804   6.618   2.286   7.569  3.3657 -1.6096  3.4200
   23MOL   H36126805   6.572   2.410   7.675  0.7723 -0.1649 -2.4289
   23MOL   O36226806   6.540   2.269   0.124 -0.1935  0.3427 -0.0731
   23MOL   C36326807   6.614   2.220   0.231  0.1838  0.3004  0.4296
   23MOL   C36426808   6.758   2.278   0.234  0.0911 -0.5026  0.0339
   23MOL   C36526809   6.835   2.223   0.354 -1.0525  0.6708  0.0575
   23MOL   C36626810   6.991   2.258   0.341  0.3041 -0.1948 -0.6193
   23MOL   C36726811   7.025   2.407   0.317 -0.4141 -0.3424  0.3388
   23MOL   C36826812   7.176   2.426   0.297 -0.7528  0.4064  0.2175
   23MOL   C36926813   7.214   2.577   0.286 -0.4308 -0.0975  0.0907
   23MOL   C37026814   7.347   2.614   0.211  0.3090  0.7481 -0.1266
   23MOL   C37126815   7.349   2.767   0.215 -0.3653 -0.3661  0.0175
   23MOL   C37226816   7.474   2.818   0.145 -0.3943  0.1779  0.1104
   23MOL   O37326817   7.458   2.831   0.002 -0.4353  0.2725 -0.5176
   23MOL   C37426818   7.406   2.944   7.711  0.0519 -0.8090  0.1531
   23MOL   O37526819   7.371   3.043   0.024  0.8791 -0.2104  0.1457
   23MOL   C37626820   7.378   2.935   7.565 -0.2903 -0.5359  0.1320
   23MOL   C37726821   7.235   2.881   7.542  0.1167  0.2169 -0.4559
   23MOL   C37826822   7.185   2.861   7.400 -0.4702  0.1992 -0.0612
   23MOL   C37926823   7.256   2.745   7.330 -0.5937 -0.0348 -1.1629
   23MOL   C38026824   7.232   2.727   7.176  0.1110 -0.2884 -0.0842
   23MOL   C38126825   7.212   2.860   7.092  0.2511  0.0937  0.8087
   23MOL   C38226826   7.343   2.935   7.061 -0.3367 -0.2248 -0.0968
   23MOL   C38326827   7.330   3.063   6.991 -0.3754 -0.4548  0.1730
   23MOL   C38426828   7.263   3.167   7.074 -0.7168 -0.2302  0.8897
   23MOL   O38526829   7.140   3.180   7.058 -0.4299 -0.4227  0.4103
   23MOL   H38626830   6.564   2.254   0.322 -0.9782 -1.9245  0.6445
   23MOL   H38726831   6.614   2.112   0.244  0.0948  0.1454 -0.7948
   23MOL   H38826832   6.814   2.235   0.151  0.9580 -1.1091  0.9205
   23MOL   H38926833   6.749   2.386   0.221 -2.4073 -0.6767  0.0841
   23MOL   H39026834   6.792   2.278   0.437  1.4047 -0.5488  2.2333
   23MOL   H39126835   6.818   2.116   0.363  0.2143  0.4129 -0.4789
   23MOL   H39226836   7.055   2.220   0.420 -0.8240 -1.9073 -0.4941
   23MOL   H39326837   7.034   2.200   0.259  1.0680 -0.3527 -0.1083
   23MOL   H39426838   6.991   2.468   0.400 -1.5233 -0.1073 -0.2921
   23MOL   H39526839   6.975   2.434   0.224  1.3173  4.1639  0.5719
   23MOL   H39626840   7.216   2.380   0.207  1.6576  4.0571 -0.6956
   23MOL   H39726841   7.234   2.386   0.381  1.1760 -0.7515 -1.6271
   23MOL   H39826842   7.212   2.616   0.387  1.5021 -1.2072  0.5833
   23MOL   H39926843   7.134   2.620   0.225 -0.7362 -1.8443 -0.7742
   23MOL   H40026844   7.346   2.593   0.104  3.6633 -0.4064  0.0129
   23MOL   H40126845   7.427   2.555   0.257 -1.7263 -1.7330  0.4207
   23MOL   H40226846   7.263   2.814   0.168 -1.6589 -2.6243  0.0714
   23MOL   H40326847   7.347   2.797   0.320 -1.4408  0.7879 -0.3154
   23MOL   H40426848   7.512   2.912   0.186  0.6778 -0.4900  0.6933
   23MOL   H40526849   7.552   2.747   0.173 -0.0683  1.3253  2.3002
   23MOL   H40626850   7.452   2.871   7.516 -1.6535 -0.0134 -2.7468
   23MOL   H40726851   7.402   3.018   7.498  2.3472 -0.0152  1.6589
   23MOL   H40826852   7.165   2.943   7.598 -2.2253 -1.5585 -1.3647
   23MOL   H40926853   7.243   2.778   7.578  0.6401  0.3896 -0.0696
   23MOL   H41026854   7.209   2.945   7.335  0.7732 -1.0236 -1.2037
   23MOL   H41126855   7.076   2.853   7.392 -0.3929 -2.7605  1.0745
   23MOL   H41226856   7.226   2.647   7.368  0.9385  0.7934  2.3790
   23MOL   H41326857   7.363   2.761   7.337 -0.7297  0.3841  0.0897
   23MOL   H41426858   7.301   2.658   7.128 -1.2114 -1.0902 -0.8591
   23MOL   H41526859   7.132   2.685   7.165 -0.5442  0.6640  1.8819
   23MOL   H41626860   7.170   2.828   6.996  0.6232  2.2710 -0.1316
   23MOL   H41726861   7.132   2.915   7.141  1.2983  0.6737  1.9024
   23MOL   H41826862   7.412   2.876   7.000 -0.4525  0.9350 -1.3724
   23MOL   H41926863   7.399   2.952   7.152  0.2335 -1.5947 -0.1693
   23MOL   H42026864   7.429   3.105   6.976  0.1860 -1.1235  1.9862
   23MOL   H42126865   7.287   3.043   6.892  0.5334 -1.0755 -0.1036
   23MOL   O42226866   7.348   3.222   7.172 -0.5495  0.1500  0.2973
   23MOL   C42326867   7.298   3.320   7.257  0.1133  0.1423 -0.3570
   23MOL   C42426868   7.364   3.295   7.397 -0.3366 -0.7565  0.1003
   23MOL   C42526869   7.337   3.406   7.489  0.9646  0.2794 -0.0937
   23MOL   C42626870   7.436   3.414   7.606 -0.8150 -0.5500  0.2681
   23MOL   C42726871   7.419   3.550   7.674 -0.0495  0.8578  0.3666
   23MOL   C42826872   7.526   3.594   0.014 -0.8843 -0.9687 -0.9934
   23MOL   C42926873   7.513   3.734   0.067  0.2699  0.2775 -0.0096
   23MOL   C43026874   7.631   3.780   0.159  0.0561 -0.0343 -0.1094
   23MOL   C43126875   7.607   3.922   0.209  0.0619  0.2272 -0.9905
   23MOL   C43226876   7.718   3.957   0.306  0.0387 -0.3882 -0.0426
   23MOL   O43326877   0.090   3.952   0.240  0.0644  0.4597  0.2153
   23MOL   C43426878   0.200   3.938   0.316  0.5631  0.2511  0.0956
   23MOL   O43526879   0.204   3.932   0.439 -0.1682  0.3165  0.5198
   23MOL   C43626880   0.325   3.942   0.228 -0.2905  0.5688  0.2388
   23MOL   C43726881   0.352   4.084   0.170  0.3501  0.1670 -0.6245
   23MOL   C43826882   0.473   4.160   0.229 -0.3884  0.2487 -0.5714
   23MOL   C43926883   0.515   4.282   0.151 -0.3324  1.3329  0.0250
   23MOL   C44026884   0.632   4.354   0.200  0.0507 -0.3581  0.3143
   23MOL   C44126885   0.768   4.284   0.189 -0.2685  0.0890  0.2623
   23MOL   C44226886   0.886   4.362   0.245  0.0525  0.4854 -0.0483
   23MOL   C44326887   1.017   4.303   0.197 -0.3382  0.0607 -0.2088
   23MOL   C44426888   1.049   4.167   0.254 -0.2425 -0.4603 -0.2966
   23MOL   O44526889   1.007   4.057   0.205 -0.3198 -0.2098 -0.4029
   23MOL   H44626890   7.345   3.406   7.211  0.7847 -0.2021 -0.3139
   23MOL   H44726891   7.189   3.328   7.267  0.4764  1.5528  2.7510
   23MOL   H44826892   7.336   3.198   7.439 -0.1540  1.0658  4.7687
   23MOL   H44926893   7.470   3.280   7.379 -0.2984  0.1509 -0.4637
   23MOL   H45026894   7.334   3.504   7.440  1.6307  0.6957  0.6801
   23MOL   H45126895   7.234   3.396   7.524  0.9583  2.1216  0.4972
   23MOL   H45226896   7.430   3.330   7.674 -0.9117 -0.3689  0.4823
   23MOL   H45326897   7.541   3.418   7.578 -0.0306  1.1439  3.2686
   23MOL   H45426898   7.324   3.551   7.728  0.9589  0.0537  2.2164
   23MOL   H45526899   7.405   3.626   7.597 -0.4399 -0.2737 -0.6991
   23MOL   H45626900   7.627   3.582   7.731  0.1846 -0.8338  1.5568
   23MOL   H45726901   7.514   3.531   0.102  0.1665 -1.0271 -0.8813
   23MOL   H45826902   7.419   3.751   0.118  0.2996  1.4133 -0.3286
   23MOL   H45926903   7.515   3.795   7.733  2.7206 -1.9402 -1.5372
   23MOL   H46026904   7.726   3.779   0.104 -0.3478 -0.5870 -0.7980
   23MOL   H46126905   7.637   3.717   0.248  2.9264  1.2933  0.7190
   23MOL   H46226906   7.599   3.997   0.131  0.3230 -0.3060 -1.5243
   23MOL   H46326907   7.507   3.924   0.254 -0.2931 -0.5011 -1.7409
   23MOL   H46426908   7.701   4.057   0.347  0.0352 -0.9349  1.3227
   23MOL   H46526909   7.726   3.882   0.385  2.2805  0.8226  0.9347
   23MOL   H46626910   0.314   3.881   0.139  0.6630  1.9432 -0.8356
   23MOL   H46726911   0.412   3.898   0.276  0.9828  0.1336 -2.4245
   23MOL   H46826912   0.269   4.153   0.158 -1.5356 -2.6413 -4.3283
   23MOL   H46926913   0.388   4.069   0.068  1.0277 -2.8066  0.0079
   23MOL   H47026914   0.556   4.090   0.229 -0.0023  0.6807 -2.5620
   23MOL   H47126915   0.451   4.191   0.331  2.2144 -0.0099  0.0991
   23MOL   H47226916   0.426   4.344   0.161  0.5819  2.5901  0.4436
   23MOL   H47326917   0.529   4.250   0.048  1.2619  0.0067  0.6409
   23MOL   H47426918   0.645   4.451   0.153  0.8155  0.9317  3.0884
   23MOL   H47526919   0.599   4.377   0.301 -2.1526 -1.2090 -0.1737
   23MOL   H47626920   0.762   4.190   0.244 -1.4395 -0.7806 -1.3064
   23MOL   H47726921   0.779   4.248   0.087 -0.0620 -2.7009  1.2223
   23MOL   H47826922   0.884   4.364   0.354  2.8618  1.2384  0.0295
   23MOL   H47926923   0.874   4.469   0.228 -0.1214  0.1228 -2.2365
   23MOL   H48026924   1.015   4.300   0.088  2.3081 -2.4018 -0.2351
   23MOL   H48126925   1.102   4.365   0.223  0.2947  0.2164 -2.5282
   23MOL   O48226926   1.128   4.182   0.364  0.1952  0.3884  0.1123
   23MOL   C48326927   1.170   4.064   0.431 -0.0129 -0.2992  0.2513
   23MOL   C48426928   1.313   4.073   0.480  0.4359 -0.3359  0.0817
   23MOL   C48526929   1.347   3.953   0.569  0.4961  0.7858  0.1778
   23MOL   C48626930   1.490   3.957   0.628 -0.0743 -0.3759  0.1984
   23MOL   C48726931   1.533   3.835   0.718 -0.9322 -0.1577  0.1897
   23MOL   C48826932   1.529   3.708   0.647 -0.3822 -0.2299  1.0850
   23MOL   C48926933   1.618   3.698   0.525  0.5162  0.4198 -0.7399
   23MOL   C49026934   1.592   3.574   0.443  0.2451 -0.5667 -0.5610
   23MOL   C49126935   1.465   3.582   0.356  0.1875 -0.0891  0.5496
   23MOL   C49226936   1.478   3.692   0.240  0.0691 -0.4858  0.5260
   23MOL   O49326937   1.361   3.679   0.163 -0.3881 -0.1402 -0.2683
   23MOL   C49426938   1.289   3.790   0.139  0.1121 -0.2497  0.2403
   23MOL   O49526939   1.322   3.902   0.184  0.0679  0.4138 -0.2018
   23MOL   C49626940   1.154   3.766   0.069 -0.3936  0.2566  0.0827
   23MOL   C49726941   1.070   3.654   0.125 -0.7410 -1.6584  0.5924
   23MOL   C49826942   0.988   3.688   0.257 -0.1151 -0.3900 -0.3419
   23MOL   C49926943   1.053   3.640   0.385 -0.4052 -0.1321 -0.0386
   23MOL   C50026944   0.958   3.663   0.501 -0.1015  0.1142  0.5482
   23MOL   C50126945   1.031   3.639   0.638 -0.7767  0.2740  0.7022
   23MOL   C50226946   0.952   3.692   0.760 -0.4488  0.1632  0.3083
   23MOL   C50326947   1.016   3.665   0.899 -1.2657  0.3039 -0.0075
   23MOL   C50426948   1.140   3.762   0.931 -0.1340 -0.5466 -0.2392
   23MOL   O50526949   1.189   3.839   0.843  0.6393 -0.3646 -0.1282
   23MOL   H50626950   1.104   4.040   0.514 -3.2877  1.5961 -1.6835
   23MOL   H50726951   1.168   3.979   0.362  0.7232 -0.2415  0.1560
   23MOL   H50826952   1.382   4.067   0.396  0.4676  3.0724 -0.2133
   23MOL   H50926953   1.336   4.161   0.540  1.0415 -0.2317 -0.2933
   23MOL   H51026954   1.269   3.946   0.645 -1.4496  0.8450 -1.7666
   23MOL   H51126955   1.335   3.859   0.515 -0.8499  0.4996  0.9600
   23MOL   H51226956   1.567   3.992   0.560 -1.3595 -1.4321 -1.8717
   23MOL   H51326957   1.494   4.040   0.698 -0.9271 -2.1379  2.3885
   23MOL   H51426958   1.470   3.826   0.807 -0.8343 -3.0063  0.0194
   23MOL   H51526959   1.635   3.851   0.753 -0.9073 -3.2960  1.7743
   23MOL   H51626960   1.431   3.701   0.600 -1.0855 -0.8063  2.6127
   23MOL   H51726961   1.556   3.618   0.702  1.9899 -0.8014 -0.8711
   23MOL   H51826962   1.721   3.694   0.558  1.1287 -1.1898 -2.7612
   23MOL   H51926963   1.612   3.793   0.471 -1.4991  1.0033  0.4362
   23MOL   H52026964   1.584   3.475   0.487  0.3218 -0.6879 -0.8153
   23MOL   H52126965   1.674   3.565   0.372 -0.0125  0.6238 -1.0354
   23MOL   H52226966   1.441   3.486   0.311  0.5300  0.6619 -1.2832
   23MOL   H52326967   1.380   3.604   0.421 -2.8786 -0.5157 -3.1687
   23MOL   H52426968   1.494   3.785   0.294 -3.0865  0.1027  0.4991
   23MOL   H52526969   1.568   3.663   0.185  1.6602  0.9948  2.2442
   23MOL   H52626970   1.176   3.749   7.720 -2.7347  0.0873 -0.4017
   23MOL   H52726971   1.097   3.858   0.054 -2.4194 -0.8646  0.7190
   23MOL   H52826972   1.122   3.560   0.142  3.5008  0.0235 -2.2361
   23MOL   H52926973   0.996   3.635   0.047  1.0864 -0.4270 -1.4740
   23MOL   H53026974   0.888   3.646   0.242 -0.3920  0.3138 -0.4755
   23MOL   H53126975   0.977   3.796   0.265 -2.2257 -0.6383  0.3657
   23MOL   H53226976   1.141   3.702   0.401  1.1538 -2.3859  0.5329
   23MOL   H53326977   1.086   3.536   0.383  1.8897  0.5120  1.7344
   23MOL   H53426978   0.912   3.762   0.498 -0.8852 -0.2136  1.3869
   23MOL   H53526979   0.870   3.601   0.481  0.0408  0.2853 -0.6721
   23MOL   H53626980   1.034   3.530   0.643 -0.0647  0.3500  1.8725
   23MOL   H53726981   1.133   3.677   0.641 -0.7474  0.6053 -2.5171
   23MOL   H53826982   0.854   3.645   0.760  0.5855 -2.0617 -0.9310
   23MOL   H53926983   0.932   3.799   0.748 -2.4741 -0.2403 -0.0197
   23MOL   H54026984   0.945   3.681   0.980 -2.1690 -0.2961 -0.6673
   23MOL   H54126985   1.055   3.564   0.894  1.2233  1.2875 -1.5524
   23MOL   O54226986   1.170   3.764   1.060  0.4578  0.0151  0.6632
   23MOL   C54326987   1.288   3.843   1.100  0.2013  0.3995  0.0130
   23MOL   C54426988   1.288   3.848   1.257  0.4515  0.7073  0.7001
   23MOL   C54526989   1.422   3.901   1.314  0.5515 -0.7410 -0.3186
   23MOL   C54626990   1.424   3.911   1.467  0.8125  0.1724 -0.5907
   23MOL   C54726991   1.566   3.921   1.523 -0.1406 -0.1453  0.3992
   23MOL   C54826992   1.586   3.982   1.666  0.1936 -0.0403  0.0053
   23MOL   C54926993   1.516   3.893   1.770  0.1137  0.6468  0.5594
   23MOL   C55026994   1.558   3.749   1.775  0.6473 -0.1443  0.1044
   23MOL   C55126995   1.488   3.657   1.873 -0.0857  0.2617  0.0068
   23MOL   C55226996   1.506   3.512   1.836  0.4850  0.2912 -0.4969
   23MOL   O55326997   1.447   3.475   1.713 -0.9361  0.4148  0.1944
   23MOL   C55426998   1.516   3.440   1.612 -0.2340 -0.5129  0.1468
   23MOL   O55526999   1.635   3.455   1.604  0.1877  0.0660  0.0806
   23MOL   C55627000   1.426   3.395   1.494 -0.7406  0.4279  0.1384
   23MOL   C55727001   1.375   3.512   1.417 -0.0159  0.1824  0.5073
   23MOL   C55827002   1.276   3.459   1.306 -0.7347 -0.2909  0.1967
   23MOL   C55927003   1.351   3.413   1.179  0.2251  0.0991  0.1028
   23MOL   C56027004   1.255   3.397   1.058 -0.4294  0.1783  0.6572
   23MOL   C56127005   1.335   3.365   0.937  0.6267 -0.7177 -0.1518
   23MOL   C56227006   1.256   3.317   0.817  0.8268  0.1758 -0.6914
   23MOL   C56327007   1.305   3.391   0.685  0.1514 -0.3416  0.1932
   23MOL   C56427008   1.277   3.294   0.570  1.0990 -0.6012 -0.1316
   23MOL   O56527009   1.367   3.229   0.515 -0.0994 -0.7973  0.3016
   23MOL   H56627010   1.380   3.799   1.062 -1.4921 -2.0932 -1.3976
   23MOL   H56727011   1.291   3.940   1.052 -2.5414 -0.6446 -2.4664
   23MOL   H56827012   1.213   3.916   1.297  0.9026  1.3147  0.5246
   23MOL   H56927013   1.268   3.749   1.300 -0.0486  0.8625  0.8294
   23MOL   H57027014   1.503   3.835   1.283 -0.1283 -1.3712 -0.7943
   23MOL   H57127015   1.451   3.994   1.265 -0.8682 -0.1589 -0.0877
   23MOL   H57227016   1.364   4.000   1.484  1.9518  1.1915 -1.7899
   23MOL   H57327017   1.373   3.820   1.499 -0.0397  0.7548 -0.2694
   23MOL   H57427018   1.618   4.004   1.475 -2.8136  0.2750 -1.8834
   23MOL   H57527019   1.621   3.828   1.507  0.1219 -0.2126  1.6087
   23MOL   H57627020   1.549   4.084   1.678 -0.2669 -0.2482  0.3482
   23MOL   H57727021   1.692   3.997   1.686  0.0007  0.8565  0.3990
   23MOL   H57827022   1.409   3.898   1.749  0.0530 -1.7989  0.1860
   23MOL   H57927023   1.525   3.935   1.870  1.8471 -1.4887  1.3106
   23MOL   H58027024   1.666   3.749   1.792  0.7456  0.3254 -0.5068
   23MOL   H58127025   1.539   3.711   1.675  2.6250  0.0496 -0.3548
   23MOL   H58227026   1.503   3.662   1.981  1.9663 -4.6410  0.0503
   23MOL   H58327027   1.383   3.687   1.862 -0.2617 -0.5400 -0.5607
   23MOL   H58427028   1.612   3.490   1.830  0.7769  1.6682 -0.5108
   23MOL   H58527029   1.460   3.445   1.908  1.4280  1.2994  1.0826
   23MOL   H58627030   1.343   3.334   1.530  1.5704 -3.5585 -0.8893
   23MOL   H58727031   1.476   3.322   1.430  0.4973  2.2405 -0.9906
   23MOL   H58827032   1.455   3.563   1.365 -0.4036 -0.2133 -0.4983
   23MOL   H58927033   1.319   3.575   1.486 -0.4051  1.5800 -1.0623
   23MOL   H59027034   1.199   3.536   1.298 -0.0163  0.8888  3.8510
   23MOL   H59127035   1.230   3.366   1.341 -4.0281  1.1087 -0.2534
   23MOL   H59227036   1.409   3.322   1.196  0.2309 -0.3241 -2.1279
   23MOL   H59327037   1.423   3.492   1.161  0.4015 -0.1786 -0.3974
   23MOL   H59427038   1.191   3.310   1.076  0.2628 -0.2770  0.9798
   23MOL   H59527039   1.193   3.483   1.037 -0.7047  0.1014  1.1390
   23MOL   H59627040   1.385   3.458   0.912 -0.7803 -0.2532 -1.2689
   23MOL   H59727041   1.421   3.298   0.937  0.9382 -0.3283 -2.0827
   23MOL   H59827042   1.150   3.340   0.832  0.4296 -1.0707 -1.4580
   23MOL   H59927043   1.262   3.209   0.801  0.1101  0.1112 -0.5330
   23MOL   H60027044   1.241   3.479   0.682 -0.1862 -0.5912  0.0547
   23MOL   H60127045   1.413   3.404   0.699  0.0750  0.1796  0.3200
   23MOL   O60227046   1.147   3.288   0.533  0.2344  0.2328  0.1615
   23MOL   C60327047   1.090   3.183   0.446 -0.2134  0.4440  0.4575
   23MOL   C60427048   0.963   3.241   0.384  0.7476 -0.1101 -0.0010
   23MOL   C60527049   0.897   3.155   0.267  0.2521 -0.8576  0.1880
   23MOL   C60627050   0.785   3.225   0.200  0.5555 -0.1666 -0.5314
   23MOL   C60727051   0.821   3.325   0.090  0.4440  0.3872 -0.0880
   23MOL   C60827052   0.691   3.393   0.041 -0.3454  0.2323 -0.2086
   23MOL   C60927053   0.728   3.510   7.692  0.1249 -0.0067 -0.0556
   23MOL   C61027054   0.776   3.452   7.559 -0.3724 -0.3963  0.1800
   23MOL   C61127055   0.825   3.562   7.450  0.4574 -0.2648 -0.6011
   23MOL   C61227056   0.896   3.489   7.333  0.2838 -0.3890 -0.4462
   23MOL   O61327057   0.800   3.421   7.256  0.0984  0.3390 -0.3536
   23MOL   C61427058   0.832   3.382   7.133  0.5748  0.5456 -0.4457
   23MOL   O61527059   0.928   3.421   7.063  0.1805  0.0002  0.3636
   23MOL   C61627060   0.731   3.281   7.078  0.7041  0.0370  0.2811
   23MOL   C61727061   0.717   3.151   7.154  0.2517 -0.0941  0.3495
   23MOL   C61827062   0.838   3.058   7.174  0.1093 -0.3914 -0.3740
   23MOL   C61927063   0.792   2.917   7.214 -0.1849 -0.0996 -0.0603
   23MOL   C62027064   0.772   2.810   7.097 -0.4878 -0.4463  0.6110
   23MOL   C62127065   0.681   2.688   7.124  0.1298  0.2947 -0.4040
   23MOL   C62227066   0.710   2.615   7.258 -0.2261 -0.1319 -0.5237
   23MOL   C62327067   0.656   2.473   7.256  0.7608 -0.0076 -0.1225
   23MOL   C62427068   0.693   2.391   7.381  0.6185  0.5097 -0.2061
   23MOL   O62527069   0.610   2.328   7.447  0.7141  0.0708  0.1684
   23MOL   H62627070   1.154   3.147   0.366 -1.3994 -1.8513  0.4931
   23MOL   H62727071   1.063   3.101   0.512 -1.4182  1.9347  1.8436
   23MOL   H62827072   0.891   3.263   0.463  1.5087  0.0346  0.6537
   23MOL   H62927073   0.970   3.345   0.353  0.7367  0.1360  0.8189
   23MOL   H63027074   0.968   3.138   0.186 -0.1665  1.0297 -0.6168
   23MOL   H63127075   0.861   3.061   0.308 -1.4820  0.3769  1.6008
   23MOL   H63227076   0.727   3.138   0.168 -1.0224  0.9199 -0.6738
   23MOL   H63327077   0.725   3.284   0.269 -0.5190  1.8087 -3.1034
   23MOL   H63427078   0.867   3.288   7.756  2.3048  1.0237  0.5864
   23MOL   H63527079   0.886   3.402   0.131  0.2651  0.3597  0.2557
   23MOL   H63627080   0.636   3.440   0.122 -0.7601  1.7719 -1.3543
   23MOL   H63727081   0.626   3.313   0.006 -1.1389  0.1336  1.4739
   23MOL   H63827082   0.799   3.584   7.729 -2.0646  1.8880  0.4357
   23MOL   H63927083   0.633   3.562   7.687  1.7334  3.2458  1.6693
   23MOL   H64027084   0.707   3.375   7.523 -0.2710 -0.8457  0.9323
   23MOL   H64127085   0.865   3.394   7.580  0.9986  1.7103  0.3643
   23MOL   H64227086   0.736   3.607   7.407  0.6730 -1.1858 -2.0548
   23MOL   H64327087   0.889   3.639   7.493 -1.1004  0.4236  0.5078
   23MOL   H64427088   0.946   3.565   7.274  3.0598 -2.9478 -1.5382
   23MOL   H64527089   0.974   3.430   7.381  1.3344  1.4395  0.1601
   23MOL   H64627090   0.756   3.256   6.975  0.3523 -1.0113  0.4484
   23MOL   H64727091   0.638   3.337   7.074  1.0633  0.7079  1.1707
   23MOL   H64827092   0.632   3.100   7.109 -0.4450  0.1421  1.3559
   23MOL   H64927093   0.677   3.170   7.254 -1.7603 -0.2702 -0.3978
   23MOL   H65027094   0.899   3.096   7.256  0.4451 -0.7688 -0.4471
   23MOL   H65127095   0.907   3.055   7.089 -0.8757  1.7478 -1.2773
   23MOL   H65227096   0.701   2.929   7.272 -0.3175 -0.6821 -0.1446
   23MOL   H65327097   0.853   2.879   7.296  0.1097  2.3782  0.9177
   23MOL   H65427098   0.725   2.846   7.005  1.0006  0.2044  0.0752
   23MOL   H65527099   0.870   2.766   7.077 -2.3839 -3.3032 -2.8683
   23MOL   H65627100   0.573   2.705   7.120 -0.3753 -2.6382 -0.0448
   23MOL   H65727101   0.692   2.620   7.040 -1.2105  2.4079 -2.3422
   23MOL   H65827102   0.653   2.656   7.341  0.5223 -3.7142  1.8784
   23MOL   H65927103   0.818   2.601   7.271 -0.6928 -1.2273  2.8683
   23MOL   H66027104   0.547   2.465   7.259  0.8038 -1.6857 -1.7740
   23MOL   H66127105   0.689   2.419   7.167 -0.3839 -0.7333 -0.1129
   23MOL   O66227106   0.821   2.411   7.423 -0.3679 -0.2073 -0.1310
   23MOL   C66327107   0.861   2.336   7.539 -0.5660 -0.1516 -0.4206
   23MOL   C66427108   1.009   2.368   7.566  0.6234 -0.7768 -0.3950
   23MOL   C66527109   1.068   2.312   7.700 -0.1928 -0.1076 -0.3336
   23MOL   C66627110   1.208   2.366   7.729  0.6315  0.1758  0.2390
   23MOL   C66727111   1.297   2.280   0.069 -0.0664 -0.8473  0.3658
   23MOL   C66827112   1.442   2.319   0.103  0.8307 -0.4369  0.1304
   23MOL   C66927113   1.500   2.399   7.740  0.3402  0.8950 -0.2784
   23MOL   C67027114   1.657   2.438   7.754  0.4135 -0.5642 -0.6913
   23MOL   C67127115   1.691   2.559   7.671 -0.1941 -0.4256 -0.2386
   23MOL   C67227116   1.842   2.585   7.670 -0.3682  0.5001  0.4172
   23MOL   O67327117   1.896   2.655   0.022 -0.2779  0.3001  0.3230
   23MOL   C67427118   2.014   2.633   0.073  0.4498 -0.3191 -0.3741
   23MOL   O67527119   2.088   2.541   0.041 -0.2685 -0.5747  0.1048
   23MOL   C67627120   2.055   2.730   0.186  0.0949 -0.0609  0.2275
   23MOL   C67727121   1.992   2.684   0.324  0.2954  0.1603 -0.2093
   23MOL   C67827122   1.847   2.636   0.333  1.1900  0.0553  0.0064
   23MOL   C67927123   1.733   2.734   0.292  0.2437 -0.2679 -0.6996
   23MOL   C68027124   1.599   2.703   0.351  0.1431  0.6441  0.1175
   23MOL   C68127125   1.481   2.792   0.320 -0.2121 -0.3752  0.0688
   23MOL   C68227126   1.408   2.776   0.188 -0.1252 -0.9201  0.1270
   23MOL   C68327127   1.273   2.855   0.181  0.1657 -0.0640 -0.1712
   23MOL   C68427128   1.167   2.782   0.268  0.4228 -0.1757  0.6422
   23MOL   O68527129   1.157   2.812   0.381 -0.2981 -0.4497 -0.3054
   23MOL   H68627130   0.817   2.383   7.627 -0.3736  1.9579 -1.4220
   23MOL   H68727131   0.848   2.228   7.543  0.1144 -0.2630 -0.9944
   23MOL   H68827132   1.076   2.329   7.489  1.0739 -0.3078 -0.2489
   23MOL   H68927133   1.030   2.475   7.565 -0.3701 -0.5786 -0.3357
   23MOL   H69027134   1.004   2.335   0.029  0.0841  1.1041 -0.4461
   23MOL   H69127135   1.075   2.203   7.692  0.1889  0.0030 -1.6912
   23MOL   H69227136   1.257   2.360   7.631  2.3211 -0.3737  1.1002
   23MOL   H69327137   1.194   2.469   0.004 -1.3687 -0.0166  0.0190
   23MOL   H69427138   1.309   2.183   0.021  1.1329 -0.3462 -0.3786
   23MOL   H69527139   1.242   2.249   0.158  0.4175 -2.5430  0.0835
   23MOL   H69627140   1.491   2.227   0.135 -1.0742 -0.9099  1.8037
   23MOL   H69727141   1.441   2.393   0.183 -1.1454  0.4296 -0.6602
   23MOL   H69827142   1.444   2.493   7.740 -0.0281  0.6797 -0.7589
   23MOL   H69927143   1.482   2.355   7.641  1.6288 -0.7869  0.2091
   23MOL   H70027144   1.714   2.348   7.729  1.9119 -0.0072  0.6365
   23MOL   H70127145   1.672   2.460   0.103 -1.3543 -0.0867 -0.5236
   23MOL   H70227146   1.650   2.536   7.573 -1.8530  0.8709  0.1236
   23MOL   H70327147   1.657   2.659   7.697 -0.6511 -0.8282  0.7569
   23MOL   H70427148   1.892   2.488   7.662  1.2016  1.5009 -2.8699
   23MOL   H70527149   1.877   2.627   7.575  2.0463 -2.5425 -0.1439
   23MOL   H70627150   2.021   2.832   0.167  1.8868  0.5180  0.0373
   23MOL   H70727151   2.164   2.730   0.188  0.1103  0.4256 -0.4433
   23MOL   H70827152   1.991   2.765   0.396  0.5419  0.6123 -0.7156
   23MOL   H70927153   2.048   2.602   0.368 -1.7559 -0.7649  0.7300
   23MOL   H71027154   1.821   2.602   0.433  1.2737 -0.9542 -0.3102
   23MOL   H71127155   1.829   2.543   0.278 -0.9580 -0.1983  1.0516
   23MOL   H71227156   1.727   2.736   0.183  0.9946  0.4209 -0.7305
   23MOL   H71327157   1.762   2.836   0.315  0.8653 -0.9964  1.8981
   23MOL   H71427158   1.570   2.600   0.327 -1.2491  1.0908 -0.1762
   23MOL   H71527159   1.622   2.693   0.457  0.2269  1.7153  0.2014
   23MOL   H71627160   1.412   2.775   0.402 -0.8540 -2.3042 -0.8417
   23MOL   H71727161   1.513   2.895   0.338  0.4956 -0.4307 -0.8553
   23MOL   H71827162   1.394   2.669   0.169 -1.2761 -0.8870  0.7280
   23MOL   H71927163   1.476   2.797   0.106  1.6423 -2.4980  1.1458
   23MOL   H72027164   1.285   2.959   0.212 -0.7163 -0.0171  0.0293
   23MOL   H72127165   1.231   2.847   0.080  0.9891  0.5649 -0.5675
   23MOL   O72227166   1.104   2.684   0.199  0.1054  0.3708 -0.1340
   23MOL   C72327167   1.006   2.596   0.259  0.2855 -0.3929 -0.5163
   23MOL   C72427168   0.864   2.659   0.233  0.4468  0.3564 -0.2132
   23MOL   C72527169   0.811   2.627   0.096 -0.0180 -0.2604  0.0176
   23MOL   C72627170   0.706   2.728   0.057 -0.4288 -0.4742 -1.0835
   23MOL   C72727171   0.667   2.718   7.664  0.0312 -0.2516  0.3763
   23MOL   C72827172   0.533   2.783   7.629 -0.2784 -0.1017  0.3788
   23MOL   C72927173   0.537   2.941   7.619  0.2966 -0.2180  0.8279
   23MOL   C73027174   0.410   3.002   7.555 -0.4225 -0.1151 -0.5780
   23MOL   C73127175   0.407   3.156   7.568  0.0484 -0.1662 -0.5115
   23MOL   C73227176   0.289   3.213   7.485  0.0783 -0.2469 -0.0502
   23MOL   O73327177   0.287   3.354   7.514  0.4128  0.3801 -0.1978
   23MOL   C73427178   0.335   3.447   7.416 -0.0825  0.0243 -0.1150
   23MOL   O73527179   0.397   3.414   7.316  0.1232  0.6684 -0.3405
   23MOL   C73627180   0.305   3.592   7.449  0.5934 -0.3686 -0.0797
   23MOL   C73727181   0.230   3.622   7.587  0.0577 -0.5351  0.4804
   23MOL   C73827182   0.225   3.765   7.628  0.0590  0.3680  0.7639
   23MOL   C73927183   0.134   3.846   7.525 -0.9638  0.2878 -0.1229
   23MOL   C74027184   0.104   3.981   7.589  0.1259  0.2827  0.2560
   23MOL   C74127185   0.000   4.067   7.519  0.8673 -0.3447 -0.5660
   23MOL   C74227186   7.610   4.014   7.514  0.2252 -0.7769 -0.0450
   23MOL   C74327187   7.504   4.120   7.472 -0.0662 -0.3591  0.0822
   23MOL   C74427188   7.356   4.082   7.496 -0.8659  0.2697  0.6936
   23MOL   O74527189   7.265   4.157   7.463  0.1097  0.3163 -0.5135
   23MOL   H74627190   1.019   2.503   0.203  0.1475 -0.1453 -0.9657
   23MOL   H74727191   1.040   2.579   0.361 -0.9134  1.9063  0.2986
   23MOL   H74827192   0.799   2.643   0.320  0.1916 -0.1301 -0.4906
   23MOL   H74927193   0.866   2.767   0.244 -2.3034  0.2609  1.8368
   23MOL   H75027194   0.893   2.618   0.025 -1.7513  1.3403 -2.2650
   23MOL   H75127195   0.776   2.524   0.094  0.7561 -0.5997  2.4400
   23MOL   H75227196   0.612   2.718   0.111 -0.4474 -0.7360 -1.1613
   23MOL   H75327197   0.736   2.830   0.078 -3.0179  0.5573 -2.1570
   23MOL   H75427198   0.657   2.611   7.644  0.7628  0.1235 -2.0843
   23MOL   H75527199   0.757   2.742   7.608 -0.0800 -1.1205 -0.1841
   23MOL   H75627200   0.459   2.751   7.702  1.5110 -1.3155  1.6795
   23MOL   H75727201   0.508   2.743   7.531 -1.1432  0.7859  0.2294
   23MOL   H75827202   0.623   2.968   7.558 -1.9303  2.5105 -1.2062
   23MOL   H75927203   0.549   2.978   7.721 -0.3917  1.0207  0.4597
   23MOL   H76027204   0.317   2.969   7.601  0.5533  0.5092  1.9214
   23MOL   H76127205   0.409   2.974   7.449  1.4342 -0.0478 -0.6399
   23MOL   H76227206   0.390   3.187   7.671  0.3591 -3.0630  0.4382
   23MOL   H76327207   0.500   3.192   7.523 -0.3247  1.0687 -0.3153
   23MOL   H76427208   0.305   3.186   7.380 -0.6358  0.7308 -0.4262
   23MOL   H76527209   0.196   3.164   7.513 -0.9738 -0.4453 -3.5900
   23MOL   H76627210   0.244   3.630   7.368  0.0021 -2.8573 -0.8397
   23MOL   H76727211   0.401   3.645   7.452 -0.0043  0.8493 -1.8250
   23MOL   H76827212   0.277   3.575   7.673 -0.1686 -1.1838  0.2570
   23MOL   H76927213   0.133   3.573   7.593 -1.9439  2.9172 -1.6943
   23MOL   H77027214   0.323   3.812   7.622 -0.1166  0.4116 -2.3761
   23MOL   H77127215   0.182   3.778   7.727  0.9223 -0.0423  1.1930
   23MOL   H77227216   0.057   3.770   7.518 -0.2287 -0.3990 -1.0475
   23MOL   H77327217   0.187   3.854   7.429 -1.1030 -1.2194 -0.3272
   23MOL   H77427218   0.077   3.962   7.693 -1.5646  0.3914 -0.1490
   23MOL   H77527219   0.199   4.035   7.591  1.0131 -1.1335 -1.5969
   23MOL   H77627220   7.755   4.156   7.582 -0.9811 -0.9792  0.3214
   23MOL   H77727221   0.037   4.084   7.418  0.7975  0.6834 -0.4199
   23MOL   H77827222   7.585   3.967   7.608  0.8716 -3.6093 -1.2390
   23MOL   H77927223   7.594   3.939   7.437 -0.6871 -0.3771 -0.2508
   23MOL   H78027224   7.521   4.216   7.521  1.0244 -1.1017  1.2142
   23MOL   H78127225   7.518   4.135   7.365  2.2871 -2.2202  0.0678
   23MOL   O78227226   7.335   3.967   7.570  0.0129  0.4262  0.8278
   23MOL   C78327227   7.196   3.940   7.605 -0.4744 -0.1120 -0.3805
   23MOL   C78427228   7.168   3.925   0.002 -0.4401 -0.0143  0.1966
   23MOL   C78527229   7.243   4.030   0.082  0.0148 -0.3078 -0.6683
   23MOL   C78627230   7.198   4.025   0.226  0.6248 -0.7135  0.0642
   23MOL   C78727231   7.281   4.117   0.313 -0.4271 -0.5233  0.3043
   23MOL   C78827232   7.239   4.263   0.299 -0.2016 -0.2039 -0.2043
   23MOL   C78927233   7.327   4.367   0.378  0.2365  0.1157  0.0784
   23MOL   C79027234   7.321   4.355   0.534  0.1630  0.2950 -0.1419
   23MOL   C79127235   7.415   4.453   0.608  0.0675  0.1996 -0.1253
   23MOL   C79227236   7.410   4.470   0.758 -0.3635  0.4885  0.0765
   23MOL   O79327237   7.433   4.344   0.824  0.0383 -0.4213 -0.4199
   23MOL   C79427238   7.552   4.310   0.860  0.0270 -0.2568 -0.3825
   23MOL   O79527239   7.652   4.384   0.851 -0.0755 -0.1444  0.1697
   23MOL   C79627240   7.572   4.163   0.916  0.1511 -0.4898 -0.3167
   23MOL   C79727241   7.531   4.057   0.820 -0.0616  0.0165 -0.3638
   23MOL   C79827242   7.630   4.039   0.702  0.0058 -0.4675 -0.5118
   23MOL   C79927243   7.634   3.899   0.650  0.0086 -0.2319  0.0208
   23MOL   C80027244   7.499   3.844   0.587 -0.2068 -0.2608 -0.5674
   23MOL   C80127245   7.518   3.701   0.523  0.2372  0.4569  0.2384
   23MOL   C80227246   7.395   3.654   0.450  0.4899 -0.4634  0.0514
   23MOL   C80327247   7.409   3.517   0.384 -0.4285  0.1277 -0.0166
   23MOL   C80427248   7.292   3.482   0.285 -0.0454  0.4047  0.0475
   23MOL   O80527249   7.226   3.578   0.238  0.2248  0.0655 -0.3748
   23MOL   H80627250   7.133   4.023   7.572  1.3709  0.7726 -1.7035
   23MOL   H80727251   7.146   3.856   7.557 -0.6897 -0.4818  0.4730
   23MOL   H80827252   7.062   3.909   0.021  0.0019 -2.0558  1.1385
   23MOL   H80927253   7.209   3.827   0.029  3.3035  1.3860 -0.1507
   23MOL   H81027254   7.350   4.014   0.070  0.1959  1.4327 -1.5365
   23MOL   H81127255   7.217   4.130   0.047 -1.5716 -0.6427 -0.4903
   23MOL   H81227256   7.092   4.051   0.236  0.5920 -1.5546  1.9743
   23MOL   H81327257   7.208   3.922   0.259  0.8919 -1.1245 -1.2614
   23MOL   H81427258   7.383   4.116   0.275  0.1934  2.0219  1.8267
   23MOL   H81527259   7.283   4.089   0.418  3.7656 -0.3922  0.3515
   23MOL   H81627260   7.145   4.289   0.347  1.0014  2.1302  0.9172
   23MOL   H81727261   7.216   4.289   0.196 -0.5977  1.0792  0.2093
   23MOL   H81827262   7.282   4.464   0.354 -0.2196 -0.3366 -0.9217
   23MOL   H81927263   7.425   4.376   0.333  0.3300  0.6353  0.3852
   23MOL   H82027264   7.335   4.255   0.574 -0.2119 -0.0726 -0.9084
   23MOL   H82127265   7.222   4.385   0.569 -0.1421 -1.2919  0.3780
   23MOL   H82227266   7.515   4.420   0.580  0.2224 -0.0700  0.7290
   23MOL   H82327267   7.411   4.552   0.563  0.0905 -0.0272 -0.6272
   23MOL   H82427268   7.476   4.550   0.791 -2.0453  1.9275  0.0669
   23MOL   H82527269   7.309   4.500   0.787 -0.0305 -0.4193  2.2409
   23MOL   H82627270   7.497   4.151   0.994  0.4577  0.4814  0.1399
   23MOL   H82727271   7.675   4.142   0.946 -1.5291 -3.5842  3.7836
   23MOL   H82827272   7.429   4.075   0.788  0.2212 -0.0864 -1.3317
   23MOL   H82927273   7.530   3.959   0.868 -1.2870 -1.0454 -2.5144
   23MOL   H83027274   7.730   4.052   0.743 -0.7960  0.1666  1.3146
   23MOL   H83127275   7.614   4.116   0.627  1.3368  0.2169 -0.1051
   23MOL   H83227276   7.662   3.845   0.740  0.5258  0.1678  0.1008
   23MOL   H83327277   7.711   3.881   0.575  0.1666 -0.6808  0.2891
   23MOL   H83427278   7.413   3.844   0.655 -0.5514 -3.1676 -0.9016
   23MOL   H83527279   7.467   3.912   0.508  1.7638 -0.8655 -1.9127
   23MOL   H83627280   7.606   3.710   0.459 -0.2863 -0.9246 -0.6819
   23MOL   H83727281   7.551   3.626   0.596  1.0764 -1.4150 -2.0204
   23MOL   H83827282   7.391   3.715   0.360  0.1249  1.5367  1.3971
   23MOL   H83927283   7.298   3.662   0.500  1.3462 -0.6905  1.7801
   23MOL   H84027284   7.503   3.525   0.328 -0.5696 -2.0273 -0.6140
   23MOL   H84127285   7.413   3.451   0.471  0.3884  1.8188  1.2483
   23MOL   O84227286   7.284   3.353   0.260 -0.0608  0.0548  0.3094
   23MOL   C84327287   7.196   3.305   0.167  0.2808 -0.5413 -0.1722
   23MOL   C84427288   7.074   3.235   0.237  0.1305 -0.4761  0.4554
   23MOL   C84527289   7.117   3.120   0.315 -0.0763  0.9502 -0.2464
   23MOL   C84627290   7.006   3.023   0.361  0.2448 -0.6206  0.6083
   23MOL   C84727291   7.047   2.898   0.429  0.0918  0.9758 -0.1989
   23MOL   C84827292   6.926   2.809   0.458 -0.1143  0.6656  0.0257
   23MOL   C84927293   6.953   2.720   0.583 -0.5727  0.4804  0.0396
   23MOL   C85027294   6.820   2.663   0.638  0.3718 -0.1120  0.2748
   23MOL   C85127295   6.830   2.558   0.754  0.3390  0.1463 -0.1136
   23MOL   C85227296   6.694   2.516   0.816 -0.3405  0.7579  0.4199
   23MOL   O85327297   6.633   2.434   0.714  0.6673  0.3647  0.1777
   23MOL   C85427298   6.500   2.427   0.706  0.2218 -0.7788 -0.0975
   23MOL   O85527299   6.416   2.464   0.789 -0.3229 -0.0009  0.6200
   23MOL   C85627300   6.465   2.366   0.568  0.2801  0.3472  0.4059
   23MOL   C85727301   6.309   2.363   0.533  0.4291 -0.6856 -0.3223
   23MOL   C85827302   6.245   2.237   0.602  0.0232 -0.2263 -0.2048
   23MOL   C85927303   6.106   2.230   0.565  0.0382  0.0948  0.1360
   23MOL   C86027304   6.030   2.110   0.622 -0.5665 -0.0153  0.3380
   23MOL   C86127305   5.876   2.108   0.609  0.8165  0.0135 -0.5072
   23MOL   C86227306   5.804   1.971   0.646 -0.3508 -0.1579 -0.1481
   23MOL   C86327307   5.656   1.975   0.634 -0.2260 -0.9122  0.2984
   23MOL   C86427308   5.588   1.840   0.621  0.7916  0.2500 -0.2068
   23MOL   O86527309   5.540   1.801   0.515  0.5809 -0.7689 -0.4142
   23MOL   H86627310   7.157   3.385   0.104  1.0732  0.6825  0.8451
   23MOL   H86727311   7.259   3.246   0.101  0.1159 -2.2247  1.1436
   23MOL   H86827312   7.021   3.314   0.289 -2.0925 -2.1496  0.8260
   23MOL   H86927313   7.002   3.193   0.166  0.6987 -0.2819 -0.2461
   23MOL   H87027314   7.187   3.065   0.252  0.4325 -0.8506  1.8604
   23MOL   H87127315   7.168   3.162   0.401 -1.1903 -0.8721  1.3486
   23MOL   H87227316   6.928   3.078   0.414 -0.4093 -0.6234 -0.3322
   23MOL   H87327317   6.953   2.996   0.270  0.0908  2.8160 -0.4102
   23MOL   H87427318   7.091   2.915   0.527 -1.0955 -2.4907  1.0269
   23MOL   H87527319   7.122   2.841   0.374  1.7730  1.4987  1.5008
   23MOL   H87627320   6.903   2.743   0.374 -2.0776 -1.1475  1.9110
   23MOL   H87727321   6.849   2.886   0.467  0.1923  1.1047 -1.0289
   23MOL   H87827322   6.999   2.777   0.663  0.7319  0.1127 -0.4307
   23MOL   H87927323   7.036   2.652   0.560  0.9573  1.5897  2.1740
   23MOL   H88027324   6.758   2.622   0.558  2.0449 -1.7426 -0.1946
   23MOL   H88127325   6.766   2.748   0.681  2.4669  1.7520 -0.7014
   23MOL   H88227326   6.874   2.466   0.717  1.6466  0.6527  0.1417
   23MOL   H88327327   6.898   2.608   0.823  1.9306  1.5293 -2.5891
   23MOL   H88427328   6.698   2.455   0.905 -2.9896  0.7720  0.5986
   23MOL   H88527329   6.631   2.605   0.825 -0.6078  0.6210 -0.0579
   23MOL   H88627330   6.500   2.263   0.562  0.5281  0.4688 -0.2916
   23MOL   H88727331   6.529   2.428   0.504  0.3097  1.8410  1.8449
   23MOL   H88827332   6.292   2.373   0.426  0.9610  0.2835 -0.3241
   23MOL   H88927333   6.267   2.453   0.578 -0.3302 -0.4488 -1.4832
   23MOL   H89027334   6.270   2.256   0.707 -1.4921  2.1127 -0.2175
   23MOL   H89127335   6.299   2.149   0.568  1.8368  1.3750 -1.6413
   23MOL   H89227336   6.090   2.238   0.457  1.2577  3.0813  0.1376
   23MOL   H89327337   6.050   2.314   0.606 -0.4004 -0.3503  0.4652
   23MOL   H89427338   6.070   2.019   0.576  1.1648  0.7401  0.3211
   23MOL   H89527339   6.050   2.099   0.728 -0.1599  1.0933  0.3821
   23MOL   H89627340   5.840   2.177   0.686  2.2239  0.5364 -0.3005
   23MOL   H89727341   5.856   2.138   0.507  0.9764  3.1239  0.3330
   23MOL   H89827342   5.817   1.949   0.752 -2.2605  0.4182  0.2320
   23MOL   H89927343   5.840   1.893   0.578  2.6492  1.2940 -0.3003
   23MOL   H90027344   5.613   2.032   0.716 -2.3828 -0.7995 -0.8887
   23MOL   H90127345   5.614   2.019   0.544  2.1088 -1.2842 -1.0028
   23MOL   O90227346   5.567   1.778   0.739 -0.3139 -0.1953  0.2074
   23MOL   C90327347   5.489   1.662   0.734 -0.4751  0.0193  0.1969
   23MOL   C90427348   5.351   1.680   0.806 -0.1983  0.8133  0.5971
   23MOL   C90527349   5.266   1.552   0.825 -0.0554  1.0148 -0.6848
   23MOL   C90627350   5.131   1.596   0.887 -0.3242  0.2939 -0.1436
   23MOL   C90727351   5.046   1.489   0.962  0.6556  0.3244  0.5172
   23MOL   C90827352   4.923   1.556   1.026  0.3182  0.1689  0.5951
   23MOL   C90927353   4.815   1.591   0.926  0.2541 -0.2537 -0.1622
   23MOL   C91027354   4.691   1.629   1.003  0.2888  0.6262  0.0648
   23MOL   C91127355   4.573   1.670   0.912  0.9457  0.3451 -0.5011
   23MOL   C91227356   4.435   1.662   0.983 -0.0732  0.1980 -0.0865
   23MOL   O91327357   4.332   1.704   0.902 -0.2871  0.7362 -0.1714
   23MOL   C91427358   4.272   1.824   0.910 -0.7278  0.2242 -0.8035
   23MOL   O91527359   4.283   1.898   1.007  0.3210  0.0306 -0.3317
   23MOL   C91627360   4.180   1.850   0.793  0.0700 -0.4492 -0.2860
   23MOL   C91727361   4.115   1.992   0.806 -0.6470 -0.3706  0.5674
   23MOL   C91827362   4.021   2.020   0.683 -0.4105  0.3358  0.2738
   23MOL   C91927363   3.914   2.123   0.728  0.2293 -0.4030  0.8642
   23MOL   C92027364   3.804   2.049   0.806  0.2715  0.3551  0.9004
   23MOL   C92127365   3.679   2.135   0.813 -1.1217 -0.4130 -0.1095
   23MOL   C92227366   3.570   2.080   0.906 -0.0659  0.4138  0.4720
   23MOL   C92327367   3.459   2.177   0.897 -0.0039 -0.0259 -0.2675
   23MOL   C92427368   3.323   2.120   0.941 -0.0303 -0.3443 -0.2067
   23MOL   O92527369   3.317   2.047   1.041 -0.5856 -0.1217  0.0273
   23MOL   H92627370   5.476   1.619   0.635 -1.8208  2.9101 -0.9409
   23MOL   H92727371   5.550   1.587   0.784  1.9746  1.2176 -0.8983
   23MOL   H92827372   5.366   1.732   0.900  0.6792  1.0786  0.3206
   23MOL   H92927373   5.298   1.748   0.739  1.1110 -1.0171 -2.4057
   23MOL   H93027374   5.268   1.491   0.735  0.9271  0.5073 -0.3237
   23MOL   H93127375   5.303   1.490   0.906 -2.1694  2.3998  1.4077
   23MOL   H93227376   5.152   1.680   0.954  3.1590 -2.4882  2.4435
   23MOL   H93327377   5.066   1.641   0.812  0.2819  1.1806 -0.1417
   23MOL   H93427378   5.107   1.455   1.045  0.2873  0.6117  0.9046
   23MOL   H93527379   5.013   1.407   0.898  0.4108  0.5148  0.3992
   23MOL   H93627380   4.950   1.643   1.086  0.9546  1.3194 -1.3153
   23MOL   H93727381   4.876   1.491   1.100 -0.1166 -1.4153 -1.0537
   23MOL   H93827382   4.780   1.502   0.873 -0.7370 -0.2693  0.5041
   23MOL   H93927383   4.841   1.670   0.856 -0.6403  0.0766 -0.1304
   23MOL   H94027384   4.721   1.703   1.078  1.1086  0.7629 -0.3900
   23MOL   H94127385   4.657   1.544   1.063 -0.5509 -2.0669 -4.0383
   23MOL   H94227386   4.585   1.775   0.882 -1.5487  0.6898 -0.3884
   23MOL   H94327387   4.569   1.610   0.821 -1.0781 -0.9964  0.4503
   23MOL   H94427388   4.412   1.558   1.007  1.5400  0.0004  0.6512
   23MOL   H94527389   4.433   1.711   1.080 -0.2314 -1.4763  0.7649
   23MOL   H94627390   4.107   1.770   0.793 -0.4586  0.0167  1.0925
   23MOL   H94727391   4.239   1.850   0.701 -1.9909  0.2694 -1.6774
   23MOL   H94827392   4.189   2.071   0.812 -0.7336 -0.1290 -1.1569
   23MOL   H94927393   4.054   1.992   0.896  0.5712 -2.2138  1.4217
   23MOL   H95027394   3.977   1.930   0.641 -0.9331  1.7028 -2.1922
   23MOL   H95127395   4.075   2.067   0.601  0.9516 -0.7714  0.5162
   23MOL   H95227396   3.879   2.173   0.638  2.3384 -0.2556  0.0969
   23MOL   H95327397   3.957   2.206   0.784 -0.1228  1.7567 -1.9184
   23MOL   H95427398   3.771   1.954   0.765  1.5307 -0.7767  2.4868
   23MOL   H95527399   3.843   2.027   0.905 -0.0529 -2.1789  0.5041
   23MOL   H95627400   3.700   2.241   0.829 -0.7870 -0.5006  0.0243
   23MOL   H95727401   3.637   2.135   0.712  1.1647  2.1136 -1.1138
   23MOL   H95827402   3.608   2.073   1.008  0.1013 -0.0178  0.3810
   23MOL   H95927403   3.527   1.987   0.869  1.2041 -0.0103  0.0442
   23MOL   H96027404   3.487   2.260   0.962 -0.4310 -0.5230  0.5654
   23MOL   H96127405   3.448   2.212   0.794 -0.1941 -1.2012 -0.6549
   23MOL   O96227406   3.227   2.151   0.862  0.5940 -0.3148 -0.2455
   23MOL   C96327407   3.094   2.106   0.901 -0.0448  0.1694  0.6959
   23MOL   C96427408   2.983   2.189   0.833 -0.2730  0.3831 -0.1811
   23MOL   C96527409   2.842   2.152   0.865  0.6931  0.4188 -0.5523
   23MOL   C96627410   2.735   2.191   0.769 -0.4650  0.2734  0.1256
   23MOL   C96727411   2.741   2.337   0.722 -1.0503  0.0534  0.2482
   23MOL   C96827412   2.701   2.422   0.842  0.4040  0.1287 -0.2450
   23MOL   C96927413   2.691   2.575   0.803  0.2646 -0.1888 -0.1383
   23MOL   C97027414   2.664   2.653   0.930 -0.2362  0.2937 -0.0944
   23MOL   C97127415   2.773   2.654   1.041  0.7645 -0.0453  0.6581
   23MOL   C97227416   2.765   2.781   1.130  0.3250 -0.3816 -0.5459
   23MOL   O97327417   2.806   2.895   1.057  0.5784  0.2239  0.3433
   23MOL   C97427418   2.928   2.948   1.071  0.1190  0.4361  0.3841
   23MOL   O97527419   3.018   2.903   1.141 -0.2326 -0.2876 -0.2988
   23MOL   C97627420   2.949   3.070   0.979 -0.1506  0.6269  0.0139
   23MOL   C97727421   2.874   3.067   0.847  0.1525  0.6530  0.0822
   23MOL   C97827422   2.942   2.974   0.741  0.4799  0.0059 -0.2499
   23MOL   C97927423   3.094   3.008   0.726  0.0885 -0.0073 -0.2028
   23MOL   C98027424   3.150   2.945   0.595 -0.5302 -0.5839 -0.7014
   23MOL   C98127425   3.285   3.011   0.549 -0.1934  0.4800  0.1983
   23MOL   C98227426   3.342   2.967   0.410 -0.0828  0.0087 -0.0618
   23MOL   C98327427   3.474   3.044   0.372 -0.1472 -0.2774 -0.7545
   23MOL   C98427428   3.555   2.986   0.261 -0.0355 -0.9944  0.3777
   23MOL   O98527429   3.675   3.009   0.249 -0.0458  0.6624  0.0658
   23MOL   H98627430   3.084   2.000   0.879 -1.3588  0.3887  0.1981
   23MOL   H98727431   3.087   2.106   1.009  0.7678 -0.5149  0.7515
   23MOL   H98827432   3.009   2.295   0.836 -0.6190  0.4803 -0.6532
   23MOL   H98927433   2.995   2.169   0.727  2.2066 -0.2817  0.1822
   23MOL   H99027434   2.827   2.046   0.887  1.5888  0.3495 -0.2846
   23MOL   H99127435   2.819   2.190   0.964  0.4811 -0.5701 -0.2104
   23MOL   H99227436   2.750   2.136   0.676 -0.3640  1.3668 -0.5116
   23MOL   H99327437   2.632   2.174   0.802 -1.2799  0.8841 -2.0340
   23MOL   H99427438   2.665   2.342   0.644 -1.7312  0.6717  0.9401
   23MOL   H99527439   2.831   2.376   0.674 -2.3862  0.1637 -2.2456
   23MOL   H99627440   2.776   2.411   0.920  1.8225  0.9984 -1.4576
   23MOL   H99727441   2.607   2.384   0.883  0.0842  0.3195 -0.7902
   23MOL   H99827442   2.606   2.591   0.737 -0.9308 -1.6263  1.0207
   23MOL   H99927443   2.786   2.616   0.768  0.6475 -0.6215  0.4040
   23MOL     H127444   2.563   2.644   0.970 -0.1141  0.5736  0.2831
   23MOL     H227445   2.654   2.758   0.900 -0.3843  0.4615  0.5388
   23MOL     H327446   2.753   2.576   1.114 -1.1407  1.2892  1.5977
   23MOL     H427447   2.875   2.638   1.004  1.1010 -0.1558  1.6105
   23MOL     H527448   2.664   2.793   1.168  0.6075  2.8990 -0.6873
   23MOL     H627449   2.827   2.770   1.218  1.5654  0.3749 -1.3094
   23MOL     H727450   3.057   3.087   0.973  0.3490 -2.3857 -0.5752
   23MOL     H827451   2.917   3.160   1.032  2.2782  1.6582 -0.1838
   23MOL     H927452   2.865   3.169   0.810 -3.1002  0.9673  1.5052
   23MOL    H1027453   2.771   3.034   0.863  0.8929 -0.9825  1.7375
   23MOL    H1127454   2.896   2.997   0.645  3.4940  2.6178 -1.1395
   23MOL    H1227455   2.931   2.868   0.766 -0.8735  0.3904  0.8200
   23MOL    H1327456   3.142   2.954   0.808 -1.9915 -0.3562  0.8160
   23MOL    H1427457   3.108   3.116   0.729  1.2307 -0.1363 -0.4221
   23MOL    H1527458   3.171   2.841   0.618  1.3433 -0.2967 -0.9724
   23MOL    H1627459   3.072   2.946   0.519 -1.4757  0.7114  0.2464
   23MOL    H1727460   3.269   3.119   0.553 -0.8158  0.4485 -1.3370
   23MOL    H1827461   3.364   2.986   0.620 -1.0267 -1.5144  0.4656
   23MOL    H1927462   3.269   2.986   0.332 -0.8158 -1.1962  0.3210
   23MOL    H2027463   3.363   2.861   0.400  2.5016  0.4586  0.2210
   23MOL    H2127464   3.443   3.143   0.338  1.3377  0.8403  1.0633
   23MOL    H2227465   3.531   3.056   0.464 -1.0316 -1.9495  0.0498
   23MOL    O2327466   3.481   2.916   0.167 -0.0399 -0.5016  0.2891
   23MOL    C2427467   3.548   2.878   0.040  0.4068  0.0277 -0.2739
   23MOL    C2527468   3.454   2.793   7.707 -0.2375  0.4869 -0.4072
   23MOL    C2627469   3.318   2.861   7.677  0.0292 -0.4639 -0.2493
   23MOL    C2727470   3.266   2.815   7.543 -0.5086  0.6716 -0.1832
   23MOL    C2827471   3.145   2.884   7.477  0.2867 -0.4297  0.3388
   23MOL    C2927472   3.112   2.832   7.340 -0.0711  0.4520  0.7534
   23MOL    C3027473   2.984   2.898   7.272 -0.4607 -0.0479  0.7742
   23MOL    C3127474   2.853   2.842   7.334 -0.3206  0.3795 -0.0018
   23MOL    C3227475   2.841   2.692   7.348  0.1950 -0.0555 -0.0821
   23MOL    C3327476   2.827   2.621   7.214 -0.3861  0.2482 -0.3517
   23MOL    O3427477   2.706   2.658   7.146  0.4468  0.9495  0.5057
   23MOL    C3527478   2.710   2.744   7.043  0.3419 -0.1619  0.7240
   23MOL    O3627479   2.811   2.790   6.983  0.1389  0.0860  0.1829
   23MOL    C3727480   2.562   2.785   7.000 -0.3931 -0.5686 -0.2625
   23MOL    C3827481   2.498   2.677   6.910  0.0262 -0.1569  0.4683
   23MOL    C3927482   2.352   2.698   6.889  0.1504 -0.7373 -0.7188
   23MOL    C4027483   2.306   2.842   6.848  0.1855  0.4957 -0.4324
   23MOL    C4127484   2.153   2.852   6.848 -0.1016 -0.0094  0.4823
   23MOL    C4227485   2.106   2.974   6.768 -0.2555  0.2833  0.2126
   23MOL    C4327486   2.138   3.107   6.840 -0.4493  0.3685 -0.0486
   23MOL    C4427487   2.106   3.226   6.752 -0.1324  0.4912  0.1594
   23MOL    C4527488   2.120   3.366   6.815 -0.6787 -0.1566  0.2982
   23MOL    O4627489   2.024   3.427   6.862  0.2502  0.0208 -0.1305
   23MOL    H4727490   3.572   2.965   7.736 -0.4133  0.0067 -0.6450
   23MOL    H4827491   3.639   2.825   0.066  1.0066  1.4245  0.5072
   23MOL    H4927492   3.502   2.772   7.612  0.1277  2.2022 -0.6287
   23MOL    H5027493   3.442   2.693   7.749  1.0163  0.2539 -0.5860
   23MOL    H5127494   3.249   2.836   0.001 -0.9469 -0.5019 -1.0919
   23MOL    H5227495   3.326   2.969   7.680 -1.1904 -0.3283 -1.4423
   23MOL    H5327496   3.347   2.819   7.469  0.0231  2.4123  0.4861
   23MOL    H5427497   3.244   2.711   7.567  0.6495  0.5643  0.4404
   23MOL    H5527498   3.165   2.990   7.469  0.4171 -0.5032 -0.2750
   23MOL    H5627499   3.062   2.874   7.548  0.1214  1.6716  0.4470
   23MOL    H5727500   3.108   2.724   7.345 -1.0620  0.4075 -0.5697
   23MOL    H5827501   3.197   2.848   7.273  0.3067  0.5826  1.2657
   23MOL    H5927502   3.005   2.911   7.166 -0.2073 -0.4964  0.7649
   23MOL    H6027503   2.986   3.005   7.290  3.2037 -0.0014  0.4218
   23MOL    H6127504   2.766   2.883   7.282 -0.8727 -1.1185 -0.3066
   23MOL    H6227505   2.861   2.884   7.434  0.1297 -1.1433  0.6105
   23MOL    H6327506   2.924   2.643   7.398  0.9607 -0.7922 -2.0336
   23MOL    H6427507   2.757   2.677   7.416  0.8555  0.3814  0.8472
   23MOL    H6527508   2.912   2.649   7.152  1.3948 -0.3780  1.7379
   23MOL    H6627509   2.832   2.513   7.224 -0.6105 -0.1697 -3.9362
   23MOL    H6727510   2.563   2.882   6.951 -3.8306  0.3782  1.3424
   23MOL    H6827511   2.509   2.791   7.096 -2.0220  0.6642 -1.2220
   23MOL    H6927512   2.513   2.577   6.951  0.1635 -1.1389 -1.8978
   23MOL    H7027513   2.543   2.679   6.811  1.7334  2.9342  1.2734
   23MOL    H7127514   2.296   2.672   6.978  0.0967 -2.5957 -1.2895
   23MOL    H7227515   2.321   2.631   6.809 -1.3750  1.5269 -2.0824
   23MOL    H7327516   2.349   2.853   6.748 -3.2315 -0.5198 -2.0893
   23MOL    H7427517   2.348   2.918   6.913 -1.8597  0.7027  0.6708
   23MOL    H7527518   2.103   2.765   6.807  0.5729 -0.3956  0.4658
   23MOL    H7627519   2.124   2.883   6.948 -0.9548  3.4755 -0.7605
   23MOL    H7727520   2.151   2.967   6.668  2.5480  0.7566  1.3836
   23MOL    H7827521   1.998   2.975   6.753 -0.1367  0.7773 -0.6488
   23MOL    H7927522   2.237   3.123   6.882 -2.0147  2.0015  3.1709
   23MOL    H8027523   2.079   3.115   6.931  0.0727  2.1663  0.1429
   23MOL    H8127524   2.180   3.223   6.672 -0.2526 -0.3123  0.0692
   23MOL    H8227525   2.002   3.222   6.719 -0.7280 -0.6151  2.0719
   23MOL    O8327526   2.248   3.408   6.817 -0.1124  0.3942 -0.4083
   23MOL    C8427527   2.268   3.538   6.862  0.0107  0.0770 -0.6061
   23MOL    C8527528   2.415   3.577   6.857  0.1841  0.2205 -0.5124
   23MOL    C8627529   2.452   3.564   6.706 -0.3286  0.6449 -0.0504
   23MOL    C8727530   2.607   3.566   6.682  0.0600 -0.4750 -0.9668
   23MOL    C8827531   2.652   3.574   6.534 -0.1144 -0.0059 -0.5928
   23MOL    C8927532   2.635   3.716   6.481 -0.0489  0.4102  0.3692
   23MOL    C9027533   2.712   3.726   6.353  0.6485 -0.2597 -0.5317
   23MOL    C9127534   2.718   3.863   6.304 -0.5895 -0.1994 -0.3832
   23MOL    C9227535   2.620   3.896   6.192 -0.0044  0.2168 -0.5321
   23MOL    C9327536   2.636   4.047   6.148 -0.4855  0.0821  0.2950
   23MOL    O9427537   2.768   4.067   6.106 -0.6134  0.1896  0.7264
   23MOL    C9527538   2.857   4.149   6.175  0.3640 -0.1868 -0.2382
   23MOL    O9627539   2.835   4.215   6.276  0.2589 -0.7540 -0.0229
   23MOL    C9727540   2.996   4.127   6.115  0.8415 -0.2836  0.3376
   23MOL    C9827541   3.082   4.258   6.090 -0.4492  0.4234 -0.3215
   23MOL    C9927542   3.051   4.314   5.958 -0.5390 -0.2673  0.3925
   23MOL   C10027543   3.108   4.455   5.931  0.1062  0.1196 -0.0829
   23MOL   C10127544   3.067   4.511   5.789  1.0142 -0.3007 -0.2395
   23MOL   C10227545   2.921   4.556   5.766 -0.0176  0.4588 -0.5984
   23MOL   C10327546   2.890   4.590   5.620  0.3041 -0.2022 -0.7856
   23MOL   C10427547   2.892   4.475   5.517 -0.4637  0.5080  0.0998
   23MOL   C10527548   2.794   4.372   5.555 -0.2222  0.4638 -0.1641
   23MOL   O10627549   2.823   4.275   5.623 -0.3287  0.2338  0.3709
   23MOL   H10727550   2.204   3.610   6.812  0.2239  1.0386  0.5120
   23MOL   H10827551   2.237   3.536   6.966 -0.4199 -2.3396 -0.7307
   23MOL   H10927552   2.433   3.674   6.903 -1.1139 -1.0954  2.9170
   23MOL   H11027553   2.471   3.499   6.908 -1.8193 -1.9299 -1.4983
   23MOL   H11127554   2.406   3.480   6.653 -0.8148  0.9339 -0.0864
   23MOL   H11227555   2.416   3.651   6.651  0.2218  1.1731  0.4153
   23MOL   H11327556   2.643   3.655   6.734  2.4251 -0.8236 -1.9440
   23MOL   H11427557   2.655   3.481   6.729 -1.3243 -0.5158  0.4001
   23MOL   H11527558   2.594   3.501   6.478 -1.2517 -0.7144  1.4453
   23MOL   H11627559   2.754   3.540   6.520  0.4537  1.2167  0.5007
   23MOL   H11727560   2.671   3.791   6.551  0.0472  1.8612 -1.2029
   23MOL   H11827561   2.530   3.735   6.462 -0.0238 -1.1997 -1.5762
   23MOL   H11927562   2.658   3.662   6.283  0.8163  0.6227 -1.4867
   23MOL   H12027563   2.813   3.687   6.366 -0.3590 -1.8037  3.4270
   23MOL   H12127564   2.806   3.858   6.241  0.0353 -0.3241  0.5009
   23MOL   H12227565   2.727   3.937   6.384  0.7803  0.0564 -0.7657
   23MOL   H12327566   2.633   3.826   6.109 -0.3243 -2.8109  1.8790
   23MOL   H12427567   2.520   3.885   6.233  0.1227  0.3195 -0.2001
   23MOL   H12527568   2.581   4.075   6.058  1.8886 -0.4130 -1.3777
   23MOL   H12627569   2.611   4.121   6.223  0.5562  0.7065  0.0389
   23MOL   H12727570   2.982   4.083   6.017 -2.2903  0.8040  0.2390
   23MOL   H12827571   3.058   4.058   6.171 -0.2617 -2.3565 -0.9314
   23MOL   H12927572   3.191   4.258   6.097 -0.3678  1.2401 -1.4847
   23MOL   H13027573   3.059   4.315   6.180 -2.3106 -2.6051  1.2171
   23MOL   H13127574   2.943   4.306   5.952 -0.6198  0.1456  1.1696
   23MOL   H13227575   3.098   4.249   5.885  1.2134  0.6248  0.6815
   23MOL   H13327576   3.216   4.458   5.942  0.1115  2.3121 -0.4943
   23MOL   H13427577   3.075   4.524   6.009  2.9684  0.0435  1.2236
   23MOL   H13527578   3.141   4.588   5.768  0.4210  0.6493  1.0788
   23MOL   H13627579   3.077   4.430   5.717  1.3998 -0.6192  0.1665
   23MOL   H13727580   2.859   4.471   5.796 -0.0434  1.2588  1.7663
   23MOL   H13827581   2.911   4.645   5.828 -0.4656  1.1143 -1.5961
   23MOL   H13927582   2.965   4.664   5.590  2.0588 -1.6943 -0.1322
   23MOL   H14027583   2.795   4.641   5.601  0.2096 -0.4861 -1.0806
   23MOL   H14127584   2.859   4.515   5.421  0.2983 -0.0622 -0.4041
   23MOL   H14227585   2.989   4.426   5.518 -0.6500  0.1390  0.0412
   23MOL   O14327586   2.673   4.403   5.499  0.5747  0.3418  0.0044
   23MOL   C14427587   2.558   4.313   5.526 -0.7606  0.7559  0.0851
   23MOL   C14527588   2.495   4.330   5.670  0.1564 -0.1564 -0.3308
   23MOL   C14627589   2.364   4.250   5.673 -0.7446  0.3009  0.5539
   23MOL   C14727590   2.281   4.247   5.808 -0.9298 -0.0978  0.7176
   23MOL   C14827591   2.367   4.215   5.935  0.4690 -0.6023  0.5168
   23MOL   C14927592   2.282   4.211   6.060  0.3881 -0.2810  0.8759
   23MOL   C15027593   2.182   4.093   6.073  0.5033  0.2786  0.7697
   23MOL   C15127594   2.250   3.955   6.109 -0.7636 -0.0987 -0.2659
   23MOL   C15227595   2.161   3.831   6.121  0.6152 -0.6283 -0.3028
   23MOL   C15327596   2.233   3.711   6.184 -0.3300 -0.3019  1.0346
   23MOL   O15427597   2.154   3.607   6.227 -0.3757  0.5575 -0.0495
   23MOL   C15527598   2.183   3.541   6.336 -0.5006  0.2097  0.1276
   23MOL   O15627599   2.286   3.549   6.407  0.0568 -0.2079  0.6513
   23MOL   C15727600   2.081   3.435   6.365  0.7568 -0.1530 -0.0220
   23MOL   C15827601   1.990   3.477   6.488  1.0541  0.0895 -0.4881
   23MOL   C15927602   1.888   3.597   6.456  0.2713 -0.3856  0.1511
   23MOL   C16027603   1.784   3.623   6.568  0.0586 -0.1071 -0.1716
   23MOL   C16127604   1.677   3.735   6.531  0.0092  0.7307 -0.5870
   23MOL   C16227605   1.564   3.734   6.637  0.0192 -0.3834 -0.2742
   23MOL   C16327606   1.480   3.862   6.661  0.2361 -0.7700  0.2737
   23MOL   C16427607   1.362   3.854   6.764  0.8876  0.5865 -0.1314
   23MOL   C16527608   1.242   3.794   6.694 -0.4843 -0.9110  0.6597
   23MOL   O16627609   1.229   3.677   6.706 -0.2472  0.3091  0.0341
   23MOL   H16727610   2.496   4.341   5.440  0.3949  0.6409 -0.7913
   23MOL   H16827611   2.587   4.209   5.516 -0.8186  0.6527  0.9414
   23MOL   H16927612   2.561   4.300   5.751  0.7797 -0.1755 -0.8325
   23MOL   H17027613   2.468   4.436   5.676  1.0925  0.2793 -2.8222
   23MOL   H17127614   2.285   4.287   5.608 -1.6073  0.0645  1.4534
   23MOL   H17227615   2.383   4.148   5.640  0.2768  0.5055  0.4777
   23MOL   H17327616   2.225   4.340   5.820 -0.0850  0.7746 -1.6292
   23MOL   H17427617   2.197   4.180   5.792 -2.2797  1.4696  1.0378
   23MOL   H17527618   2.439   4.296   5.948 -0.3569 -0.0563  1.8057
   23MOL   H17627619   2.415   4.118   5.922  0.5330 -0.3727 -1.0224
   23MOL   H17727620   2.216   4.298   6.062  0.4218 -0.1779 -1.2322
   23MOL   H17827621   2.339   4.223   6.152  1.0199  3.1389  0.0941
   23MOL   H17927622   2.129   4.071   5.980  2.2028 -1.9278  0.2758
   23MOL   H18027623   2.098   4.112   6.140 -2.9173  1.3775 -3.5341
   23MOL   H18127624   2.301   3.975   6.203  0.6217 -0.4561 -0.9260
   23MOL   H18227625   2.332   3.928   6.043 -3.7600 -1.0997 -3.7393
   23MOL   H18327626   2.071   3.847   6.180  0.8227 -1.2846  0.2080
   23MOL   H18427627   2.112   3.797   6.031 -1.5836  0.8504  0.3080
   23MOL   H18527628   2.310   3.673   6.117 -1.0606 -1.7308  0.9902
   23MOL   H18627629   2.291   3.751   6.267  2.2114 -2.1122  0.2003
   23MOL   H18727630   2.135   3.341   6.375  0.8830 -0.1682 -0.8151
   23MOL   H18827631   2.016   3.413   6.280  0.3644 -0.2199  0.2964
   23MOL   H18927632   2.051   3.504   6.574 -2.1398 -2.3520  2.6800
   23MOL   H19027633   1.941   3.393   6.536 -1.7180  1.0544 -1.5514
   23MOL   H19127634   1.840   3.558   6.366  0.4807  2.4321 -1.2264
   23MOL   H19227635   1.941   3.688   6.427  0.3795  0.0484  1.6941
   23MOL   H19327636   1.837   3.656   6.658  0.8481 -0.7294 -0.4071
   23MOL   H19427637   1.740   3.525   6.590  0.1726  0.3028  2.0359
   23MOL   H19527638   1.725   3.833   6.534  2.8531 -0.6551  0.9412
   23MOL   H19627639   1.631   3.712   6.435 -3.0802 -2.2151  1.4856
   23MOL   H19727640   1.494   3.657   6.606 -1.7435  1.9463 -2.2733
   23MOL   H19827641   1.602   3.696   6.732 -0.0950  3.4941  1.4133
   23MOL   H19927642   1.429   3.894   6.570  1.9530 -2.6221 -1.3566
   23MOL   H20027643   1.544   3.947   6.688  0.7710 -1.3976  0.9889
   23MOL   H20127644   1.388   3.790   6.848 -0.9666  0.6933  0.5392
   23MOL   H20227645   1.337   3.957   6.790 -0.2893  0.3975 -0.4701
   23MOL   H20327646   1.193   3.861   6.622  1.4457  1.1582  1.2085
   24MOL     O127647   0.436   7.315   0.524 -0.0119  0.3469  0.2600
   24MOL     C227648   0.462   7.449   0.528  0.4401  0.3030  0.8835
   24MOL     C327649   0.351   7.520   0.454  0.5226  0.8479  0.4679
   24MOL     C427650   0.355   7.667   0.468 -0.2445 -0.5282 -0.8291
   24MOL     C527651   0.231   7.752   0.416 -0.1012  0.7297  0.3156
   24MOL     C627652   0.214   7.746   0.261 -0.2541  0.1469  0.1456
   24MOL     C727653   0.337   0.043   0.181  0.2285  0.4214 -0.2097
   24MOL     C827654   0.394   0.182   0.228  0.7780 -0.4122  0.3982
   24MOL     C927655   0.490   0.233   0.125  0.0622  0.1848 -0.3644
   24MOL    C1027656   0.587   0.344   0.177 -0.3377  0.5258 -0.1246
   24MOL    C1127657   0.667   0.404   0.065 -0.5584 -0.4621  0.0305
   24MOL    O1227658   0.749   0.501   0.120  0.1257  0.2021 -0.5785
   24MOL    C1327659   0.859   0.549   0.056 -0.4482  0.2449 -0.3196
   24MOL    O1427660   0.897   0.525   7.697 -0.2149  0.2891  0.2363
   24MOL    C1527661   0.942   0.646   0.136  0.2990  0.1579 -0.0574
   24MOL    C1627662   1.044   0.586   0.232 -0.3999 -0.3820  0.0289
   24MOL    C1727663   1.168   0.516   0.165 -0.0743 -0.0671  0.2175
   24MOL    C1827664   1.256   0.456   0.271 -0.2897 -0.1337  0.0993
   24MOL    C1927665   1.322   0.553   0.363  0.2137  0.6636  0.3570
   24MOL    C2027666   1.381   0.476   0.483 -0.9871 -0.2379 -0.4645
   24MOL    C2127667   1.371   0.551   0.616 -0.1366 -0.0242 -0.5053
   24MOL    C2227668   1.406   0.469   0.742 -0.6757 -0.8186  0.8179
   24MOL    C2327669   1.285   0.377   0.782 -0.1083 -0.3536  0.1358
   24MOL    O2427670   1.288   0.256   0.768 -0.6292  0.0391 -0.0161
   24MOL    H2527671   0.455   7.484   0.631 -2.1945  0.9293  0.5241
   24MOL    H2627672   0.563   7.472   0.495  0.4543 -0.2803  0.5225
   24MOL    H2727673   0.351   7.499   0.347  3.5898  1.0919  0.3630
   24MOL    H2827674   0.258   7.475   0.488  0.1133  1.8343  0.6482
   24MOL    H2927675   0.366   7.681   0.575  1.4413  0.4735 -1.1152
   24MOL    H3027676   0.449   7.709   0.431 -0.2041  1.0098  0.9948
   24MOL    H3127677   0.138   7.711   0.456  0.7803  0.9238  2.5878
   24MOL    H3227678   0.253   0.096   0.452  2.3063 -0.1864  1.4614
   24MOL    H3327679   0.128   0.052   0.238  0.3301  0.7918 -0.3268
   24MOL    H3427680   0.177   7.647   0.233 -3.0794  0.4491  2.5884
   24MOL    H3527681   0.294   0.053   0.081 -0.3984  2.4446  0.2503
   24MOL    H3627682   0.415   7.723   0.177  1.4827  1.6223  0.7007
   24MOL    H3727683   0.441   0.161   0.324  0.8866 -1.0765  0.2058
   24MOL    H3827684   0.309   0.243   0.260  0.6973 -1.0394  1.4028
   24MOL    H3927685   0.435   0.254   0.034 -0.9463  1.4155  0.5146
   24MOL    H4027686   0.550   0.146   0.098 -2.6469 -1.9909  0.4277
   24MOL    H4127687   0.536   0.429   0.222 -0.5421  1.3172 -1.8057
   24MOL    H4227688   0.645   0.316   0.265 -0.4182 -1.5086 -0.7077
   24MOL    H4327689   0.723   0.328   0.011 -0.5967 -0.3278 -0.1958
   24MOL    H4427690   0.602   0.456   7.752 -0.6574  0.2993  0.6881
   24MOL    H4527691   0.867   0.704   0.189  0.5708 -0.1824  0.7036
   24MOL    H4627692   1.000   0.720   0.081 -0.8390 -0.8451 -2.6833
   24MOL    H4727693   0.990   0.514   0.294  1.2766 -0.4409  1.4644
   24MOL    H4827694   1.081   0.666   0.295  0.5016 -0.5803 -0.2528
   24MOL    H4927695   1.222   0.582   0.098  1.0551 -1.0609  0.1398
   24MOL    H5027696   1.128   0.434   0.105  0.3469  0.1695 -0.3844
   24MOL    H5127697   1.329   0.384   0.237 -2.0024 -1.8192 -0.0934
   24MOL    H5227698   1.187   0.389   0.323 -2.3199  0.8127 -1.3267
   24MOL    H5327699   1.401   0.616   0.321  0.5651 -0.4325 -0.6735
   24MOL    H5427700   1.251   0.628   0.398  0.2235  1.2089 -0.7760
   24MOL    H5527701   1.339   0.377   0.498  1.4985 -1.2710 -0.1386
   24MOL    H5627702   1.488   0.467   0.463 -0.8446 -1.0985  0.6717
   24MOL    H5727703   1.266   0.579   0.621  0.4818  2.1979  0.8752
   24MOL    H5827704   1.432   0.641   0.607  2.1340 -1.4588  0.3308
   24MOL    H5927705   1.498   0.412   0.726 -1.5426 -2.1397  0.4229
   24MOL    H6027706   1.426   0.539   0.822 -0.4619 -0.6002  0.5720
   24MOL    H6127707   0.471   7.266   0.451  0.9747 -0.5283  1.2926
   24MOL    O6227708   1.186   0.452   0.817  0.0105 -0.0945 -0.3076
   24MOL    C6327709   1.060   0.392   0.840 -0.7225  0.3768 -0.6724
   24MOL    C6427710   0.941   0.484   0.835  0.3478  0.7633  0.1304
   24MOL    C6527711   0.921   0.530   0.693  0.3867  0.2802  0.0099
   24MOL    C6627712   0.822   0.647   0.677 -0.0333  1.0028  0.2046
   24MOL    C6727713   0.795   0.684   0.533  0.4898  0.6712 -0.1687
   24MOL    C6827714   0.702   0.802   0.543 -0.1574 -0.7448 -0.9849
   24MOL    C6927715   0.627   0.840   0.417 -0.0158  0.4272 -0.1179
   24MOL    C7027716   0.506   0.751   0.393 -0.4197 -0.2784  0.1196
   24MOL    C7127717   0.451   0.765   0.250  0.2462 -0.2571 -0.2724
   24MOL    C7227718   0.341   0.664   0.225  0.5576  0.2892  0.3120
   24MOL    O7327719   0.306   0.677   0.087 -0.4014  0.1343 -0.4567
   24MOL    C7427720   0.175   0.680   0.049 -0.2313 -0.4946  0.5399
   24MOL    O7527721   0.075   0.672   0.121 -0.0347 -0.6402 -0.4240
   24MOL    C7627722   0.171   0.683   7.652  0.4894  0.8494 -0.1091
   24MOL    C7727723   0.041   0.719   7.579  1.0164 -0.0311  0.5203
   24MOL    C7827724   7.713   0.596   7.567 -0.1015 -0.5303 -0.5811
   24MOL    C7927725   7.566   0.615   7.536 -0.3081  0.4258  0.6642
   24MOL    C8027726   7.488   0.478   7.540 -0.7339 -0.4261 -0.0067
   24MOL    C8127727   7.339   0.492   7.526 -0.0822  0.1173 -0.5123
   24MOL    C8227728   7.290   0.537   7.389 -0.7527  0.0040 -0.0786
   24MOL    C8327729   7.275   0.431   7.282 -0.3157  0.1018  0.3769
   24MOL    C8427730   7.152   0.350   7.293  0.1694 -0.6703 -0.2907
   24MOL    O8527731   7.156   0.224   7.293  0.2248  0.4775 -0.1621
   24MOL    H8627732   1.031   0.317   0.767 -0.1972  0.5553 -1.0615
   24MOL    H8727733   1.066   0.343   0.937  2.3766 -0.7335 -1.3887
   24MOL    H8827734   0.853   0.425   0.863  1.3172 -0.6252  0.3291
   24MOL    H8927735   0.942   0.565   0.907 -1.2398  1.5552 -0.6978
   24MOL    H9027736   1.016   0.566   0.653  1.3426 -1.4267  0.6916
   24MOL    H9127737   0.911   0.443   0.629 -0.6764 -0.4535  1.1533
   24MOL    H9227738   0.726   0.621   0.721 -0.2389 -3.5192 -2.5623
   24MOL    H9327739   0.862   0.740   0.718  1.3864  0.5443 -0.1128
   24MOL    H9427740   0.756   0.600   0.476  1.0610 -0.2166  0.7272
   24MOL    H9527741   0.877   0.724   0.474 -0.3146  1.0176 -1.0640
   24MOL    H9627742   0.762   0.889   0.568 -0.7593 -0.3079 -1.0656
   24MOL    H9727743   0.627   0.786   0.620 -0.7215  1.2039 -1.1193
   24MOL    H9827744   0.698   0.830   0.335 -0.2756 -0.6841 -0.2251
   24MOL    H9927745   0.589   0.942   0.414  0.0036  0.4274 -0.3739
   24MOL   H10027746   0.428   0.760   0.469 -0.9344 -0.5206 -0.3833
   24MOL   H10127747   0.527   0.645   0.404 -0.7242 -0.4471 -0.9046
   24MOL   H10227748   0.410   0.865   0.235 -0.8250 -0.5682  0.5448
   24MOL   H10327749   0.532   0.747   0.179 -1.8227 -1.4854 -2.3483
   24MOL   H10427750   0.350   0.559   0.250 -2.2495 -0.0234  0.2014
   24MOL   H10527751   0.249   0.692   0.276  0.4846  0.3863  0.1268
   24MOL   H10627752   0.198   0.583   7.620  0.3941  0.6151  0.5407
   24MOL   H10727753   0.245   0.758   7.624 -0.5535  1.6671 -0.7219
   24MOL   H10827754   0.066   0.753   7.478 -0.3578 -0.9609 -0.1498
   24MOL   H10927755   7.746   0.796   7.636 -1.0804  1.3319 -3.0769
   24MOL   H11027756   7.719   0.538   7.660  1.2304 -1.0367 -0.9719
   24MOL   H11127757   0.002   0.523   7.500  0.0429 -0.2105 -0.8299
   24MOL   H11227758   7.557   0.664   7.439 -0.1033 -0.1837  0.3379
   24MOL   H11327759   7.514   0.679   7.608 -1.3191 -1.2371  1.4402
   24MOL   H11427760   7.529   0.421   7.457 -0.7112  0.8195 -0.8603
   24MOL   H11527761   7.507   0.422   7.631 -0.5525 -0.8558 -0.3075
   24MOL   H11627762   7.273   0.415   7.566  1.2858 -0.9793 -0.3479
   24MOL   H11727763   7.324   0.576   7.594  1.8217 -0.1539  0.2647
   24MOL   H11827764   7.352   0.621   7.359  2.5022 -1.3756  2.3288
   24MOL   H11927765   7.198   0.591   7.406 -0.2407  0.4573  1.3709
   24MOL   H12027766   7.277   0.491   7.192  2.3238 -1.0585 -0.4019
   24MOL   H12127767   7.363   0.367   7.269 -1.3045 -1.3722  0.8768
   24MOL   O12227768   7.048   0.426   7.310 -0.1488  0.1581 -0.0066
   24MOL   C12327769   6.924   0.361   7.329  0.8349 -0.5405  0.4592
   24MOL   C12427770   6.817   0.445   7.409 -0.1740 -0.3245  0.0041
   24MOL   C12527771   6.752   0.560   7.321 -0.3037 -0.1408  0.3018
   24MOL   C12627772   6.668   0.654   7.405  0.6296 -0.1079 -0.5897
   24MOL   C12727773   6.618   0.782   7.328 -0.4282  0.9215 -0.0824
   24MOL   C12827774   6.550   0.877   7.430  0.3908 -0.2750  0.0097
   24MOL   C12927775   6.471   0.987   7.343 -0.0077  0.3628 -0.2459
   24MOL   C13027776   6.386   1.081   7.443 -0.5773  0.0391 -0.1823
   24MOL   C13127777   6.336   1.197   7.368 -0.1744 -0.4084  0.1416
   24MOL   C13227778   6.249   1.277   7.463  0.1251  0.5032  0.1420
   24MOL   O13327779   6.330   1.364   7.547  0.0718  0.0437 -0.2588
   24MOL   C13427780   6.390   1.466   7.481 -0.5094  0.1761  0.1456
   24MOL   O13527781   6.375   1.494   7.357 -0.2728  0.0240  0.1493
   24MOL   C13627782   6.467   1.561   7.566  0.2886  0.1088 -0.2359
   24MOL   C13727783   6.507   1.686   7.496 -0.3814 -0.5435 -0.1794
   24MOL   C13827784   6.579   1.790   7.583  0.2642  0.0646 -0.1716
   24MOL   C13927785   6.710   1.736   7.635 -0.0583  0.1436  0.1047
   24MOL   C14027786   6.780   1.837   7.719  0.1156 -0.7547  0.1184
   24MOL   C14127787   6.903   1.786   0.037 -0.1340  0.8924 -0.3003
   24MOL   C14227788   6.969   1.888   0.129  0.4144  0.2257 -0.3654
   24MOL   C14327789   7.096   1.851   0.213 -0.7284 -0.5820  0.1281
   24MOL   C14427790   7.222   1.895   0.149 -0.2238  0.6790 -0.2181
   24MOL   O14527791   7.274   2.005   0.169  0.3262  0.3537 -0.1366
   24MOL   H14627792   6.888   0.324   7.234 -0.1009 -3.8747  2.0490
   24MOL   H14727793   6.949   0.277   7.394  0.3015 -0.0311  1.3289
   24MOL   H14827794   6.729   0.384   7.425 -0.5267  0.3691  0.7106
   24MOL   H14927795   6.850   0.482   7.506 -1.8092  1.1052  0.0244
   24MOL   H15027796   6.829   0.615   7.266 -1.2854  0.8194 -0.1330
   24MOL   H15127797   6.688   0.501   7.256 -0.2904 -1.7610  1.7262
   24MOL   H15227798   6.582   0.603   7.449  1.6980 -1.0710  0.4283
   24MOL   H15327799   6.733   0.690   7.485 -0.3045  0.2641  0.0115
   24MOL   H15427800   6.555   0.758   7.243 -0.8164  2.6752 -0.3079
   24MOL   H15527801   6.702   0.828   7.276 -0.1951  1.4403  0.7337
   24MOL   H15627802   6.620   0.917   7.504  0.5075  0.1572 -0.3300
   24MOL   H15727803   6.470   0.823   7.480  0.3041 -0.3008 -0.1576
   24MOL   H15827804   6.404   0.936   7.274  0.4201 -1.2937  0.5520
   24MOL   H15927805   6.539   1.050   7.285 -1.4141  1.7590 -0.4322
   24MOL   H16027806   6.448   1.128   7.519  0.6083  0.3129 -1.3102
   24MOL   H16127807   6.308   1.018   7.485 -0.1834 -1.5615 -1.8127
   24MOL   H16227808   6.418   1.250   7.321 -1.5721 -0.2108 -2.1644
   24MOL   H16327809   6.279   1.139   7.295  0.3673 -0.9638  0.1559
   24MOL   H16427810   6.186   1.331   7.392 -0.8504 -0.0756  0.5493
   24MOL   H16527811   6.180   1.218   7.524 -0.0516 -1.0525 -1.5082
   24MOL   H16627812   6.547   1.516   7.626 -0.6838  0.6130  1.4669
   24MOL   H16727813   6.392   1.576   7.644  1.2419  0.1246  0.6993
   24MOL   H16827814   6.420   1.738   7.456 -0.0369  0.7125  0.6673
   24MOL   H16927815   6.572   1.679   7.409  0.0752  1.8818 -0.0556
   24MOL   H17027816   6.517   1.807   7.671 -1.0052  0.4565 -1.1299
   24MOL   H17127817   6.600   1.884   7.533 -1.2039 -0.0585 -1.0655
   24MOL   H17227818   6.770   1.723   7.545  1.1983 -0.9929  1.0814
   24MOL   H17327819   6.695   1.648   7.698  0.5597 -0.0816 -0.0556
   24MOL   H17427820   6.808   1.920   7.655  0.5287 -0.8866  0.1263
   24MOL   H17527821   6.708   1.872   0.036 -0.2948  2.3972 -1.7019
   24MOL   H17627822   6.883   1.700   0.101 -0.3262  0.8897 -0.3641
   24MOL   H17727823   6.969   1.739   7.720 -0.1234 -1.3027  1.0696
   24MOL   H17827824   6.889   1.907   0.201  1.0114  1.2506  0.0430
   24MOL   H17927825   6.990   1.980   0.076 -1.1620  0.7448 -0.1118
   24MOL   H18027826   7.096   1.905   0.307 -0.1320  0.1905 -0.3085
   24MOL   H18127827   7.091   1.746   0.243 -1.6884 -0.8059 -0.7689
   24MOL   O18227828   7.269   1.801   0.074 -0.2231 -0.3433  0.1970
   24MOL   C18327829   7.408   1.794   0.040  0.0958  0.4889  0.9425
   24MOL   C18427830   7.447   1.863   7.661  0.1109  0.2649  0.0380
   24MOL   C18527831   7.601   1.854   7.633  0.4399 -0.7391  0.3271
   24MOL   C18627832   7.688   1.945   7.717 -0.0314  0.2310  0.3741
   24MOL   C18727833   0.079   1.941   7.689  0.1454  1.0878 -0.3202
   24MOL   C18827834   0.169   2.046   0.002  0.3961  0.0374 -1.0563
   24MOL   C18927835   0.316   1.995   7.749 -0.8170  0.2679  0.5024
   24MOL   C19027836   0.425   2.099   0.032  0.1682 -0.5016  0.6141
   24MOL   C19127837   0.470   2.113   0.179 -0.4042 -0.4925 -0.4053
   24MOL   C19227838   0.586   2.211   0.180 -0.2444 -0.7287  0.2037
   24MOL   O19327839   0.636   2.230   0.307 -0.3330  0.1735 -0.0976
   24MOL   C19427840   0.764   2.271   0.331 -0.0029 -0.3957 -0.1363
   24MOL   O19527841   0.841   2.311   0.242 -0.2957  0.0654  0.5856
   24MOL   C19627842   0.810   2.247   0.468  0.0346  0.3121 -0.3265
   24MOL   C19727843   0.899   2.360   0.532 -0.6545  0.1453  0.2583
   24MOL   C19827844   0.816   2.483   0.572 -0.3254  0.1937  0.1315
   24MOL   C19927845   0.903   2.600   0.619  0.2911 -1.4125 -0.6825
   24MOL   C20027846   0.825   2.737   0.622 -0.3896  0.2690 -0.4512
   24MOL   C20127847   0.912   2.856   0.666 -0.0648 -0.7256 -0.7179
   24MOL   C20227848   0.823   2.974   0.709 -0.1449 -0.7419  0.2947
   24MOL   C20327849   0.892   3.085   0.788  0.0255 -0.5930 -0.6110
   24MOL   C20427850   0.829   3.220   0.773  0.4917 -0.2013 -0.3255
   24MOL   O20527851   0.900   3.321   0.753  0.1251  0.0176 -0.1563
   24MOL   H20627852   7.463   1.835   0.124  3.4103 -1.7634 -0.0373
   24MOL   H20727853   7.422   1.686   0.037 -1.1342  0.2939  1.9920
   24MOL   H20827854   7.390   1.818   7.580  1.0955  2.3536 -1.8801
   24MOL   H20927855   7.415   1.967   7.654 -1.1385 -0.1612 -0.8029
   24MOL   H21027856   7.633   1.750   7.640 -0.2377 -0.8347  2.1750
   24MOL   H21127857   7.611   1.877   7.527 -2.7466  0.6476  0.2520
   24MOL   H21227858   7.651   2.047   7.702 -2.3089 -0.6330 -0.0372
   24MOL   H21327859   7.657   1.934   0.064  0.5357  0.0141  0.5192
   24MOL   H21427860   0.097   1.926   7.583 -0.4557  0.0746 -0.2830
   24MOL   H21527861   0.107   1.846   7.735  0.4344  1.0656 -0.5422
   24MOL   H21627862   0.142   2.049   0.108 -2.1553  2.2534 -1.7037
   24MOL   H21727863   0.149   2.148   7.725  0.8341  0.6267  0.4132
   24MOL   H21827864   0.339   1.954   7.651  1.3659  2.3190  0.1025
   24MOL   H21927865   0.338   1.916   0.064  0.4580 -2.2382 -2.5443
   24MOL   H22027866   0.387   2.198   0.006  1.4360 -0.7936 -2.6853
   24MOL   H22127867   0.508   2.079   7.721 -1.3700 -1.0357 -1.1412
   24MOL   H22227868   0.394   2.170   0.232  0.4749 -0.0727  0.4356
   24MOL   H22327869   0.479   2.016   0.230  0.3811 -1.2140 -1.8869
   24MOL   H22427870   0.662   2.189   0.105  0.5788 -0.2968  0.9092
   24MOL   H22527871   0.541   2.306   0.150  1.2423  0.0453  0.3814
   24MOL   H22627872   0.853   2.147   0.469 -0.5384  0.0646  0.1241
   24MOL   H22727873   0.730   2.242   0.542 -0.9707 -0.6944 -1.4739
   24MOL   H22827874   0.975   2.373   0.456  0.2450 -0.2654  1.0870
   24MOL   H22927875   0.937   2.320   0.626  0.4652 -2.2614 -1.1820
   24MOL   H23027876   0.730   2.466   0.637 -1.3162  2.2573 -0.5578
   24MOL   H23127877   0.765   2.506   0.478  0.3095 -1.7829 -0.7197
   24MOL   H23227878   0.990   2.609   0.554 -0.7336  0.1648 -1.8671
   24MOL   H23327879   0.947   2.577   0.716 -0.1067 -3.2100 -0.9087
   24MOL   H23427880   0.775   2.759   0.527 -0.1912 -1.4101 -0.9530
   24MOL   H23527881   0.753   2.740   0.703 -0.2696 -1.7265 -0.2654
   24MOL   H23627882   0.987   2.826   0.740  2.1308  1.8420 -1.8388
   24MOL   H23727883   0.979   2.880   0.583 -0.6852 -1.0971 -1.3353
   24MOL   H23827884   0.747   2.945   0.781  0.3498  0.4619  1.3160
   24MOL   H23927885   0.767   3.016   0.624 -1.8710 -1.4878  1.0397
   24MOL   H24027886   0.897   3.049   0.890 -2.0658  2.5224  0.6537
   24MOL   H24127887   0.997   3.103   0.763 -0.5576  3.4616 -0.4471
   24MOL   O24227888   0.696   3.223   0.777  0.4072  0.1865 -0.4236
   24MOL   C24327889   0.621   3.338   0.742 -0.4964  0.4806 -0.3656
   24MOL   C24427890   0.473   3.297   0.698  0.4370  0.7618  0.4309
   24MOL   C24527891   0.469   3.233   0.557  0.0694 -0.5752  0.4194
   24MOL   C24627892   0.322   3.197   0.512 -0.1076  0.2177  1.1247
   24MOL   C24727893   0.313   3.154   0.361 -0.4281  0.1704  0.2936
   24MOL   C24827894   0.406   3.036   0.324  0.4077 -0.3974 -0.1555
   24MOL   C24927895   0.382   2.911   0.406  0.0238 -0.9968 -0.2405
   24MOL   C25027896   0.465   2.794   0.359 -0.0033 -0.3350 -0.0802
   24MOL   C25127897   0.434   2.668   0.437 -0.7919  0.3582  0.6556
   24MOL   C25227898   0.500   2.545   0.373 -0.0117 -0.4264  0.2790
   24MOL   O25327899   0.437   2.498   0.257 -0.3763 -0.3113 -0.3688
   24MOL   C25427900   0.316   2.436   0.274 -0.4194 -0.2658  0.2676
   24MOL   O25527901   0.276   2.385   0.375  0.4134  0.1092  0.5645
   24MOL   C25627902   0.229   2.432   0.154 -0.5674 -0.4832  0.3862
   24MOL   C25727903   0.229   2.564   0.062  0.5142  0.2716  0.2689
   24MOL   C25827904   0.150   2.679   0.119  0.0699 -0.5399  0.3419
   24MOL   C25927905   0.157   2.812   0.040 -0.5155 -0.7147  0.6968
   24MOL   C26027906   0.038   2.909   0.044 -0.0806  0.3002 -0.1715
   24MOL   C26127907   0.089   3.060   0.031 -0.0952  0.4773 -0.7566
   24MOL   C26227908   7.733   3.158   0.051 -0.2508  0.3024  0.4543
   24MOL   C26327909   0.012   3.299   7.753  0.3145 -0.7826  0.0519
   24MOL   C26427910   0.118   3.372   0.083 -0.0645 -0.2828 -0.0652
   24MOL   O26527911   0.238   3.339   0.085 -0.2348 -0.0882  0.6202
   24MOL   H26627912   0.607   3.396   0.833 -0.9645 -0.7716  0.3749
   24MOL   H26727913   0.668   3.407   0.671  0.7765 -0.6811 -0.6571
   24MOL   H26827914   0.426   3.228   0.768  1.2663  0.7417  0.9722
   24MOL   H26927915   0.407   3.383   0.704 -1.3983 -0.3383 -2.7098
   24MOL   H27027916   0.507   3.306   0.484 -0.0655 -1.7223 -0.8259
   24MOL   H27127917   0.524   3.139   0.558  2.6052  0.8369 -0.9953
   24MOL   H27227918   0.277   3.130   0.586  0.8709  0.7985  2.2717
   24MOL   H27327919   0.266   3.290   0.528 -1.3742 -0.0663 -1.4377
   24MOL   H27427920   0.353   3.238   0.305  3.9280 -1.7254  0.3740
   24MOL   H27527921   0.210   3.130   0.331 -0.9137  2.0363  0.4110
   24MOL   H27627922   0.509   3.067   0.342  0.7721 -2.2717  1.0750
   24MOL   H27727923   0.417   3.017   0.217 -1.0811 -2.3233  0.0138
   24MOL   H27827924   0.278   2.880   0.393  0.1368 -1.4524 -0.0572
   24MOL   H27927925   0.382   2.933   0.513 -0.2889  0.7032 -0.5694
   24MOL   H28027926   0.570   2.823   0.359 -0.1814  0.4360 -2.9887
   24MOL   H28127927   0.443   2.780   0.254 -3.3286  1.1362  0.3743
   24MOL   H28227928   0.474   2.673   0.539  0.2898 -0.6592  0.2937
   24MOL   H28327929   0.326   2.655   0.447 -0.9826 -1.3803 -2.8109
   24MOL   H28427930   0.600   2.573   0.342 -0.8343 -0.7763 -2.8453
   24MOL   H28527931   0.510   2.463   0.444  0.8570  1.1270  1.9836
   24MOL   H28627932   0.132   2.396   0.187 -1.9991  1.4003 -1.6519
   24MOL   H28727933   0.260   2.350   0.089  2.0868  1.3538 -0.7667
   24MOL   H28827934   0.174   2.548   7.726 -0.3050  0.1196  0.7782
   24MOL   H28927935   0.331   2.597   0.042  0.3834 -0.0294 -0.9877
   24MOL   H29027936   0.202   2.688   0.214  3.8299  0.5284 -1.7305
   24MOL   H29127937   0.045   2.655   0.139  0.0312  0.7758  1.8065
   24MOL   H29227938   0.178   2.782   7.694 -2.5492 -2.0693  0.6407
   24MOL   H29327939   0.249   2.864   0.063 -0.8976  1.4457 -2.2706
   24MOL   H29427940   7.719   2.875   7.730 -1.5970  0.3470  1.3974
   24MOL   H29527941   7.747   2.905   0.142 -0.1764  1.1573 -0.1744
   24MOL   H29627942   0.170   3.071   0.102 -1.1617 -1.0641  0.7375
   24MOL   H29727943   0.133   3.078   7.689  2.6547 -1.5258  0.0446
   24MOL   H29827944   7.703   3.162   0.156  0.8393  3.0771  0.6922
   24MOL   H29927945   7.652   3.124   7.744 -1.7681 -1.1867  3.0828
   24MOL   H30027946   0.048   3.298   7.650  3.5743  0.3095  1.0962
   24MOL   H30127947   7.675   3.353   0.003  0.9765  0.7714 -2.3317
   24MOL   O30227948   0.063   3.471   0.158 -0.3381  0.3593  0.2579
   24MOL   C30327949   0.147   3.548   0.248 -0.5554 -0.2144 -0.4701
   24MOL   C30427950   0.087   3.515   0.394  0.3394  0.2083 -0.6418
   24MOL   C30527951   0.162   3.583   0.510 -0.1523 -0.4234 -0.2288
   24MOL   C30627952   0.104   3.581   0.656  0.0050 -0.1909  0.3225
   24MOL   C30727953   0.173   3.673   0.746 -0.1353 -0.1721  0.4318
   24MOL   C30827954   0.124   3.665   0.889 -0.4574  0.4750  0.7297
   24MOL   C30927955   0.155   3.791   0.961  0.1910  0.5922 -0.5413
   24MOL   C31027956   0.137   3.775   1.118 -0.1246  0.1407  0.3543
   24MOL   C31127957   7.749   3.793   1.166  0.0869  0.2648 -0.7255
   24MOL   C31227958   7.748   3.847   1.312  0.4881 -0.2174 -0.0098
   24MOL   O31327959   7.613   3.897   1.324  0.3866 -0.2426 -0.0452
   24MOL   C31427960   7.581   3.959   1.433  0.2781 -0.1088  0.1699
   24MOL   O31527961   7.646   3.966   1.535  0.1579  0.5087 -0.1312
   24MOL   C31627962   7.443   4.019   1.419 -0.7511  0.2392  0.4160
   24MOL   C31727963   7.423   4.120   1.313  0.4682 -0.4774 -0.4352
   24MOL   C31827964   7.289   4.170   1.281 -0.1105  0.7417  0.5504
   24MOL   C31927965   7.184   4.068   1.221  0.9726  0.1284  0.0854
   24MOL   C32027966   7.208   4.059   1.066 -0.1249  0.3196  0.3907
   24MOL   C32127967   7.098   3.977   0.997 -0.4415  0.1497 -0.5555
   24MOL   C32227968   7.125   3.958   0.847 -0.0468 -0.8595  0.5876
   24MOL   C32327969   7.033   3.860   0.778  0.3383 -0.1127  0.5562
   24MOL   C32427970   7.072   3.827   0.634  0.8234  0.7578 -0.3346
   24MOL   O32527971   7.137   3.902   0.568 -0.4441 -0.2224  0.8300
   24MOL   H32627972   0.250   3.515   0.243  0.4858  2.6177  1.2654
   24MOL   H32727973   0.143   3.654   0.220 -3.4743 -0.2753 -0.4615
   24MOL   H32827974   7.737   3.535   0.398 -0.1236 -2.2940  0.4401
   24MOL   H32927975   0.102   3.408   0.409  2.3255  0.2050 -2.3376
   24MOL   H33027976   0.265   3.545   0.507  0.1640  0.3647  0.3524
   24MOL   H33127977   0.176   3.689   0.488  2.1483 -0.7133 -0.3454
   24MOL   H33227978   7.754   3.603   0.659 -0.0279 -0.2143 -0.5380
   24MOL   H33327979   0.127   3.484   0.701 -0.9521 -0.2194  0.7796
   24MOL   H33427980   0.166   3.778   0.717  1.3527 -0.5542 -1.3991
   24MOL   H33527981   0.279   3.659   0.728 -0.1644  2.6391 -2.2627
   24MOL   H33627982   0.165   3.575   0.934 -0.8155  0.4007  0.9088
   24MOL   H33727983   0.018   3.641   0.896 -0.8296  1.9550  0.2004
   24MOL   H33827984   0.100   3.872   0.914 -0.2873  0.1599 -0.7302
   24MOL   H33927985   0.260   3.815   0.945 -0.1236  0.3230 -3.1701
   24MOL   H34027986   0.199   3.855   1.160  1.9548 -0.8086 -0.8331
   24MOL   H34127987   0.192   3.689   1.156  0.1711  0.9241  1.7412
   24MOL   H34227988   7.699   3.862   1.098 -1.3801 -1.7051 -1.6816
   24MOL   H34327989   7.702   3.695   1.164  2.8917 -1.1856  0.8970
   24MOL   H34427990   0.017   3.779   1.394 -0.7709 -1.9266 -1.0011
   24MOL   H34527991   0.058   3.933   1.323  2.2426 -1.8077  2.1382
   24MOL   H34627992   7.415   4.061   1.516  0.3897  0.1877  0.7750
   24MOL   H34727993   7.378   3.934   1.398  1.2905 -0.7129 -2.4305
   24MOL   H34827994   7.470   4.081   1.223  0.4443 -0.3954 -0.4836
   24MOL   H34927995   7.489   4.202   1.337  1.6305 -0.5655 -3.1352
   24MOL   H35027996   7.285   4.261   1.223  0.4008  0.7805  0.5685
   24MOL   H35127997   7.247   4.214   1.372  0.6581  3.2914 -0.3125
   24MOL   H35227998   7.084   4.110   1.231  1.4871  2.4826 -3.5732
   24MOL   H35327999   7.170   3.968   1.262 -0.8577  1.0928  1.8636
   24MOL   H35428000   7.213   4.155   1.014 -1.1338  0.1018 -0.1233
   24MOL   H35528001   7.297   4.000   1.045  0.1149  1.2667 -1.3970
   24MOL   H35628002   7.089   3.878   1.042 -0.5369  0.9197  1.1658
   24MOL   H35728003   6.998   4.020   1.008 -0.4806  0.7224 -2.8497
   24MOL   H35828004   7.228   3.943   0.815 -0.3331  1.5798 -1.6137
   24MOL   H35928005   7.103   4.055   0.803  1.5871  0.7144  3.1476
   24MOL   H36028006   7.021   3.763   0.827  0.6468 -0.4650 -0.0693
   24MOL   H36128007   6.930   3.896   0.782  0.1973 -0.1416 -2.0627
   24MOL   O36228008   7.019   3.706   0.593 -0.1050 -0.2723  0.1006
   24MOL   C36328009   7.039   3.666   0.455 -0.7755 -0.3931  0.3343
   24MOL   C36428010   6.913   3.685   0.364  0.0567  0.9079  0.0511
   24MOL   C36528011   6.806   3.579   0.391 -0.5212  0.8613 -0.0829
   24MOL   C36628012   6.666   3.611   0.326 -0.0002  0.1952  0.4865
   24MOL   C36728013   6.655   3.608   0.170  0.1405 -0.2994 -0.2736
   24MOL   C36828014   6.515   3.634   0.101 -0.1785 -0.0694 -0.2321
   24MOL   C36928015   6.468   3.784   0.117  0.8985  0.1584  0.2708
   24MOL   C37028016   6.331   3.797   0.054 -0.3171  0.2389  0.1319
   24MOL   C37128017   6.262   3.933   0.079 -1.2639  0.5321  0.0302
   24MOL   C37228018   6.113   3.933   0.022 -0.6786 -0.3927 -0.3876
   24MOL   O37328019   6.067   4.065   0.014  0.1493 -0.0739  0.1936
   24MOL   C37428020   6.042   4.122   7.653 -0.2706 -0.2808  0.7186
   24MOL   O37528021   6.055   4.065   7.548 -0.0010  0.0888  0.2444
   24MOL   C37628022   5.988   4.265   7.681 -0.4901  0.5773 -0.1640
   24MOL   C37728023   5.853   4.300   7.615 -0.2581 -0.4923 -0.1071
   24MOL   C37828024   5.805   4.443   7.633 -0.3296 -0.5117  0.3272
   24MOL   C37928025   5.667   4.481   7.577 -1.2673  0.6541  0.5782
   24MOL   C38028026   5.641   4.622   7.618  0.1729  0.2760  0.2570
   24MOL   C38128027   5.523   4.689   7.548  0.0390 -0.3887 -0.1764
   24MOL   C38228028   5.505   4.836   7.597  0.2030 -0.1120  0.2062
   24MOL   C38328029   5.394   4.921   7.525 -0.8909  0.0585  0.0775
   24MOL   C38428030   5.248   4.880   7.558 -0.9715  0.7168  0.1621
   24MOL   O38528031   5.228   4.795   7.643  0.3031 -0.1199 -0.0825
   24MOL   H38628032   7.122   3.714   0.403  0.4138 -3.7907 -1.0037
   24MOL   H38728033   7.066   3.561   0.463 -1.0105 -0.3946  1.2090
   24MOL   H38828034   6.865   3.782   0.375 -3.7355 -1.1614  2.9790
   24MOL   H38928035   6.931   3.675   0.257 -0.3212 -1.7517  0.1887
   24MOL   H39028036   6.845   3.485   0.353 -0.3940  0.3849  1.2130
   24MOL   H39128037   6.787   3.576   0.498  0.4291 -0.5102  0.0610
   24MOL   H39228038   6.591   3.544   0.368  0.6093 -0.9183 -0.1717
   24MOL   H39328039   6.647   3.708   0.370 -0.4044 -0.3776  1.5867
   24MOL   H39428040   6.692   3.512   0.135 -1.9752 -0.5815 -1.8338
   24MOL   H39528041   6.731   3.671   0.122 -0.5627 -0.0362 -1.0615
   24MOL   H39628042   6.444   3.565   0.146  0.2797 -0.4302 -0.0553
   24MOL   H39728043   6.521   3.609   7.751  0.6066  0.0892 -0.2288
   24MOL   H39828044   6.535   3.848   0.059  0.4343 -0.1183 -0.5926
   24MOL   H39928045   6.479   3.812   0.221  0.5995  0.1523  0.3040
   24MOL   H40028046   6.266   3.716   0.089  0.8357 -0.7328  0.0493
   24MOL   H40128047   6.346   3.783   7.704  0.8073  0.1716  0.2986
   24MOL   H40228048   6.260   3.962   0.184  2.2135 -0.3434  0.3799
   24MOL   H40328049   6.320   4.005   0.023  0.2946  0.0875  1.0547
   24MOL   H40428050   6.113   3.885   7.681  1.8268 -0.8560 -0.2079
   24MOL   H40528051   6.047   3.884   0.092 -0.4755  0.5496  0.4833
   24MOL   H40628052   6.065   4.330   7.640 -0.2233 -1.1253 -2.4348
   24MOL   H40728053   5.984   4.291   0.030  0.4748 -1.2894  0.3585
   24MOL   H40828054   5.774   4.233   7.650 -1.0868  0.5983  0.1297
   24MOL   H40928055   5.878   4.279   7.511  1.9271  0.5370  0.1805
   24MOL   H41028056   5.888   4.499   7.591 -0.1869  0.5984  2.0616
   24MOL   H41128057   5.810   4.464   7.740  2.2691  3.4208 -0.4694
   24MOL   H41228058   5.583   4.417   7.607 -0.5964 -0.5298 -0.0446
   24MOL   H41328059   5.665   4.467   7.469 -0.7551  0.0010  0.6501
   24MOL   H41428060   5.620   4.616   7.724 -2.1887  0.6579 -0.1624
   24MOL   H41528061   5.728   4.681   7.586 -0.1539  0.2666 -0.6698
   24MOL   H41628062   5.534   4.673   7.440  0.0033  0.6292 -0.3358
   24MOL   H41728063   5.436   4.628   7.574 -0.2053 -0.3136 -0.8054
   24MOL   H41828064   5.596   4.895   7.582  0.7225 -0.2854  2.4680
   24MOL   H41928065   5.486   4.843   7.704  1.6938 -1.5861  0.5847
   24MOL   H42028066   5.398   5.028   7.549 -1.4669 -0.0254  0.5792
   24MOL   H42128067   5.411   4.915   7.418  1.3047 -2.0642  0.4938
   24MOL   O42228068   5.153   4.941   7.496  0.2194  0.6794  0.1180
   24MOL   C42328069   5.022   4.930   7.532  0.3479  0.6579 -0.0891
   24MOL   C42428070   4.941   5.054   7.477  0.8105  0.6501  0.1270
   24MOL   C42528071   4.959   5.190   7.542 -0.0369 -0.1895 -0.0806
   24MOL   C42628072   4.867   5.298   7.484  0.2023  0.1374  0.0877
   24MOL   C42728073   4.716   5.270   7.513 -0.1396 -0.2069 -0.3411
   24MOL   C42828074   4.641   5.390   7.455 -0.3694  0.2251 -0.1139
   24MOL   C42928075   4.492   5.395   7.476  0.5661  0.0973  0.3760
   24MOL   C43028076   4.426   5.512   7.395 -0.1673 -0.1717  0.9819
   24MOL   C43128077   4.395   5.463   7.254  0.0549 -0.5761  0.1936
   24MOL   C43228078   4.343   5.570   7.163 -0.5920 -0.2414 -0.5803
   24MOL   O43328079   4.385   5.540   7.028 -0.0835  0.4395 -0.2684
   24MOL   C43428080   4.374   5.647   6.938 -0.3656  0.1226 -0.2786
   24MOL   O43528081   4.317   5.750   6.963  0.3460  0.1557 -0.1830
   24MOL   C43628082   4.443   5.607   6.804  0.5448  0.0515  0.0155
   24MOL   C43728083   4.380   5.493   6.717  0.2604 -0.5537 -0.7434
   24MOL   C43828084   4.425   5.349   6.757 -0.2871  0.0251  0.7004
   24MOL   C43928085   4.345   5.240   6.684  0.1788  0.7143  0.0296
   24MOL   C44028086   4.376   5.095   6.724  0.8402  0.1183 -0.4785
   24MOL   C44128087   4.514   5.044   6.671  0.6608 -0.1637 -0.5054
   24MOL   C44228088   4.528   4.888   6.691  0.5013  0.3109  0.3519
   24MOL   C44328089   4.506   4.801   6.568  0.2247 -0.7206  0.3637
   24MOL   C44428090   4.565   4.838   6.428 -0.6827  0.2187  0.6038
   24MOL   O44528091   4.678   4.892   6.425  0.0651  0.8948  0.1969
   24MOL   H44628092   4.989   4.835   7.489  1.4401  1.0380 -1.8301
   24MOL   H44728093   5.014   4.925   7.640  0.3823 -1.2153 -0.1596
   24MOL   H44828094   4.953   5.057   7.369 -2.3463 -1.7456 -0.3843
   24MOL   H44928095   4.835   5.029   7.485  1.3727 -2.0059 -0.1001
   24MOL   H45028096   4.923   5.183   7.645 -1.0193 -0.4049 -0.4376
   24MOL   H45128097   5.062   5.224   7.547  0.1472 -0.9112  1.1442
   24MOL   H45228098   4.898   5.397   7.517  3.2334 -0.3221 -1.2205
   24MOL   H45328099   4.883   5.302   7.376 -1.4578  1.0610 -0.1473
   24MOL   H45428100   4.696   5.264   7.620 -0.7107 -0.2195 -0.4515
   24MOL   H45528101   4.680   5.177   7.468 -2.0450  1.0147 -1.3721
   24MOL   H45628102   4.658   5.390   7.347 -0.5792 -0.0780 -0.1479
   24MOL   H45728103   4.677   5.487   7.489  2.5025 -0.6178 -0.6348
   24MOL   H45828104   4.473   5.418   7.581  1.4398  0.4659  0.4537
   24MOL   H45928105   4.435   5.304   7.453  0.7308 -0.2083  1.1532
   24MOL   H46028106   4.482   5.606   7.390 -2.3385  1.1879  1.1764
   24MOL   H46128107   4.327   5.533   7.435 -0.2859 -3.1567  2.3618
   24MOL   H46228108   4.490   5.429   7.213 -0.4602 -0.9837 -0.6806
   24MOL   H46328109   4.328   5.377   7.246 -2.1561  1.2190 -1.0135
   24MOL   H46428110   4.235   5.579   7.154 -0.6385  0.8862  0.9957
   24MOL   H46528111   4.372   5.665   7.206 -2.6511  1.0919 -2.0346
   24MOL   H46628112   4.552   5.603   6.811  0.6311 -0.9916 -1.6782
   24MOL   H46728113   4.439   5.694   6.738  2.1006  1.9706  2.3619
   24MOL   H46828114   4.393   5.527   6.615  0.0963 -0.1491 -0.6334
   24MOL   H46928115   4.275   5.511   6.742  0.3991  0.2057 -0.6916
   24MOL   H47028116   4.413   5.346   6.865 -0.7204  1.2010  0.6897
   24MOL   H47128117   4.530   5.331   6.733 -0.6966 -1.7869  0.1679
   24MOL   H47228118   4.358   5.242   6.576 -0.6504 -0.4460 -0.1046
   24MOL   H47328119   4.238   5.263   6.680  0.0004 -0.1860 -0.4818
   24MOL   H47428120   4.365   5.075   6.831 -1.1379 -0.4593 -0.7688
   24MOL   H47528121   4.296   5.028   6.694  1.9813 -0.8816 -1.3452
   24MOL   H47628122   4.524   5.080   6.568 -0.5330 -0.4096 -0.7148
   24MOL   H47728123   4.593   5.096   6.726 -0.5531  0.3891  0.7658
   24MOL   H47828124   4.484   4.867   6.788 -1.0971  0.1604 -0.3936
   24MOL   H47928125   4.632   4.869   6.719  0.3437  0.3011  0.9441
   24MOL   H48028126   4.537   4.701   6.598 -0.8951 -0.5010  2.3484
   24MOL   H48128127   4.398   4.796   6.550  0.1087 -2.2540  1.3756
   24MOL   O48228128   4.489   4.800   6.331  0.2557 -0.2607  0.1637
   24MOL   C48328129   4.541   4.802   6.195 -0.4712  0.3355  0.1441
   24MOL   C48428130   4.483   4.698   6.105 -0.4139  0.1731 -0.7397
   24MOL   C48528131   4.521   4.553   6.132  0.4023 -0.5407  0.1542
   24MOL   C48628132   4.454   4.462   6.029  0.4860  0.2213  0.3172
   24MOL   C48728133   4.488   4.310   6.041  0.4779 -0.1018 -0.2562
   24MOL   C48828134   4.386   4.218   5.971 -0.8141 -0.1269 -0.0401
   24MOL   C48928135   4.423   4.063   5.969  0.7158 -0.6479  0.0933
   24MOL   C49028136   4.328   3.980   5.880  0.4591 -0.3622 -0.2376
   24MOL   C49128137   4.358   3.834   5.895  0.0875  0.3521 -0.4723
   24MOL   C49228138   4.245   3.734   5.866  0.5863  0.5722  0.4261
   24MOL   O49328139   4.270   3.615   5.939 -0.0536  0.4020 -0.0071
   24MOL   C49428140   4.188   3.514   5.948  0.3982  0.8780  0.0243
   24MOL   O49528141   4.096   3.502   5.866  0.1223 -0.1986 -0.6495
   24MOL   C49628142   4.225   3.412   6.056 -0.0745 -0.5942  0.7612
   24MOL   C49728143   4.254   3.469   6.201  0.0552 -0.1915  0.8194
   24MOL   C49828144   4.348   3.373   6.277  0.2698 -0.1620  0.6656
   24MOL   C49928145   4.355   3.408   6.426 -0.5375 -0.1535  0.5220
   24MOL   C50028146   4.455   3.304   6.492 -0.5187  0.1268  0.3382
   24MOL   C50128147   4.610   3.311   6.454  0.3006  0.2750 -0.3062
   24MOL   C50228148   4.695   3.200   6.518  0.2979  0.4421 -0.5993
   24MOL   C50328149   4.694   3.216   6.669 -0.2038  1.1097 -0.0568
   24MOL   C50428150   4.813   3.141   6.740 -0.2040  0.3169  0.5508
   24MOL   O50528151   4.897   3.216   6.793 -0.8725  0.5635 -0.2881
   24MOL   H50628152   4.539   4.903   6.153  1.3251  0.1462 -0.4137
   24MOL   H50728153   4.644   4.769   6.208 -0.3231  1.0287  0.7855
   24MOL   H50828154   4.374   4.701   6.098 -0.5379  1.6274  1.0657
   24MOL   H50928155   4.507   4.731   6.004 -2.4747  1.9720 -0.7063
   24MOL   H51028156   4.626   4.526   6.136  1.1597  2.3286  0.6505
   24MOL   H51128157   4.486   4.517   6.228  0.9801  1.2422  1.0519
   24MOL   H51228158   4.346   4.475   6.036  0.4669  0.7138 -0.8075
   24MOL   H51328159   4.489   4.494   5.930 -0.7830  2.1329  0.4634
   24MOL   H51428160   4.493   4.288   6.147  0.2530  0.6018 -0.0918
   24MOL   H51528161   4.589   4.282   6.012  0.7670  0.2656  0.3961
   24MOL   H51628162   4.376   4.257   5.869  2.3193  1.1696  0.0899
   24MOL   H51728163   4.282   4.230   6.003 -0.5067  0.4874  0.7389
   24MOL   H51828164   4.439   4.030   6.072 -0.6894  2.1244  1.2586
   24MOL   H51928165   4.522   4.046   5.929  0.8008 -1.1243  0.4954
   24MOL   H52028166   4.334   4.021   5.780  1.4433  0.8621  0.3154
   24MOL   H52128167   4.227   3.986   5.923  1.0968  0.9793  1.1166
   24MOL   H52228168   4.459   3.814   5.860  0.8137  2.0809  0.5754
   24MOL   H52328169   4.369   3.821   6.003  0.8202 -1.5072 -0.7552
   24MOL   H52428170   4.146   3.770   5.892 -0.0467  0.3978 -1.5955
   24MOL   H52528171   4.234   3.723   5.758  1.8449  2.9980  0.0239
   24MOL   H52628172   4.323   3.377   6.022 -0.2424  1.0014 -1.4482
   24MOL   H52728173   4.141   3.343   6.064 -1.3810  1.0411  1.4077
   24MOL   H52828174   4.160   3.496   6.249 -0.1394 -1.9850  1.4593
   24MOL   H52928175   4.307   3.563   6.184  1.9054 -1.1246  1.3833
   24MOL   H53028176   4.443   3.386   6.225 -0.0252 -2.8582 -0.5945
   24MOL   H53128177   4.320   3.269   6.262 -1.2814  0.1959  0.8988
   24MOL   H53228178   4.255   3.416   6.467 -0.3301  1.9968  0.7083
   24MOL   H53328179   4.390   3.511   6.438  0.8508 -0.7259  1.5009
   24MOL   H53428180   4.436   3.307   6.599  2.0186  1.6769  0.7861
   24MOL   H53528181   4.420   3.206   6.460 -0.4421  0.8603 -2.1007
   24MOL   H53628182   4.622   3.309   6.345  2.0885 -3.2620 -0.1246
   24MOL   H53728183   4.653   3.401   6.498 -2.9614  1.8461 -0.1915
   24MOL   H53828184   4.797   3.213   6.484 -0.3603  3.1986 -1.6608
   24MOL   H53928185   4.656   3.103   6.487 -0.0890  0.2121  0.5916
   24MOL   H54028186   4.689   3.320   6.701 -0.1802  1.0869  0.0220
   24MOL   H54128187   4.597   3.178   6.702  0.4244 -1.3592 -0.9650
   24MOL   O54228188   4.822   3.010   6.722  0.4033 -0.2857  0.1632
   24MOL   C54328189   4.936   2.936   6.764 -0.5655 -0.9636  0.9336
   24MOL   C54428190   5.035   2.913   6.647 -0.1956 -0.2820 -0.4938
   24MOL   C54528191   5.169   2.864   6.703  0.4916  0.0734  0.1179
   24MOL   C54628192   5.284   2.893   6.601 -0.3145 -0.4605  0.2772
   24MOL   C54728193   5.423   2.857   6.660 -0.2108  0.6199  0.1489
   24MOL   C54828194   5.544   2.896   6.570 -0.3519  0.4346  0.2868
   24MOL   C54928195   5.680   2.850   6.622 -0.6233 -0.1683  0.2512
   24MOL   C55028196   5.785   2.840   6.504  0.5488 -1.1835 -0.1867
   24MOL   C55128197   5.822   2.983   6.445 -0.0028  0.0838  0.1363
   24MOL   C55228198   5.964   2.982   6.379  0.4636 -0.2978  0.5005
   24MOL   O55328199   5.978   3.104   6.310 -0.2018 -0.2030  0.2583
   24MOL   C55428200   5.951   3.107   6.175  0.2499  0.2984 -0.2570
   24MOL   O55528201   5.909   3.008   6.111  0.1493 -0.1708  0.2693
   24MOL   C55628202   5.979   3.247   6.112  0.6638  0.4840 -0.0484
   24MOL   C55728203   5.937   3.368   6.191  0.2116 -1.1716  0.0534
   24MOL   C55828204   6.038   3.419   6.296 -0.0383 -0.1350 -0.3492
   24MOL   C55928205   6.176   3.452   6.239  0.0066 -0.4333 -0.2658
   24MOL   C56028206   6.261   3.547   6.326 -0.5476 -0.1185  0.3643
   24MOL   C56128207   6.406   3.557   6.286 -0.5073 -0.8698  0.3715
   24MOL   C56228208   6.492   3.643   6.378 -0.8711 -0.2599  0.1811
   24MOL   C56328209   6.639   3.629   6.340 -0.0492  0.7133 -0.0835
   24MOL   C56428210   6.734   3.683   6.441 -0.0985 -0.7027 -0.7627
   24MOL   O56528211   6.693   3.714   6.556 -0.6655  0.5498 -0.5054
   24MOL   H56628212   4.990   2.989   6.842 -0.4268 -1.0869  0.9202
   24MOL   H56728213   4.904   2.844   6.814  2.5398 -2.8915 -0.4492
   24MOL   H56828214   4.989   2.835   6.587  0.7952 -2.6291  1.7409
   24MOL   H56928215   5.036   3.008   6.593  0.7478 -0.0949 -0.1541
   24MOL   H57028216   5.186   2.914   6.798  1.2943 -0.8886  0.4923
   24MOL   H57128217   5.176   2.757   6.723 -0.6319 -0.1170 -0.4873
   24MOL   H57228218   5.267   2.839   6.508  0.8598  0.8294 -0.7044
   24MOL   H57328219   5.285   2.995   6.562  2.1194 -0.9127 -0.9417
   24MOL   H57428220   5.427   2.751   6.683 -0.9404  0.6548  0.4436
   24MOL   H57528221   5.444   2.889   6.762 -0.7004  0.5140  0.2833
   24MOL   H57628222   5.541   3.004   6.551 -0.5040  0.0601 -1.9521
   24MOL   H57728223   5.530   2.846   6.474 -1.9305 -0.5039  0.9842
   24MOL   H57828224   5.670   2.755   6.674 -1.7923 -0.0592  0.2310
   24MOL   H57928225   5.725   2.922   6.690  2.4792 -0.0893 -1.7556
   24MOL   H58028226   5.748   2.780   6.421 -2.2834  0.6852 -0.3423
   24MOL   H58128227   5.874   2.792   6.546  1.5649  0.1772 -0.7192
   24MOL   H58228228   5.746   2.995   6.368  0.1618 -0.1735 -0.0652
   24MOL   H58328229   5.824   3.072   6.509  2.3764  0.6490 -0.6436
   24MOL   H58428230   6.049   2.981   6.447  1.5999 -0.4826 -0.9116
   24MOL   H58528231   5.973   2.892   6.319  1.4948  1.0871 -1.4828
   24MOL   H58628232   5.920   3.250   6.021  0.4934  2.1479  0.1101
   24MOL   H58728233   6.082   3.259   6.080  0.6821 -2.1373 -1.0814
   24MOL   H58828234   5.839   3.353   6.235 -0.7300  1.6427 -0.9540
   24MOL   H58928235   5.921   3.454   6.126 -0.2312  0.1175  1.8469
   24MOL   H59028236   6.029   3.344   6.375 -2.8476 -1.6820 -2.0400
   24MOL   H59128237   5.989   3.510   6.331  0.4029  0.8894 -2.3196
   24MOL   H59228238   6.153   3.491   6.139  0.2583  0.9875  0.2219
   24MOL   H59328239   6.218   3.352   6.222  1.1531  0.2435 -1.5740
   24MOL   H59428240   6.215   3.646   6.335  1.4512  0.6139  3.3982
   24MOL   H59528241   6.271   3.497   6.423  2.2404  1.4410  0.9409
   24MOL   H59628242   6.446   3.456   6.287  2.5629  0.3069  0.5710
   24MOL   H59728243   6.408   3.597   6.185  2.7724  1.2725  1.2052
   24MOL   H59828244   6.481   3.596   6.476  2.8230  0.5772  1.0683
   24MOL   H59928245   6.447   3.742   6.380 -1.4355 -0.5210  0.7660
   24MOL   H60028246   6.668   3.528   6.313 -2.0455  0.2400 -0.5587
   24MOL   H60128247   6.651   3.682   6.245  0.9788  0.0547 -0.3294
   24MOL   O60228248   6.861   3.689   6.395 -0.2614 -0.2232  0.4169
   24MOL   C60328249   6.964   3.745   6.476 -0.9335 -0.1637  0.4320
   24MOL   C60428250   7.082   3.793   6.385  0.0400  0.3022 -0.1972
   24MOL   C60528251   7.047   3.907   6.285  0.0335 -0.8702 -0.3722
   24MOL   C60628252   7.142   3.934   6.172 -0.6056  0.5450  1.4794
   24MOL   C60728253   7.117   4.048   6.066  0.1992 -0.1264  0.2567
   24MOL   C60828254   6.968   4.069   6.035  0.9051 -0.7787  0.4789
   24MOL   C60928255   6.943   4.179   5.933  0.0488 -0.6554  0.2518
   24MOL   C61028256   6.798   4.230   5.931  0.8067 -0.6954 -0.2694
   24MOL   C61128257   6.760   4.341   5.828 -0.3670  0.2732 -1.0446
   24MOL   C61228258   6.624   4.403   5.867 -0.5183 -0.3091 -0.1513
   24MOL   O61328259   6.593   4.523   5.794 -0.1055  0.0540  0.5770
   24MOL   C61428260   6.490   4.530   5.702  0.0447 -0.1071  0.3803
   24MOL   O61528261   6.396   4.451   5.698 -0.9563 -0.1587 -0.3879
   24MOL   C61628262   6.489   4.661   5.621 -0.3081  0.0612 -0.3547
   24MOL   C61728263   6.363   4.687   5.538 -0.3388  0.4016 -0.0122
   24MOL   C61828264   6.352   4.598   5.415  0.2203 -0.4892 -0.3062
   24MOL   C61928265   6.273   4.668   5.302  0.5930 -0.2680 -0.0073
   24MOL   C62028266   6.257   4.577   5.178 -0.0968 -0.0070 -0.2846
   24MOL   C62128267   6.233   4.652   5.051 -0.3018  0.4088  0.2998
   24MOL   C62228268   6.351   4.742   5.009 -0.2198 -0.1835 -0.1064
   24MOL   C62328269   6.371   4.751   4.856  0.7045  0.0038  0.3088
   24MOL   C62428270   6.266   4.849   4.794 -0.1000 -0.6055 -0.3572
   24MOL   O62528271   6.295   4.962   4.758 -0.6356  0.0011 -0.3600
   24MOL   H62628272   6.929   3.838   6.522  1.6637  0.8307  0.5050
   24MOL   H62728273   7.003   3.676   6.551  0.1539 -0.6132 -0.5258
   24MOL   H62828274   7.154   3.823   6.461  0.0557 -1.7238  0.6233
   24MOL   H62928275   7.125   3.707   6.334 -0.6910 -1.1523  1.5708
   24MOL   H63028276   6.949   3.881   6.244 -0.3011  0.5956 -0.5346
   24MOL   H63128277   7.019   4.001   6.333  1.3131 -0.6290 -0.0800
   24MOL   H63228278   7.242   3.947   6.214  0.3343  0.8910 -0.8004
   24MOL   H63328279   7.154   3.839   6.120 -0.8193  1.7830 -0.8741
   24MOL   H63428280   7.159   4.030   5.967 -0.2199  1.5099 -0.2469
   24MOL   H63528281   7.166   4.135   6.110 -1.3756  0.9934 -0.1609
   24MOL   H63628282   6.913   4.090   6.127  0.2379  0.2184 -0.1369
   24MOL   H63728283   6.934   3.972   6.000 -0.7212 -0.5617  1.3809
   24MOL   H63828284   6.969   4.136   5.836  0.9046 -0.4892  0.4053
   24MOL   H63928285   7.014   4.259   5.955 -2.3364  0.9745  2.3949
   24MOL   H64028286   6.782   4.276   6.028  1.8754 -1.6451  0.3669
   24MOL   H64128287   6.731   4.144   5.927 -0.0555  0.0275 -3.3627
   24MOL   H64228288   6.833   4.422   5.835  0.3572 -0.5044  0.7022
   24MOL   H64328289   6.761   4.296   5.729 -1.7725  0.2095 -1.0290
   24MOL   H64428290   6.549   4.326   5.849 -1.3217 -0.2528  2.6834
   24MOL   H64528291   6.617   4.435   5.971  0.7462 -1.2772  0.2350
   24MOL   H64628292   6.581   4.663   5.562  0.3934 -0.0331  0.7264
   24MOL   H64728293   6.493   4.739   5.697  2.1774 -0.0513 -0.3194
   24MOL   H64828294   6.372   4.789   5.501  1.4289 -0.0223 -0.8434
   24MOL   H64928295   6.277   4.712   5.599 -0.6014  0.1453 -0.2778
   24MOL   H65028296   6.307   4.502   5.438  0.5617 -0.6794 -0.4327
   24MOL   H65128297   6.452   4.583   5.376 -0.3134 -1.3581 -1.3688
   24MOL   H65228298   6.312   4.766   5.275  1.5848 -0.7980 -0.5029
   24MOL   H65328299   6.170   4.685   5.334  0.4650  0.1935 -0.6597
   24MOL   H65428300   6.334   4.502   5.162  1.0784  0.8306  1.3313
   24MOL   H65528301   6.168   4.515   5.189 -0.1404  0.1017 -0.0235
   24MOL   H65628302   6.216   4.578   4.973  1.1925  1.2268 -0.8367
   24MOL   H65728303   6.145   4.716   5.061 -0.1769  0.6952 -0.4046
   24MOL   H65828304   6.446   4.713   5.055  1.4693  1.6581 -2.2847
   24MOL   H65928305   6.327   4.843   5.041  0.2854  0.8947 -2.9245
   24MOL   H66028306   6.473   4.786   4.842  0.1780  2.1800  1.6295
   24MOL   H66128307   6.364   4.652   4.812  0.0401 -0.0396  0.5122
   24MOL   O66228308   6.137   4.793   4.789 -1.2562 -0.0294 -0.7565
   24MOL   C66328309   6.034   4.867   4.738  0.2510  0.1303 -0.0354
   24MOL   C66428310   5.891   4.811   4.769 -0.2590 -0.4059  0.1028
   24MOL   C66528311   5.862   4.839   4.918 -0.0616  0.2641  0.2930
   24MOL   C66628312   5.716   4.792   4.945  0.4231  0.1525  0.2199
   24MOL   C66728313   5.664   4.813   5.089  0.1260  0.0415  0.0298
   24MOL   C66828314   5.723   4.725   5.197  0.6811 -0.3290 -0.2019
   24MOL   C66928315   5.690   4.765   5.341  0.3541 -0.5320 -0.2042
   24MOL   C67028316   5.722   4.650   5.438 -0.4916  0.5776 -0.3233
   24MOL   C67128317   5.646   4.516   5.421 -0.3734  0.2648  0.1917
   24MOL   C67228318   5.633   4.440   5.549  0.0964 -0.5863 -0.5541
   24MOL   O67328319   5.748   4.364   5.568  0.1113  0.8055 -0.0198
   24MOL   C67428320   5.835   4.400   5.667  1.0357 -0.4134  0.1007
   24MOL   O67528321   5.824   4.498   5.743  0.7749 -1.0273 -0.5265
   24MOL   C67628322   5.941   4.295   5.689 -0.0319  0.3841  0.1248
   24MOL   C67728323   6.051   4.275   5.579 -0.0843  0.2079  0.2146
   24MOL   C67828324   5.992   4.259   5.437 -0.0476  0.1304  0.1543
   24MOL   C67928325   6.092   4.187   5.337  0.1322  0.5950 -0.2302
   24MOL   C68028326   6.031   4.149   5.204  0.4335  0.0584 -0.1416
   24MOL   C68128327   6.051   4.262   5.102  0.1791 -0.5991 -0.0819
   24MOL   C68228328   5.963   4.251   4.977 -1.0148  0.4064  0.2276
   24MOL   C68328329   6.019   4.357   4.882  1.1453  0.5437 -0.6422
   24MOL   C68428330   5.941   4.340   4.753 -0.2276 -0.4302  0.2147
   24MOL   O68528331   5.817   4.319   4.746  0.5119  0.0626 -0.1265
   24MOL   H68628332   6.041   4.973   4.764 -2.5702  1.5523 -4.4536
   24MOL   H68728333   6.045   4.880   4.630  0.0706 -2.1814 -0.3477
   24MOL   H68828334   5.813   4.842   4.699  0.0576  0.0547 -0.0499
   24MOL   H68928335   5.894   4.706   4.741 -2.2459 -1.0299  2.1738
   24MOL   H69028336   5.941   4.789   4.975 -0.4292  1.2106  1.6592
   24MOL   H69128337   5.867   4.944   4.945  1.8881  0.5368 -1.0435
   24MOL   H69228338   5.646   4.849   4.884 -0.0223 -0.8834 -0.2498
   24MOL   H69328339   5.721   4.687   4.918  3.9954  0.0865  0.9481
   24MOL   H69428340   5.555   4.806   5.085  0.2253 -2.3659  0.6174
   24MOL   H69528341   5.689   4.916   5.111  2.7966 -0.4493 -0.5946
   24MOL   H69628342   5.830   4.715   5.184  0.5459 -2.0943 -0.1055
   24MOL   H69728343   5.676   4.627   5.183 -1.4691  0.6357 -0.0537
   24MOL   H69828344   5.583   4.784   5.352  0.3961 -0.2769 -0.2330
   24MOL   H69928345   5.737   4.858   5.373 -0.1361 -1.6602  4.1845
   24MOL   H70028346   5.709   4.694   5.537 -0.2353 -1.0225  0.4347
   24MOL   H70128347   5.828   4.629   5.439 -0.1577  2.2117  0.6455
   24MOL   H70228348   5.550   4.532   5.371 -0.3975 -2.2276 -0.6116
   24MOL   H70328349   5.690   4.446   5.350 -1.8528  0.1851 -0.6869
   24MOL   H70428350   5.590   4.501   5.628  1.1387  0.6004 -0.8851
   24MOL   H70528351   5.554   4.367   5.535 -0.3755 -0.0053 -0.9688
   24MOL   H70628352   5.890   4.200   5.704  0.2474  0.4647  1.6655
   24MOL   H70728353   5.993   4.323   5.780  1.4279 -0.1438 -0.5258
   24MOL   H70828354   6.107   4.186   5.608 -0.4942  0.5399  2.0890
   24MOL   H70928355   6.132   4.346   5.590  1.2366 -1.2804  0.3362
   24MOL   H71028356   5.966   4.360   5.406 -1.2200 -0.0583  0.5209
   24MOL   H71128357   5.902   4.200   5.452 -0.3710  0.4832 -0.4233
   24MOL   H71228358   6.122   4.091   5.378 -0.5295  0.5531  0.1753
   24MOL   H71328359   6.180   4.249   5.322  0.3939  0.4409  0.6886
   24MOL   H71428360   6.087   4.065   5.162 -1.3883 -0.9494 -0.6159
   24MOL   H71528361   5.926   4.121   5.201  0.2962  0.5118  0.3687
   24MOL   H71628362   6.003   4.352   5.139  0.6867  0.2811 -1.5156
   24MOL   H71728363   6.157   4.280   5.086  0.2321 -1.2144 -0.4702
   24MOL   H71828364   5.857   4.260   5.000 -1.3354  0.0784 -1.0615
   24MOL   H71928365   5.979   4.150   4.940 -0.2460  1.5344 -2.6569
   24MOL   H72028366   6.017   4.459   4.920 -1.3569 -0.1842  1.3760
   24MOL   H72128367   6.125   4.335   4.868  1.5952  1.1565  1.6399
   24MOL   O72228368   6.026   4.340   4.658 -0.0032  0.7770  0.1127
   24MOL   C72328369   5.985   4.318   4.520 -0.0628 -0.3516 -0.6669
   24MOL   C72428370   5.971   4.455   4.442 -0.3134 -0.2490 -0.2404
   24MOL   C72528371   6.096   4.547   4.447  0.0296 -0.0208 -0.0333
   24MOL   C72628372   6.099   4.654   4.337 -0.2229  0.9313 -0.3547
   24MOL   C72728373   6.202   4.761   4.360 -0.1903  0.5356  0.2515
   24MOL   C72828374   6.217   4.861   4.237  0.1369 -1.0644 -0.0036
   24MOL   C72928375   6.329   4.961   4.268  0.2119  0.3829 -0.3971
   24MOL   C73028376   6.355   5.058   4.151  0.4716 -0.2584  0.3257
   24MOL   C73128377   6.229   5.141   4.096  0.3678  1.0032  0.1886
   24MOL   C73228378   6.267   5.232   3.980 -0.3226  0.1996 -0.0215
   24MOL   O73328379   6.305   5.158   3.864  0.0939  0.1762  0.2754
   24MOL   C73428380   6.244   5.169   3.748 -1.0632  0.1703 -0.4254
   24MOL   O73528381   6.167   5.258   3.722  0.1086 -0.1149 -0.0909
   24MOL   C73628382   6.282   5.070   3.646 -0.5175 -0.5590 -0.2016
   24MOL   C73728383   6.252   4.928   3.703 -0.4474 -0.3968 -1.4230
   24MOL   C73828384   6.246   4.806   3.602 -0.2148  0.3644  0.1312
   24MOL   C73928385   6.224   4.670   3.674 -0.0457 -0.3717  0.1276
   24MOL   C74028386   6.074   4.643   3.691 -0.1126 -0.2244 -0.0374
   24MOL   C74128387   6.056   4.506   3.754 -0.2335 -0.4094 -0.0235
   24MOL   C74228388   5.979   4.507   3.886  0.4122 -0.3001 -0.0738
   24MOL   C74328389   5.976   4.371   3.962 -0.6982 -0.5543  0.5148
   24MOL   C74428390   5.851   4.279   3.926  0.4697 -0.2677 -0.1666
   24MOL   O74528391   5.866   4.165   3.878 -0.0594  0.1113 -0.8304
   24MOL   H74628392   6.059   4.255   4.470 -0.6041 -0.7720 -0.9518
   24MOL   H74728393   5.892   4.261   4.512 -0.0102 -0.6676  0.9162
   24MOL   H74828394   5.932   4.446   4.340 -1.1256  0.0244  0.0473
   24MOL   H74928395   5.889   4.515   4.481 -0.2576  0.4719 -1.1860
   24MOL   H75028396   6.107   4.599   4.542  0.6612  1.2353 -0.7813
   24MOL   H75128397   6.187   4.488   4.437  0.4299  0.6509 -0.3618
   24MOL   H75228398   6.125   4.601   4.245 -1.2732  2.1453 -1.3688
   24MOL   H75328399   6.005   4.706   4.322 -0.9254  0.0175  0.8001
   24MOL   H75428400   6.296   4.711   4.386 -0.4070  0.8533  1.7059
   24MOL   H75528401   6.180   4.814   4.453 -1.2013 -0.0651  0.3654
   24MOL   H75628402   6.125   4.918   4.225  0.7403 -0.1390 -0.3123
   24MOL   H75728403   6.227   4.816   4.138 -0.8275 -3.6728  1.0374
   24MOL   H75828404   6.418   4.920   4.315 -0.4064  0.1629  0.5997
   24MOL   H75928405   6.304   5.034   4.345 -0.3294 -0.0937 -0.1159
   24MOL   H76028406   6.397   5.001   4.069 -1.0441 -2.2918  0.9301
   24MOL   H76128407   6.429   5.129   4.188 -0.3594 -0.3480  2.2617
   24MOL   H76228408   6.162   5.066   4.052  1.2422  0.5694 -0.4343
   24MOL   H76328409   6.179   5.178   4.185  1.1825  1.0578  0.6301
   24MOL   H76428410   6.187   5.304   3.964 -0.7853 -0.5411 -1.1013
   24MOL   H76528411   6.358   5.288   4.001  0.1274 -1.0492  1.3718
   24MOL   H76628412   6.381   5.068   3.600 -0.2532  2.2791  0.2061
   24MOL   H76728413   6.222   5.084   3.556  1.9801  0.3818 -1.7842
   24MOL   H76828414   6.158   4.942   3.758  0.5809  2.7351 -0.3770
   24MOL   H76928415   6.331   4.905   3.775 -1.8707 -1.6906 -0.2326
   24MOL   H77028416   6.341   4.807   3.549 -0.8508  0.7414 -1.0090
   24MOL   H77128417   6.172   4.820   3.523 -0.6758 -0.8689  0.3316
   24MOL   H77228418   6.274   4.665   3.770 -0.6606 -0.1504  0.4622
   24MOL   H77328419   6.255   4.587   3.610  0.1353 -0.8223  0.7940
   24MOL   H77428420   6.038   4.722   3.757 -0.8036 -0.5659 -0.0021
   24MOL   H77528421   6.021   4.659   3.597 -1.4565  0.1585  0.7849
   24MOL   H77628422   5.992   4.446   3.689  1.1349 -0.7383 -1.1073
   24MOL   H77728423   6.152   4.455   3.764 -0.4534 -0.6366  0.9852
   24MOL   H77828424   5.877   4.547   3.877 -0.8131 -2.4192  3.4746
   24MOL   H77928425   6.023   4.588   3.943 -0.6947 -0.2197  0.6893
   24MOL   H78028426   6.071   4.321   3.945 -1.2881 -0.9525 -1.8396
   24MOL   H78128427   5.979   4.391   4.069 -2.5150  1.4125  0.2298
   24MOL   O78228428   5.731   4.331   3.960 -0.0438  0.0163 -0.3348
   24MOL   C78328429   5.611   4.266   3.918 -0.2096  0.6979  0.2888
   24MOL   C78428430   5.508   4.382   3.897  0.2739 -0.1813 -0.1904
   24MOL   C78528431   5.456   4.448   4.026  0.1806  0.6242 -0.2094
   24MOL   C78628432   5.318   4.516   4.002  0.1221 -0.5412  0.5294
   24MOL   C78728433   5.254   4.576   4.137 -0.2811  0.3365  0.4653
   24MOL   C78828434   5.110   4.619   4.125 -0.4566  0.4449  0.4030
   24MOL   C78928435   5.081   4.754   4.040  0.5788 -0.1239 -0.3881
   24MOL   C79028436   5.125   4.874   4.126 -0.0648 -0.8129  0.1223
   24MOL   C79128437   5.084   5.004   4.064 -0.0552  0.7729 -0.0809
   24MOL   C79228438   5.065   5.120   4.154 -0.2254 -0.0812  0.0350
   24MOL   O79328439   5.182   5.204   4.162 -0.1211 -0.9470 -0.1785
   24MOL   C79428440   5.266   5.205   4.261 -0.0058  0.4511  0.2125
   24MOL   O79528441   5.263   5.141   4.361 -0.2346  0.6110  0.4589
   24MOL   C79628442   5.392   5.296   4.232 -0.7157  0.7639 -0.4667
   24MOL   C79728443   5.358   5.418   4.144 -0.4161 -0.2750  0.2207
   24MOL   C79828444   5.475   5.509   4.122 -0.8484 -0.7186  0.5272
   24MOL   C79928445   5.438   5.631   4.026  0.0311 -0.5322  0.1696
   24MOL   C80028446   5.555   5.737   4.035 -0.2129 -0.2282 -0.3362
   24MOL   C80128447   5.534   5.857   3.932 -0.3090  0.7184  1.1743
   24MOL   C80228448   5.660   5.943   3.925  0.8929 -1.0572  0.8253
   24MOL   C80328449   5.645   6.081   3.849 -0.2264 -0.4324 -0.8272
   24MOL   C80428450   5.596   6.065   3.699 -0.0064 -0.7613  0.6988
   24MOL   O80528451   5.477   6.082   3.679 -0.5698 -0.4494 -0.1915
   24MOL   H80628452   5.634   4.228   3.819  0.6924 -0.1740  0.8236
   24MOL   H80728453   5.572   4.187   3.983  2.9106 -2.1955 -1.1925
   24MOL   H80828454   5.543   4.466   3.836  0.6447 -0.7983 -0.8255
   24MOL   H80928455   5.433   4.328   3.839  1.8855 -1.7172 -0.8779
   24MOL   H81028456   5.439   4.365   4.095 -0.2394  0.8298 -0.0597
   24MOL   H81128457   5.535   4.510   4.067  1.1001  0.3365 -1.5273
   24MOL   H81228458   5.329   4.599   3.932  0.7570  1.0465  2.4612
   24MOL   H81328459   5.253   4.440   3.958  0.6283 -0.1281 -0.9646
   24MOL   H81428460   5.320   4.655   4.171  0.2218  0.4099 -0.6625
   24MOL   H81528461   5.263   4.505   4.219 -1.8744 -3.7192 -2.7160
   24MOL   H81628462   5.062   4.635   4.221  2.4030 -0.2986  2.0217
   24MOL   H81728463   5.064   4.539   4.066  0.2620  0.4321 -0.1500
   24MOL   H81828464   4.973   4.755   4.031  0.3402 -1.3963  1.9925
   24MOL   H81928465   5.126   4.757   3.941  0.7423  1.6260 -0.2819
   24MOL   H82028466   5.232   4.882   4.139 -0.2359  2.1576  0.0598
   24MOL   H82128467   5.079   4.869   4.225 -0.3439  1.4746  0.1458
   24MOL   H82228468   5.153   5.025   3.982  1.2730  2.0059  1.3285
   24MOL   H82328469   4.984   4.977   4.028  0.9375  0.5883 -2.8112
   24MOL   H82428470   4.984   5.180   4.112  0.8578 -1.0846 -3.6704
   24MOL   H82528471   5.039   5.094   4.257  0.0330 -1.5450 -0.2569
   24MOL   H82628472   5.471   5.239   4.184  0.2829  0.4208  1.5508
   24MOL   H82728473   5.430   5.331   4.328 -0.2946 -1.7365  0.3113
   24MOL   H82828474   5.287   5.488   4.188  0.5725  1.7263 -1.2751
   24MOL   H82928475   5.318   5.391   4.047 -2.0155 -0.0961  0.8223
   24MOL   H83028476   5.550   5.456   4.064  0.4209 -0.4401  1.8667
   24MOL   H83128477   5.508   5.538   4.222  1.0325  0.5524 -0.4375
   24MOL   H83228478   5.346   5.672   4.066 -0.5755  0.0319 -1.7675
   24MOL   H83328479   5.412   5.586   3.930 -0.4312 -0.3142  0.1894
   24MOL   H83428480   5.544   5.777   4.136 -0.0198 -1.3917  0.1518
   24MOL   H83528481   5.652   5.693   4.013 -0.6789 -0.9168 -1.0845
   24MOL   H83628482   5.507   5.819   3.833 -0.9167  0.1627  1.5480
   24MOL   H83728483   5.454   5.923   3.965 -0.0085  0.5748  2.1847
   24MOL   H83828484   5.731   5.875   3.878 -1.3666 -3.7978  1.2672
   24MOL   H83928485   5.696   5.954   4.027 -1.2592 -0.7519  1.5892
   24MOL   H84028486   5.574   6.146   3.902  2.4966  2.8176 -0.9765
   24MOL   H84128487   5.730   6.148   3.854  0.7988 -1.8533  1.6780
   24MOL   O84228488   5.675   6.014   3.610  0.0296  0.1456 -0.0356
   24MOL   C84328489   5.637   5.980   3.476  0.6804 -0.2983 -0.0774
   24MOL   C84428490   5.670   5.832   3.448  0.4816  0.2181 -0.1351
   24MOL   C84528491   5.587   5.734   3.535 -0.0913 -0.7234  0.3337
   24MOL   C84628492   5.432   5.732   3.510  0.2452 -0.0835 -0.6434
   24MOL   C84728493   5.367   5.616   3.590  0.0523  0.0156 -0.3522
   24MOL   C84828494   5.217   5.631   3.624 -0.0226 -0.0696 -0.2928
   24MOL   C84928495   5.173   5.503   3.693 -0.2118  0.0502 -0.0801
   24MOL   C85028496   5.031   5.494   3.743 -0.7699  0.2938 -0.0511
   24MOL   C85128497   4.981   5.349   3.768  0.2398 -0.4318  0.6112
   24MOL   C85228498   4.974   5.263   3.634  0.0685 -0.6473  0.1546
   24MOL   O85328499   4.940   5.131   3.665 -0.1234 -0.2125 -0.3215
   24MOL   C85428500   4.964   5.037   3.579  0.6964  0.0639  0.4439
   24MOL   O85528501   5.014   5.049   3.469  0.1925 -0.0707  0.4662
   24MOL   C85628502   4.930   4.902   3.639  0.3484 -0.3732 -0.1111
   24MOL   C85728503   4.787   4.895   3.695  0.3743 -0.2219 -0.0072
   24MOL   C85828504   4.761   4.941   3.836  0.1191 -0.4616  0.3058
   24MOL   C85928505   4.610   4.953   3.883  0.1598  0.4599 -0.0588
   24MOL   C86028506   4.516   4.831   3.874 -0.6429  0.5859  0.0559
   24MOL   C86128507   4.371   4.881   3.897  0.3890  0.0363 -0.6223
   24MOL   C86228508   4.267   4.770   3.865  0.2039 -0.3665 -0.3000
   24MOL   C86328509   4.125   4.827   3.885 -0.2848  0.0129 -0.5641
   24MOL   C86428510   4.034   4.866   3.758 -0.6068 -0.5622  0.6540
   24MOL   O86528511   3.974   4.774   3.702 -0.1455  0.6505  0.0003
   24MOL   H86628512   5.531   6.003   3.460  0.5015 -0.7766  0.3739
   24MOL   H86728513   5.691   6.048   3.411  2.4838  0.7816  2.5029
   24MOL   H86828514   5.657   5.805   3.343  2.3547  0.7982 -0.5363
   24MOL   H86928515   5.771   5.793   3.461  0.2299 -1.3441 -2.7180
   24MOL   H87028516   5.628   5.634   3.522 -0.9588 -1.0238 -0.1675
   24MOL   H87128517   5.605   5.752   3.641 -0.4080  0.6644  0.1519
   24MOL   H87228518   5.389   5.826   3.544 -0.0964  0.1481 -1.6998
   24MOL   H87328519   5.414   5.717   3.403  0.3950 -1.1145 -0.5245
   24MOL   H87428520   5.424   5.607   3.682 -0.2463  1.1301 -0.0405
   24MOL   H87528521   5.374   5.517   3.546  2.0835  0.4440 -1.0480
   24MOL   H87628522   5.160   5.646   3.532 -1.5530 -0.1278  0.6259
   24MOL   H87728523   5.189   5.717   3.685 -0.9467 -0.5842  0.0099
   24MOL   H87828524   5.244   5.464   3.767  0.2361  1.4395  0.2288
   24MOL   H87928525   5.185   5.435   3.609 -0.8276  0.3598 -0.4181
   24MOL   H88028526   4.964   5.535   3.668  0.4486  1.7266 -0.3892
   24MOL   H88128527   5.032   5.546   3.838 -0.1277  1.0783 -0.4810
   24MOL   H88228528   5.051   5.303   3.836  1.4895 -0.1209 -0.4347
   24MOL   H88328529   4.887   5.348   3.823  0.3004  3.0719  0.9294
   24MOL   H88428530   4.901   5.309   3.567  0.2687  0.8458  0.9362
   24MOL   H88528531   5.071   5.263   3.585 -0.2463  1.1920 -0.5013
   24MOL   H88628532   5.006   4.876   3.712  1.0819 -1.1651 -1.1321
   24MOL   H88728533   4.943   4.830   3.557 -1.5104 -1.4531  0.5285
   24MOL   H88828534   4.748   4.793   3.695 -2.5498  0.8549 -0.1769
   24MOL   H88928535   4.719   4.951   3.631  2.6095  1.0804 -1.2953
   24MOL   H89028536   4.804   5.041   3.844 -1.4574  0.3117 -0.6549
   24MOL   H89128537   4.825   4.880   3.900  1.9147  1.9544  0.8850
   24MOL   H89228538   4.578   5.029   3.812 -1.5047 -0.2164 -0.0641
   24MOL   H89328539   4.612   4.995   3.984 -1.2948 -0.5625  0.4071
   24MOL   H89428540   4.532   4.806   3.770 -0.5097  1.6592 -0.1916
   24MOL   H89528541   4.549   4.751   3.941  1.2307  0.7512 -0.6434
   24MOL   H89628542   4.370   4.888   4.005 -0.2086  1.4667 -0.7085
   24MOL   H89728543   4.355   4.983   3.863 -0.1080  0.4778  0.9157
   24MOL   H89828544   4.279   4.691   3.940 -0.2277 -0.6857 -0.5686
   24MOL   H89928545   4.270   4.736   3.762  0.3769 -0.8757 -0.1280
   24MOL   H90028546   4.066   4.751   3.936  2.1249 -0.8308  1.0737
   24MOL   H90128547   4.135   4.910   3.956  0.4841 -0.8585  0.3704
   24MOL   O90228548   4.023   4.999   3.723  0.1334 -0.1400 -0.2925
   24MOL   C90328549   3.935   5.036   3.617 -0.3111 -0.9440 -0.2588
   24MOL   C90428550   4.021   5.085   3.496  0.7729 -0.2322  0.2374
   24MOL   C90528551   3.948   5.110   3.363  0.7062  0.2146  0.1021
   24MOL   C90628552   4.036   5.168   3.252  0.0246  0.5206  0.1426
   24MOL   C90728553   3.964   5.174   3.116  0.7800  0.5863  0.5836
   24MOL   C90828554   4.053   5.248   3.022  0.1679  0.5786  0.9164
   24MOL   C90928555   3.988   5.261   2.885 -0.4504  0.5940 -0.9042
   24MOL   C91028556   4.085   5.320   2.783  0.1668  0.0948 -0.4120
   24MOL   C91128557   4.012   5.338   2.650 -1.1837  0.9958 -0.3181
   24MOL   C91228558   4.094   5.388   2.528 -1.1679 -0.3411 -0.0659
   24MOL   O91328559   4.026   5.360   2.407  0.3551 -0.8084  0.8140
   24MOL   C91428560   4.087   5.386   2.282 -0.4186  1.0880  0.8707
   24MOL   O91528561   4.188   5.457   2.255  0.2181  0.3285  0.0223
   24MOL   C91628562   4.009   5.316   2.164 -0.0960  0.2547 -0.4097
   24MOL   C91728563   3.956   5.400   2.043 -0.0687 -0.5854 -0.1135
   24MOL   C91828564   3.894   5.319   1.922 -0.5416 -0.1150 -0.5963
   24MOL   C91928565   3.877   5.420   1.805 -0.1675  0.3634 -0.4716
   24MOL   C92028566   3.832   5.369   1.666  0.2780 -0.2357  0.1433
   24MOL   C92128567   3.778   5.480   1.563 -0.4665 -0.0732  0.3173
   24MOL   C92228568   3.889   5.583   1.525  0.0175  0.2984 -0.9620
   24MOL   C92328569   3.853   5.666   1.406 -0.0570  0.1353  0.2597
   24MOL   C92428570   3.892   5.597   1.273  0.2632  0.1584 -0.9254
   24MOL   O92528571   3.809   5.572   1.187 -0.3175 -0.0827  0.1555
   24MOL   H92628572   3.879   4.949   3.583 -0.0049 -1.0677 -0.4514
   24MOL   H92728573   3.856   5.102   3.653  0.3553 -0.5498  0.5002
   24MOL   H92828574   4.079   5.172   3.526 -1.1291  1.4096 -0.6894
   24MOL   H92928575   4.098   5.017   3.459  0.5303  0.1488 -1.0025
   24MOL   H93028576   3.911   5.020   3.313 -1.9300  0.9028  0.7231
   24MOL   H93128577   3.854   5.165   3.368 -0.3184 -1.5169  0.2574
   24MOL   H93228578   4.062   5.267   3.290  0.8411 -0.1429  1.3641
   24MOL   H93328579   4.123   5.103   3.246  0.1017  0.6704 -0.3296
   24MOL   H93428580   3.873   5.231   3.130 -1.2943 -2.3871 -0.4568
   24MOL   H93528581   3.938   5.075   3.077  1.6929  0.6186 -0.1251
   24MOL   H93628582   4.152   5.204   3.011 -0.3211 -0.6637  1.4078
   24MOL   H93728583   4.074   5.347   3.064  1.2688 -0.2582  2.4158
   24MOL   H93828584   3.905   5.331   2.889 -0.9770 -0.0524 -0.4996
   24MOL   H93928585   3.935   5.169   2.859  2.0859 -1.1032 -0.2447
   24MOL   H94028586   4.162   5.245   2.765 -1.1264 -1.6581  1.0549
   24MOL   H94128587   4.135   5.416   2.798  0.5040 -0.2176  0.4947
   24MOL   H94228588   3.953   5.248   2.631  0.0419  0.1527 -0.1748
   24MOL   H94328589   3.934   5.408   2.680  0.0053  0.9678  3.1263
   24MOL   H94428590   4.109   5.496   2.528 -0.6624 -0.4102 -0.5829
   24MOL   H94528591   4.191   5.339   2.522 -1.6842 -1.6658  1.9226
   24MOL   H94628592   3.938   5.241   2.200  2.0200 -1.5954 -0.0084
   24MOL   H94728593   4.087   5.252   2.123 -0.4424 -1.8700  2.0839
   24MOL   H94828594   4.045   5.457   2.014 -1.1705  0.6631 -1.0858
   24MOL   H94928595   3.885   5.475   2.076  1.8177  0.9721  0.5381
   24MOL   H95028596   3.798   5.272   1.943 -1.3048  2.7326  2.8311
   24MOL   H95128597   3.965   5.238   1.907 -1.1028 -0.2918 -2.3267
   24MOL   H95228598   3.973   5.471   1.797 -0.1477  0.7548  1.9362
   24MOL   H95328599   3.800   5.493   1.833  0.9090  1.3544 -0.0668
   24MOL   H95428600   3.907   5.305   1.619  0.6051  0.4354 -0.2686
   24MOL   H95528601   3.744   5.308   1.685 -0.4740  0.9213  0.4858
   24MOL   H95628602   3.741   5.437   1.470  0.3354 -0.1303  0.0185
   24MOL   H95728603   3.699   5.533   1.616  0.9950  1.6478  0.8321
   24MOL   H95828604   3.987   5.536   1.515 -0.0030 -0.2077  0.9202
   24MOL   H95928605   3.899   5.649   1.611  2.3659 -0.8460 -0.3028
   24MOL   H96028606   3.746   5.683   1.418 -0.0559 -0.5567  1.3015
   24MOL   H96128607   3.909   5.759   1.404 -0.9797  0.6993 -2.1613
   24MOL   O96228608   4.029   5.573   1.266 -0.2739 -0.2048 -0.5174
   24MOL   C96328609   4.086   5.544   1.142  0.3395 -0.3130 -0.5471
   24MOL   C96428610   4.098   5.660   1.048  0.0444  0.9310 -0.0593
   24MOL   C96528611   4.166   5.643   0.909 -0.0196 -0.0089 -0.3400
   24MOL   C96628612   4.174   5.769   0.822  0.2798 -0.2801  0.4500
   24MOL   C96728613   4.262   5.878   0.876  0.3007  0.5711 -0.0996
   24MOL   C96828614   4.261   5.998   0.774 -0.1124 -0.3245  0.8346
   24MOL   C96928615   4.331   6.119   0.828  0.7963  0.4079  0.4569
   24MOL   C97028616   4.353   6.239   0.738  0.1969 -0.2002 -0.6227
   24MOL   C97128617   4.438   6.223   0.609 -0.5376  0.1612 -0.2982
   24MOL   C97228618   4.441   6.346   0.516  0.1538 -0.2088  0.4049
   24MOL   O97328619   4.511   6.317   0.396  0.5086 -0.4429  0.1978
   24MOL   C97428620   4.453   6.368   0.288 -0.0762  0.5085 -0.6781
   24MOL   O97528621   4.341   6.424   0.281  0.6197  0.1319  0.6052
   24MOL   C97628622   4.551   6.356   0.174  0.1105  0.2518  0.5309
   24MOL   C97728623   4.552   6.209   0.106 -0.1052  0.1568 -0.5883
   24MOL   C97828624   4.650   6.214   7.740 -0.0409 -0.0854  0.1699
   24MOL   C97928625   4.678   6.069   7.702 -0.5796  0.9133  0.2849
   24MOL   C98028626   4.806   6.045   7.627 -0.1991 -0.0894 -0.6936
   24MOL   C98128627   4.816   5.899   7.587 -0.1794 -0.0239  0.6723
   24MOL   C98228628   4.937   5.859   7.514  0.7419 -0.3392  0.1421
   24MOL   C98328629   4.949   5.708   7.466  0.9945  0.0404 -0.4816
   24MOL   C98428630   5.087   5.664   7.420 -1.1429  0.8404  0.5995
   24MOL   O98528631   5.121   5.546   7.425 -0.3594 -0.2073  0.0583
   24MOL   H98628632   4.182   5.495   1.161  0.4695  0.5743  1.1589
   24MOL   H98728633   4.023   5.470   1.093  0.0877 -0.8847  0.6371
   24MOL   H98828634   3.995   5.688   1.029 -0.2179  0.0104 -0.0012
   24MOL   H98928635   4.129   5.741   1.114  1.7683 -0.2573  0.6375
   24MOL   H99028636   4.267   5.606   0.926 -0.0304 -0.1602 -0.5962
   24MOL   H99128637   4.113   5.571   0.847 -0.7201  0.3239 -0.1263
   24MOL   H99228638   4.201   5.738   0.720  0.9077 -1.1110  0.8631
   24MOL   H99328639   4.070   5.802   0.826  0.0267 -1.1116  0.8525
   24MOL   H99428640   4.363   5.838   0.887 -0.2386 -0.8982 -0.3766
   24MOL   H99528641   4.218   5.918   0.968 -2.3132  2.3259 -2.0363
   24MOL   H99628642   4.161   6.028   0.743  1.2272  2.2530 -1.1534
   24MOL   H99728643   4.304   5.963   0.681 -2.3827 -0.7307 -0.0847
   24MOL   H99828644   4.421   6.091   0.882 -0.0844  0.0334  1.7460
   24MOL   H99928645   4.276   6.160   0.912 -0.2491 -0.6292  0.2851
   24MOL     H128646   4.415   6.314   0.787  0.2735 -0.6900  0.0365
   24MOL     H228647   4.257   6.288   0.726 -0.5141 -0.8699  2.0060
   24MOL     H328648   4.538   6.190   0.637  0.3915  3.2095  0.2227
   24MOL     H428649   4.404   6.137   0.551  0.3858 -2.2209  2.5458
   24MOL     H528650   4.339   6.381   0.503 -0.5878 -2.2968  0.3744
   24MOL     H628651   4.505   6.420   0.564 -0.6737  0.5000  0.4134
   24MOL     H728652   4.655   6.367   0.206  0.9785 -2.0480 -1.3213
   24MOL     H828653   4.527   6.433   0.101 -4.6313 -0.4899  1.1498
   24MOL     H928654   4.456   6.174   0.069  0.8152 -1.3999 -1.5382
   24MOL    H1028655   4.585   6.133   0.177  1.6705  1.4390 -0.0056
   24MOL    H1128656   4.737   6.275   0.004  0.3136 -0.4383 -0.2715
   24MOL    H1228657   4.604   6.262   7.654  0.3630  2.1013  1.1436
   24MOL    H1328658   4.592   6.036   7.644 -1.6875  1.4454  1.5938
   24MOL    H1428659   4.692   6.009   0.036 -1.2060  2.2762  1.3154
   24MOL    H1528660   4.806   6.111   7.540 -3.0502  0.3316 -0.4274
   24MOL    H1628661   4.893   6.079   7.683 -1.6994 -0.5354  1.9543
   24MOL    H1728662   4.798   5.834   7.673 -0.1834 -2.0628 -0.8244
   24MOL    H1828663   4.728   5.876   7.527 -0.7458  3.5546  0.0116
   24MOL    H1928664   5.021   5.882   7.579  0.4536 -0.5435  0.5870
   24MOL    H2028665   4.939   5.925   7.426  0.7196  1.3054  1.3523
   24MOL    H2128666   4.913   5.643   7.546  0.4779 -0.9472 -1.5050
   24MOL    H2228667   4.888   5.699   7.376 -0.2143 -0.2000  0.3324
   24MOL    O2328668   5.161   5.758   7.381 -0.1771 -0.5607  0.0586
   24MOL    C2428669   5.291   5.737   7.327 -0.4869 -0.0089 -0.6104
   24MOL    C2528670   5.293   5.691   7.180  0.3876  0.4014 -0.2237
   24MOL    C2628671   5.250   5.808   7.084  0.1028 -0.3240  0.0567
   24MOL    C2728672   5.363   5.895   7.040  0.3452  0.2032  0.0860
   24MOL    C2828673   5.359   6.039   7.082 -0.2601  0.3558 -0.3014
   24MOL    C2928674   5.467   6.128   7.013  0.1959  0.4622 -0.5278
   24MOL    C3028675   5.474   6.276   7.033 -0.1511 -0.7856 -0.5745
   24MOL    C3128676   5.581   6.347   6.951 -0.0950  0.4320  0.4454
   24MOL    C3228677   5.572   6.504   6.970 -0.2446  0.3306 -0.4258
   24MOL    C3328678   5.691   6.569   6.901  0.5647  0.4862  0.2952
   24MOL    O3428679   5.812   6.543   6.976 -0.3499  0.2479  0.1706
   24MOL    C3528680   5.923   6.603   6.940  0.2194 -0.4446 -0.3264
   24MOL    O3628681   5.946   6.658   6.832 -0.8946  0.4618  0.1344
   24MOL    C3728682   6.027   6.595   7.050 -0.5112  0.0338  0.8524
   24MOL    C3828683   6.173   6.605   6.988 -0.3774  0.1198  0.5423
   24MOL    C3928684   6.236   6.477   6.935  0.1922  0.9905  1.1540
   24MOL    C4028685   6.381   6.501   6.885  0.0503  0.1551 -0.3970
   24MOL    C4128686   6.443   6.372   6.852  0.0453  0.1804  0.1910
   24MOL    C4228687   6.582   6.395   6.785  0.9242 -0.4095 -0.0851
   24MOL    C4328688   6.632   6.279   6.695 -0.4568 -0.5634 -0.2855
   24MOL    C4428689   6.776   6.291   6.657 -0.3470  0.1374  0.2347
   24MOL    C4528690   6.877   6.281   6.773  0.3004  0.6099  0.2338
   24MOL    O4628691   6.911   6.176   6.828  0.9301 -0.1470  0.2388
   24MOL    H4728692   5.359   5.821   7.336 -1.4985  1.0524 -2.3948
   24MOL    H4828693   5.340   5.661   7.387 -1.7425 -0.0398  0.3980
   24MOL    H4928694   5.385   5.641   7.153 -0.5479 -1.7471  0.4652
   24MOL    H5028695   5.210   5.621   7.172 -0.1790  1.4011 -4.2235
   24MOL    H5128696   5.202   5.764   6.996 -1.4079  0.9816  0.2129
   24MOL    H5228697   5.174   5.870   7.133  0.4549 -0.3136  0.5907
   24MOL    H5328698   5.453   5.852   7.085  0.7294  1.4977  0.5713
   24MOL    H5428699   5.369   5.893   6.932  0.8349  0.4326  0.1066
   24MOL    H5528700   5.358   6.040   7.191 -3.0007  1.4922 -0.2945
   24MOL    H5628701   5.266   6.087   7.051 -0.5331  0.1904  0.2686
   24MOL    H5728702   5.449   6.128   6.905 -0.3429  1.6643 -0.4427
   24MOL    H5828703   5.568   6.093   7.032  0.2188  0.6193 -0.3577
   24MOL    H5928704   5.484   6.294   7.140  0.3449 -0.1705 -0.7270
   24MOL    H6028705   5.371   6.311   7.019 -0.4323 -1.1104  0.5955
   24MOL    H6128706   5.571   6.313   6.848  3.8404 -2.0579  0.7794
   24MOL    H6228707   5.679   6.306   6.973 -0.2699  0.8322  2.0723
   24MOL    H6328708   5.478   6.546   6.934 -1.4380 -1.8750  0.0131
   24MOL    H6428709   5.578   6.527   7.076  0.2340  0.5185 -0.4893
   24MOL    H6528710   5.700   6.528   6.800  1.6352 -0.7618  0.8779
   24MOL    H6628711   5.679   6.676   6.890  2.2403  0.6723  0.0936
   24MOL    H6728712   6.003   6.517   7.122  1.8838 -1.5923 -0.0740
   24MOL    H6828713   6.009   6.695   7.090  0.4666  0.5890 -0.0843
   24MOL    H6928714   6.226   6.640   7.076 -2.3326  0.6664  1.5335
   24MOL    H7028715   6.170   6.693   6.923  0.4613  0.2599  0.6861
   24MOL    H7128716   6.182   6.439   6.848  0.2703 -1.2825  2.0524
   24MOL    H7228717   6.238   6.406   7.017  0.0097 -1.8853 -1.2377
   24MOL    H7328718   6.438   6.538   6.971 -0.7245  0.0855  0.1482
   24MOL    H7428719   6.380   6.574   6.804 -1.4559 -1.1684 -1.5770
   24MOL    H7528720   6.444   6.307   6.939 -2.5069  0.2797  0.3326
   24MOL    H7628721   6.389   6.326   6.770  0.5909  2.7098 -1.6612
   24MOL    H7728722   6.589   6.487   6.728 -1.7705  0.1229  0.3941
   24MOL    H7828723   6.652   6.408   6.868 -0.5516  0.3364  1.0554
   24MOL    H7928724   6.575   6.272   6.603 -0.3727 -1.7584 -0.2498
   24MOL    H8028725   6.618   6.184   6.746  0.5153  0.4330  1.9372
   24MOL    H8128726   6.809   6.209   6.592 -2.1894 -0.0244 -0.5208
   24MOL    H8228727   6.794   6.377   6.593 -0.8588  0.8941  1.1029
   24MOL    O8328728   6.903   6.400   6.818  0.5042 -0.4321  0.0010
   24MOL    C8428729   6.971   6.405   6.939 -0.5356 -0.0742  0.7461
   24MOL    C8528730   6.946   6.546   6.995 -0.4690 -0.1220  0.3324
   24MOL    C8628731   6.989   6.558   7.139 -0.2423 -0.8917 -0.3118
   24MOL    C8728732   7.139   6.589   7.155  0.8371 -0.1348  0.2983
   24MOL    C8828733   7.196   6.608   7.294 -0.6082  0.1899 -0.1204
   24MOL    C8928734   7.344   6.593   7.300  0.0850  0.1311  0.1642
   24MOL    C9028735   7.388   6.595   7.448 -0.5313 -1.0545 -0.7262
   24MOL    C9128736   7.544   6.605   7.447 -0.1262  0.1270  0.0528
   24MOL    C9228737   7.619   6.481   7.409 -0.2280 -0.2795 -0.9595
   24MOL    C9328738   0.002   6.494   7.467  0.6596 -0.2051  0.7272
   24MOL    O9428739   0.067   6.365   7.460  0.0504  0.5333 -0.7129
   24MOL    C9528740   0.111   6.306   7.349  0.7569  0.0128 -0.1411
   24MOL    O9628741   0.120   6.348   7.237 -0.9518  0.0351 -0.0548
   24MOL    C9728742   0.145   6.159   7.382  0.7707  0.1399 -0.0463
   24MOL    C9828743   0.279   6.140   7.454  0.5407  0.8986 -0.1789
   24MOL    C9928744   0.332   5.997   7.476  0.0328 -0.8640 -0.5259
   24MOL   C10028745   0.465   5.999   7.555  0.1964  0.5043 -0.3175
   24MOL   C10128746   0.581   6.045   7.475 -0.0622  0.3708 -0.3566
   24MOL   C10228747   0.708   6.025   7.547  0.0597 -0.2215  0.6507
   24MOL   C10328748   0.820   6.074   7.458 -0.1744  0.4897 -0.5961
   24MOL   C10428749   0.963   6.040   7.516  0.3687 -0.1663 -0.2010
   24MOL   C10528750   0.989   6.080   7.657 -0.6142 -0.4676  0.5340
   24MOL   O10628751   0.944   6.010   7.749  0.1749 -0.2791  0.3491
   24MOL   H10728752   6.925   6.330   7.004 -1.0041 -1.7573 -1.4753
   24MOL   H10828753   7.076   6.390   6.917 -0.5733 -0.4153  0.7966
   24MOL   H10928754   6.999   6.608   6.923  0.6549 -1.3022  0.1219
   24MOL   H11028755   6.842   6.575   6.979  0.3491  3.2662  0.8184
   24MOL   H11128756   6.935   6.642   7.183  0.3979 -0.8717  0.4454
   24MOL   H11228757   6.970   6.468   7.196 -0.2657 -2.2014 -2.3198
   24MOL   H11328758   7.184   6.499   7.113  2.6354 -0.2447  2.3895
   24MOL   H11428759   7.170   6.672   7.091 -1.7725  0.3800 -0.3492
   24MOL   H11528760   7.165   6.537   7.371  1.3896  0.2237  0.7610
   24MOL   H11628761   7.162   6.706   7.327 -1.4352 -0.2744  0.3886
   24MOL   H11728762   7.385   6.679   7.248  0.9494  0.5754  1.5589
   24MOL   H11828763   7.377   6.506   7.244 -0.5419  0.0181 -0.0324
   24MOL   H11928764   7.363   6.502   7.499 -1.6540 -0.9402 -1.0645
   24MOL   H12028765   7.345   6.666   7.518  2.8790 -0.1715  0.6029
   24MOL   H12128766   7.560   6.624   7.553 -0.9491  0.2442  0.1643
   24MOL   H12228767   7.581   6.694   7.396  3.3833 -2.4187 -2.0284
   24MOL   H12328768   7.565   6.403   7.464 -1.2284  1.2318  0.2440
   24MOL   H12428769   7.614   6.454   7.303  3.3840  1.1091 -1.5316
   24MOL   H12528770   0.052   6.564   7.400  0.9290 -2.5749 -1.6287
   24MOL   H12628771   0.013   6.537   7.567 -0.2352  0.7436  0.4312
   24MOL   H12728772   0.161   6.117   7.283 -1.5150  1.3863 -1.0015
   24MOL   H12828773   0.054   6.106   7.410  1.3913  1.4289  4.8392
   24MOL   H12928774   0.245   6.166   7.555 -2.9515 -2.3365 -0.3957
   24MOL   H13028775   0.350   6.208   7.407  1.0201  0.7195  0.2823
   24MOL   H13128776   0.347   5.946   7.381 -0.7932  2.3471 -2.4451
   24MOL   H13228777   0.258   5.930   7.520 -0.1919 -0.4930 -0.3435
   24MOL   H13328778   0.479   5.900   7.597 -2.2503  0.2644 -0.0113
   24MOL   H13428779   0.447   6.069   7.637  0.4058  0.5139 -0.2796
   24MOL   H13528780   0.583   6.010   7.371 -3.5916  0.1697 -0.4342
   24MOL   H13628781   0.573   6.152   7.460  1.1621  0.5700  0.3807
   24MOL   H13728782   0.700   6.077   7.643  2.0748  3.1547 -0.9374
   24MOL   H13828783   0.727   5.920   7.567 -1.3913 -1.1481 -2.4593
   24MOL   H13928784   0.831   6.181   7.440  0.7633  0.3874 -0.6760
   24MOL   H14028785   0.810   6.045   7.353  0.1148  2.2262 -1.1268
   24MOL   H14128786   0.972   5.932   7.522  0.4588 -0.3013 -2.5878
   24MOL   H14228787   1.030   6.086   7.444  0.3006 -0.1340 -0.2445
   24MOL   O14328788   1.049   6.207   7.663  0.0147 -0.4732  0.2706
   24MOL   C14428789   1.080   6.258   0.035  0.1425  0.2293 -0.0429
   24MOL   C14528790   1.088   6.409   0.043  0.1357 -0.3816  0.1490
   24MOL   C14628791   1.094   6.462   0.190  0.1181 -0.0523  0.7271
   24MOL   C14728792   1.147   6.608   0.203  0.1520  0.0591 -0.0087
   24MOL   C14828793   1.218   6.629   0.335 -0.1238 -0.2227  0.4025
   24MOL   C14928794   1.291   6.766   0.336 -0.1199  0.0789  0.2875
   24MOL   C15028795   1.392   6.775   0.453 -0.6078 -0.3986  0.3834
   24MOL   C15128796   1.326   6.752   0.590 -0.2607  0.0244 -0.1814
   24MOL   C15228797   1.443   6.763   0.684 -0.0382  0.7601  0.0410
   24MOL   C15328798   1.408   6.770   0.832  0.7623 -0.2179 -0.0731
   24MOL   O15428799   1.353   6.650   0.873 -0.8767 -0.0022 -0.0995
   24MOL   C15528800   1.355   6.624   1.001 -0.0292  0.6491  0.3371
   24MOL   O15628801   1.382   6.701   1.093  0.2154  0.0531  0.6550
   24MOL   C15728802   1.322   6.477   1.013 -0.3786  0.1541  0.5400
   24MOL   C15828803   1.174   6.456   0.977 -0.2651  0.3948  0.0201
   24MOL   C15928804   1.125   6.319   1.013 -0.2384 -0.0959 -1.1553
   24MOL   C16028805   0.980   6.309   0.992  0.7370 -0.6459  0.3244
   24MOL   C16128806   0.938   6.166   0.999 -0.0732 -0.6764 -0.2442
   24MOL   C16228807   0.796   6.148   0.936 -0.1695 -0.3208  0.2075
   24MOL   C16328808   0.717   6.013   0.949 -0.5169 -0.1486  0.3398
   24MOL   C16428809   0.653   5.976   1.085 -0.6949  0.2174  0.1025
   24MOL   C16528810   0.743   5.917   1.198 -0.1514 -0.4601  0.5376
   24MOL   O16628811   0.806   5.810   1.172 -0.1963 -0.4945 -0.5144
   24MOL   H16728812   1.024   6.222   0.121  0.0271 -0.9958 -0.6213
   24MOL   H16828813   1.176   6.212   0.057  0.2495 -0.3897 -1.7398
   24MOL   H16928814   1.183   6.441   0.001 -0.2860  0.2212 -0.3648
   24MOL   H17028815   1.011   6.461   7.742  0.8967 -0.3814 -0.8849
   24MOL   H17128816   1.003   6.441   0.246 -0.1147 -0.6911  0.1277
   24MOL   H17228817   1.168   6.397   0.236  0.3308 -1.7364 -1.8640
   24MOL   H17328818   1.216   6.633   0.122 -0.5747  0.4504 -0.5189
   24MOL   H17428819   1.068   6.678   0.176 -0.2336 -1.0671 -1.8801
   24MOL   H17528820   1.299   6.558   0.353 -1.0766 -1.0095  1.6967
   24MOL   H17628821   1.142   6.634   0.413  0.3789  0.2502  0.8670
   24MOL   H17728822   1.208   6.836   0.349 -0.1487  0.3581 -1.3457
   24MOL   H17828823   1.332   6.799   0.241 -0.1152  1.3267  0.7167
   24MOL   H17928824   1.442   6.870   0.435 -0.6602  0.2093  3.2975
   24MOL   H18028825   1.474   6.704   0.442 -0.4513 -0.0894 -0.4762
   24MOL   H18128826   1.278   6.654   0.595 -1.8403  0.7982  0.0718
   24MOL   H18228827   1.254   6.833   0.602 -0.5733 -0.5115  1.7709
   24MOL   H18328828   1.507   6.676   0.674 -2.1529 -0.7861 -0.4404
   24MOL   H18428829   1.508   6.845   0.654 -1.4446  1.3025 -1.5916
   24MOL   H18528830   1.499   6.784   0.889  0.7322 -1.1384  0.2018
   24MOL   H18628831   1.333   6.848   0.848 -2.0761 -2.7065 -0.6315
   24MOL   H18728832   1.337   6.455   1.119 -0.1842 -0.9102  0.3027
   24MOL   H18828833   1.373   6.407   0.947 -0.0960 -0.7692  1.7098
   24MOL   H18928834   1.162   6.476   0.871  0.2754  0.2558 -0.0708
   24MOL   H19028835   1.115   6.528   1.034  0.2639  0.2779  0.7220
   24MOL   H19128836   1.133   6.308   1.121 -2.1081 -1.8400 -1.1649
   24MOL   H19228837   1.177   6.240   0.959 -0.6355 -0.3172 -1.2127
   24MOL   H19328838   0.964   6.342   0.889 -3.5160  3.0525  1.9597
   24MOL   H19428839   0.918   6.375   1.053  0.0064  0.0977 -1.1910
   24MOL   H19528840   0.999   6.095   0.943 -0.0482 -0.0610 -1.0049
   24MOL   H19628841   0.945   6.119   1.097 -0.6182 -0.7189 -0.2237
   24MOL   H19728842   0.734   6.233   0.962  1.0843  1.1960 -1.6453
   24MOL   H19828843   0.818   6.164   0.831  1.0650 -0.1245  0.4801
   24MOL   H19928844   0.789   5.940   0.913 -2.2253 -1.8595  0.3209
   24MOL   H20028845   0.642   6.019   0.870 -1.2940  2.4747  1.2460
   24MOL   H20128846   0.603   6.060   1.132  0.0393 -1.0179  3.2145
   24MOL   H20228847   0.583   5.899   1.054  0.9040 -1.9083  1.6209
   24MOL   H20328848   0.739   5.976   1.289 -2.0746  2.7939 -1.5198
   25MOL     O128849   1.819   0.256   4.243  0.3751  0.0940 -0.2409
   25MOL     C228850   1.934   0.275   4.173 -0.2848  0.6007  0.3939
   25MOL     C328851   2.012   0.395   4.211  0.4310 -0.0040  0.6568
   25MOL     C428852   1.943   0.535   4.215 -0.3938 -0.5690  0.0676
   25MOL     C528853   2.035   0.649   4.257 -0.0252 -0.6540 -0.0728
   25MOL     C628854   1.958   0.778   4.285  0.3041 -0.9101 -0.3732
   25MOL     C728855   2.044   0.872   4.369 -0.2407  0.1767 -0.2544
   25MOL     C828856   1.957   0.987   4.427  0.0822  0.4737  0.0014
   25MOL     C928857   2.049   1.091   4.491 -0.0262  0.7869  0.3331
   25MOL    C1028858   1.976   1.212   4.560 -0.0030  0.0809  0.1993
   25MOL    C1128859   1.910   1.173   4.692 -0.0020 -0.6637 -0.0856
   25MOL    O1228860   1.857   1.294   4.752 -0.2834  0.3019  0.1856
   25MOL    C1328861   1.770   1.289   4.856 -0.0714  0.6841 -0.2316
   25MOL    O1428862   1.743   1.189   4.923  0.9665 -0.0148 -0.0244
   25MOL    C1528863   1.710   1.427   4.885  0.3299  0.0199  0.7876
   25MOL    C1628864   1.571   1.425   4.937 -0.6636 -0.1082  0.5215
   25MOL    C1728865   1.466   1.405   4.822 -0.4140 -0.3905 -0.5078
   25MOL    C1828866   1.437   1.256   4.798 -0.1641  0.2000 -0.0283
   25MOL    C1928867   1.330   1.236   4.686  0.6926  0.0919 -0.0813
   25MOL    C2028868   1.218   1.137   4.726  0.2058  0.5263 -0.5746
   25MOL    C2128869   1.112   1.096   4.620 -0.0145 -0.0452  0.3288
   25MOL    C2228870   1.052   1.217   4.544 -0.2750 -0.0007  0.2488
   25MOL    C2328871   0.904   1.200   4.504  0.1491  0.2607  0.6415
   25MOL    O2428872   0.863   1.154   4.392 -0.8682 -0.1422 -0.4619
   25MOL    H2528873   1.997   0.187   4.190 -0.6755  0.3278  0.4398
   25MOL    H2628874   1.915   0.283   4.066 -1.4154 -1.9372  0.3481
   25MOL    H2728875   2.049   0.374   4.312  0.6609 -2.1589  0.1473
   25MOL    H2828876   2.105   0.396   4.154 -0.6237  1.0256 -1.0777
   25MOL    H2928877   1.896   0.556   4.119  1.1988  1.4951 -0.2849
   25MOL    H3028878   1.858   0.536   4.283 -0.0001  2.4460  0.5886
   25MOL    H3128879   2.100   0.622   4.341 -0.0693 -1.8462 -0.4195
   25MOL    H3228880   2.108   0.654   4.176  2.4520  0.1973  2.1104
   25MOL    H3328881   1.861   0.768   4.334 -0.6379 -0.0942 -1.9874
   25MOL    H3428882   1.936   0.840   4.198  1.3501  1.4407  0.9799
   25MOL    H3528883   2.115   0.918   4.300 -0.7581  0.5961 -0.5139
   25MOL    H3628884   2.105   0.829   4.449 -0.5906 -2.2324 -1.2558
   25MOL    H3728885   1.887   0.951   4.501 -0.3925  0.1053 -0.6193
   25MOL    H3828886   1.894   1.035   4.352  2.2302  1.0909 -1.4872
   25MOL    H3928887   2.114   1.129   4.412 -0.7313  0.8378 -0.2250
   25MOL    H4028888   2.118   1.047   4.562  0.3594  0.3890 -0.2812
   25MOL    H4128889   2.048   1.293   4.571 -0.9421  0.7611  1.4373
   25MOL    H4228890   1.901   1.240   4.487  1.0059  1.1565 -0.4397
   25MOL    H4328891   1.828   1.104   4.671 -0.5782 -0.3669  1.0786
   25MOL    H4428892   1.978   1.137   4.770 -0.7494 -0.2509  0.7759
   25MOL    H4528893   1.723   1.495   4.800  0.0486  0.4797  1.1151
   25MOL    H4628894   1.788   1.456   4.955  1.5648 -0.8237 -0.2126
   25MOL    H4728895   1.553   1.528   4.968  1.5493  0.8809 -1.4193
   25MOL    H4828896   1.546   1.354   5.016  1.0357  1.8532  2.8998
   25MOL    H4928897   1.508   1.451   4.733  1.1237  1.8459  1.3071
   25MOL    H5028898   1.373   1.456   4.846  0.6879  1.9706 -1.1133
   25MOL    H5128899   1.393   1.218   4.891  0.9298  1.2434  0.9422
   25MOL    H5228900   1.533   1.213   4.770  0.2516  0.6429  0.6920
   25MOL    H5328901   1.287   1.335   4.667 -0.6650 -0.7055 -1.2448
   25MOL    H5428902   1.376   1.185   4.602  0.1071  1.2939 -1.1408
   25MOL    H5528903   1.262   1.045   4.765 -2.4894 -0.2241  0.8396
   25MOL    H5628904   1.172   1.181   4.815  0.9875 -4.5672  2.5762
   25MOL    H5728905   1.039   1.026   4.661  0.7059 -1.6844 -1.1415
   25MOL    H5828906   1.160   1.032   4.547 -1.6644 -0.2563 -0.6012
   25MOL    H5928907   1.038   1.292   4.622 -0.5010 -0.6275  0.8172
   25MOL    H6028908   1.112   1.250   4.459 -0.9531 -0.6695 -0.5044
   25MOL    H6128909   1.760   0.329   4.230 -0.6692 -0.5678  0.6317
   25MOL    O6228910   0.816   1.252   4.594 -0.6705  0.3178 -0.4827
   25MOL    C6328911   0.676   1.255   4.565  0.0326 -0.1880  0.3487
   25MOL    C6428912   0.621   1.115   4.592  0.2399  0.1911  0.1634
   25MOL    C6528913   0.666   1.050   4.729 -0.2002 -0.5756 -0.5225
   25MOL    C6628914   0.583   0.923   4.773  0.1619  0.1951  0.5834
   25MOL    C6728915   0.589   0.887   4.920  0.1240 -0.4974  0.3604
   25MOL    C6828916   0.552   0.743   4.956 -0.6441  0.3042 -0.1204
   25MOL    C6928917   0.582   0.697   5.098  0.6623 -0.0279  0.0418
   25MOL    C7028918   0.541   0.805   5.203 -0.0658  0.0758 -0.2828
   25MOL    C7128919   0.584   0.778   5.349  0.6614 -0.0445 -0.0775
   25MOL    C7228920   0.510   0.867   5.453 -0.0720 -0.1145 -0.4708
   25MOL    O7328921   0.554   0.834   5.579  0.5592  0.2146  0.1835
   25MOL    C7428922   0.464   0.877   5.683  0.5718 -0.2694 -0.2678
   25MOL    O7528923   0.371   0.957   5.662 -0.5628 -0.4108  0.0921
   25MOL    C7628924   0.483   0.810   5.817 -0.7550  0.2247 -0.1825
   25MOL    C7728925   0.439   0.665   5.820  0.6588  0.0852 -0.6631
   25MOL    C7828926   0.554   0.576   5.758 -0.0782 -0.6165 -0.4878
   25MOL    C7928927   0.681   0.571   5.851  0.4151 -0.4061 -1.0346
   25MOL    C8028928   0.781   0.451   5.849 -0.4740  0.3066 -0.2882
   25MOL    C8128929   0.901   0.462   5.944 -0.2617  0.0685  0.2562
   25MOL    C8228930   0.879   0.427   6.098  0.0276 -0.4566  0.5293
   25MOL    C8328931   0.978   0.492   6.187 -0.4408  0.5515  0.6262
   25MOL    C8428932   0.951   0.636   6.216 -0.7910 -0.3996 -0.1709
   25MOL    O8528933   1.042   0.725   6.200  0.2760  0.3150 -0.4845
   25MOL    H8628934   0.630   1.328   4.631 -1.3417 -1.0180  0.3166
   25MOL    H8728935   0.661   1.290   4.463 -0.5193 -0.9749  0.1571
   25MOL    H8828936   0.512   1.115   4.596  0.2647 -1.1077  1.1808
   25MOL    H8928937   0.652   1.059   4.504  1.1535 -0.0164  0.6115
   25MOL    H9028938   0.773   1.033   4.726 -0.2439 -1.3657  1.3046
   25MOL    H9128939   0.654   1.132   4.801  1.1000 -1.7128  1.0195
   25MOL    H9228940   0.478   0.925   4.741  0.6275 -0.6231 -1.0687
   25MOL    H9328941   0.630   0.850   4.707  1.1260  0.4077  1.0354
   25MOL    H9428942   0.526   0.957   4.974  1.7255  0.6786  0.7315
   25MOL    H9528943   0.693   0.896   4.952  0.5477 -1.7886 -0.5704
   25MOL    H9628944   0.601   0.674   4.887  0.8003 -0.3512  1.5157
   25MOL    H9728945   0.445   0.730   4.940 -0.5986 -0.7399  0.3522
   25MOL    H9828946   0.686   0.671   5.118  0.2143 -0.2388  2.1827
   25MOL    H9928947   0.524   0.607   5.114 -1.9899  1.3094 -1.7006
   25MOL   H10028948   0.434   0.808   5.187 -0.2198  0.7115  0.8684
   25MOL   H10128949   0.581   0.905   5.182 -0.0555  0.6787  2.4780
   25MOL   H10228950   0.565   0.673   5.373  2.0765 -1.0910 -3.1900
   25MOL   H10328951   0.690   0.788   5.372  1.2496 -1.3212 -2.0964
   25MOL   H10428952   0.548   0.966   5.427  0.4408 -0.5960 -1.6132
   25MOL   H10528953   0.402   0.866   5.442  0.1180  0.9061 -2.7133
   25MOL   H10628954   0.439   0.873   5.894  1.7108  0.6776  0.9086
   25MOL   H10728955   0.591   0.810   5.829 -0.6586 -1.5506 -0.8341
   25MOL   H10828956   0.348   0.659   5.760 -0.4868  2.5300  0.7189
   25MOL   H10928957   0.413   0.619   5.916  1.0445  0.0320 -0.5848
   25MOL   H11028958   0.585   0.619   5.662  1.2941  0.5312  0.4520
   25MOL   H11128959   0.520   0.475   5.735  0.9885 -0.9531 -0.6161
   25MOL   H11228960   0.636   0.576   5.950 -2.5156  0.4327 -2.3732
   25MOL   H11328961   0.731   0.667   5.837 -0.7574  0.4051  0.2066
   25MOL   H11428962   0.726   0.358   5.866 -1.9553  1.1677 -0.2822
   25MOL   H11528963   0.811   0.432   5.746  0.6968 -0.1828  0.1350
   25MOL   H11628964   0.982   0.400   5.906 -0.0719  0.8147 -0.5722
   25MOL   H11728965   0.933   0.566   5.939 -1.5658  0.4669  0.0143
   25MOL   H11828966   0.906   0.324   6.120  0.5307 -0.2936  0.6778
   25MOL   H11928967   0.774   0.446   6.122 -1.4499 -4.6537 -2.1050
   25MOL   H12028968   0.981   0.428   6.275 -1.0349  1.4467  1.3165
   25MOL   H12128969   1.078   0.480   6.146 -0.3486  0.6573  0.8153
   25MOL   O12228970   0.824   0.660   6.258  0.0154 -0.4913 -0.3994
   25MOL   C12328971   0.775   0.795   6.272 -0.7527  0.4400  0.3032
   25MOL   C12428972   0.636   0.792   6.349  0.2072 -0.4068 -0.7150
   25MOL   C12528973   0.517   0.722   6.274 -0.6073  0.7941 -0.9674
   25MOL   C12628974   0.393   0.691   6.358 -0.9320 -0.5075  0.4646
   25MOL   C12728975   0.274   0.659   6.266 -0.2482 -0.8956  0.0229
   25MOL   C12828976   0.222   0.776   6.181 -0.5244  0.2083  0.6498
   25MOL   C12928977   0.085   0.744   6.102 -0.6405 -0.8261  0.2366
   25MOL   C13028978   0.085   0.609   6.029  0.0262 -0.4043 -0.0520
   25MOL   C13128979   7.726   0.597   5.931  0.1260 -0.1270 -0.0767
   25MOL   C13228980   7.703   0.460   5.879  0.4615  0.4093  0.7445
   25MOL   O13328981   7.647   0.377   5.982 -0.1345  0.4496 -0.1812
   25MOL   C13428982   7.663   0.243   5.984  0.0740 -1.0328  0.5724
   25MOL   O13528983   7.715   0.173   5.896  0.6997 -0.0594 -0.7592
   25MOL   C13628984   7.587   0.187   6.102  0.1386  0.0883  0.0413
   25MOL   C13728985   7.653   0.070   6.179 -0.0893 -0.3469  0.0679
   25MOL   C13828986   0.036   0.100   6.238  0.0528  0.9125  0.2333
   25MOL   C13928987   0.101   7.727   6.274  0.0229  0.8585 -0.4489
   25MOL   C14028988   0.022   7.624   6.346 -0.5601  0.5096 -0.1025
   25MOL   C14128989   0.111   7.516   6.420 -0.1214 -0.5337 -0.3544
   25MOL   C14228990   0.034   7.445   6.531 -0.1968  0.1878  0.3385
   25MOL   C14328991   0.100   7.312   6.573 -0.1127 -0.4176 -0.4298
   25MOL   C14428992   0.011   7.216   6.650  0.0395  0.7622 -0.1587
   25MOL   O14528993   0.020   7.097   6.632  0.7643 -0.0819 -0.7201
   25MOL   H14628994   0.850   0.852   6.326  1.6899 -1.9490 -0.4860
   25MOL   H14728995   0.764   0.851   6.179  4.3548 -0.8426 -1.1770
   25MOL   H14828996   0.658   0.740   6.442  2.5545 -0.9332 -1.5394
   25MOL   H14928997   0.596   0.890   6.376  1.4051 -0.0554 -0.1675
   25MOL   H15028998   0.495   0.796   6.198  2.9646  1.5632 -1.3172
   25MOL   H15128999   0.545   0.628   6.226 -0.0628  1.4412 -1.9325
   25MOL   H15229000   0.415   0.604   6.420  0.8019  0.0115  0.5965
   25MOL   H15329001   0.370   0.783   6.412  1.3995  2.2204 -2.9404
   25MOL   H15429002   0.198   0.618   6.331  0.0598  0.1797  1.0898
   25MOL   H15529003   0.298   0.585   6.189  1.5053  0.3079 -0.6213
   25MOL   H15629004   0.297   0.807   6.109 -1.0302  0.6512  0.3011
   25MOL   H15729005   0.198   0.865   6.240  0.2654  0.6381  0.3265
   25MOL   H15829006   0.066   0.828   6.035 -2.3619 -1.8896 -0.6238
   25MOL   H15929007   7.755   0.745   6.168  1.0368 -2.7436  2.5724
   25MOL   H16029008   0.062   0.533   6.104  0.5197 -1.4460 -0.9345
   25MOL   H16129009   0.182   0.596   5.981  1.6294  5.0121  1.3576
   25MOL   H16229010   7.634   0.617   5.988 -1.0074  0.6029 -2.1035
   25MOL   H16329011   7.744   0.681   5.863  2.6556 -0.3508  0.2973
   25MOL   H16429012   7.636   0.465   5.794 -1.4303 -0.4741  2.1395
   25MOL   H16529013   0.045   0.419   5.859  0.7720  0.0661  2.8529
   25MOL   H16629014   7.490   0.154   6.064 -1.0035  1.8418  1.3694
   25MOL   H16729015   7.569   0.274   6.165  2.8219  0.1377  0.8208
   25MOL   H16829016   7.655   7.738   6.115  1.4784  0.8973 -1.6452
   25MOL   H16929017   7.573   0.038   6.246 -1.0275 -0.2732 -0.9893
   25MOL   H17029018   0.024   0.159   6.329  1.4846 -0.6012  1.4311
   25MOL   H17129019   0.099   0.149   6.164 -0.5225  0.7453 -0.3742
   25MOL   H17229020   0.191   7.755   6.329 -0.1419 -2.3633  1.5987
   25MOL   H17329021   0.133   7.690   6.177  0.9176  2.7794 -0.9173
   25MOL   H17429022   7.721   7.680   6.420  0.0968  2.8992 -1.3481
   25MOL   H17529023   7.708   7.574   6.280  1.5199 -3.8553  0.8326
   25MOL   H17629024   0.149   7.449   6.342  2.1386  1.4171 -1.0106
   25MOL   H17729025   0.202   7.565   6.456  0.3394 -0.3050 -1.7793
   25MOL   H17829026   7.692   7.431   6.487  1.3400  1.8504 -3.8864
   25MOL   H17929027   0.028   7.513   6.615 -1.2353 -0.4638  0.8073
   25MOL   H18029028   0.153   7.258   6.494 -0.8695 -1.0898 -0.4774
   25MOL   H18129029   0.181   7.341   6.639  1.8138 -1.0875 -2.4276
   25MOL   O18229030   7.684   7.272   6.738  0.8260 -0.7800  0.7179
   25MOL   C18329031   7.574   7.194   6.795  0.1937  0.3736 -0.1581
   25MOL   C18429032   7.449   7.235   6.709  0.4960  0.8836 -0.4252
   25MOL   C18529033   7.449   7.178   6.566 -0.2696 -0.0614 -0.8356
   25MOL   C18629034   7.313   7.139   6.515  0.5276 -0.2976 -0.6009
   25MOL   C18729035   7.315   7.065   6.382 -0.0689 -0.1907 -0.1206
   25MOL   C18829036   7.175   7.047   6.320  0.2195  0.4864  0.2220
   25MOL   C18929037   7.171   6.962   6.189  0.2727 -1.2512 -0.1032
   25MOL   C19029038   7.030   6.934   6.123 -0.1540  0.3995 -0.4720
   25MOL   C19129039   6.918   6.913   6.225 -0.2456  1.1441  0.2961
   25MOL   C19229040   6.910   6.767   6.270  1.1298 -0.0480 -0.0282
   25MOL   O19329041   6.786   6.740   6.334 -0.0276 -0.6443  0.2205
   25MOL   C19429042   6.780   6.755   6.466 -0.3050 -0.0163 -0.1471
   25MOL   O19529043   6.872   6.775   6.542 -0.3740 -0.2074  0.3921
   25MOL   C19629044   6.640   6.728   6.517  0.0052 -0.1471  0.1476
   25MOL   C19729045   6.593   6.816   6.633 -0.6095 -0.3101  0.5215
   25MOL   C19829046   6.661   6.780   6.765 -0.1723  0.5011  0.4960
   25MOL   C19929047   6.611   6.856   6.889 -0.2657 -0.0879  0.3058
   25MOL   C20029048   6.694   6.810   7.004  0.2508 -0.8862 -0.4022
   25MOL   C20129049   6.614   6.852   7.137  0.3050  0.0857  0.0191
   25MOL   C20229050   6.699   6.802   7.254 -0.1331 -0.1561 -0.9265
   25MOL   C20329051   6.642   6.829   7.399 -0.1559  0.3560  0.2933
   25MOL   C20429052   6.754   6.837   7.496  0.0155 -0.7386  0.4592
   25MOL   O20529053   6.752   6.927   7.584 -0.2080 -0.2479  0.4143
   25MOL   H20629054   7.588   7.087   6.806 -1.4800 -0.0324 -1.6102
   25MOL   H20729055   7.541   7.216   6.896 -0.8377 -1.7807  0.0009
   25MOL   H20829056   7.362   7.198   6.763  0.6175  0.2542 -0.6607
   25MOL   H20929057   7.441   7.344   6.710 -1.1586  0.7951 -1.8036
   25MOL   H21029058   7.505   7.251   6.508  1.7045 -0.6637  0.2648
   25MOL   H21129059   7.511   7.089   6.568  0.9137  0.7926  1.2066
   25MOL   H21229060   7.270   7.077   6.592  0.8269 -1.1126 -1.0875
   25MOL   H21329061   7.266   7.238   6.514 -0.0648 -0.4974  2.5076
   25MOL   H21429062   7.360   6.965   6.389  0.9677  0.1277 -1.8862
   25MOL   H21529063   7.370   7.124   6.309  1.0944  0.6420  1.3853
   25MOL   H21629064   7.132   7.145   6.303 -1.9457 -0.5473 -0.4854
   25MOL   H21729065   7.119   6.984   6.390 -0.1107 -0.8356 -1.2111
   25MOL   H21829066   7.206   6.861   6.212  0.8290 -0.7354  1.3982
   25MOL   H21929067   7.244   7.001   6.117  2.0096 -0.1760  2.1725
   25MOL   H22029068   7.039   6.851   6.052  0.3410 -0.9948  1.1864
   25MOL   H22129069   6.992   7.009   6.054 -1.7845 -1.6109 -1.8286
   25MOL   H22229070   6.916   6.986   6.306  0.9818  1.4788  0.0291
   25MOL   H22329071   6.825   6.933   6.171 -0.1978 -0.0228 -0.2416
   25MOL   H22429072   6.901   6.701   6.184  1.3765  0.5510 -0.5138
   25MOL   H22529073   6.996   6.748   6.334  0.3081  1.4065  1.5525
   25MOL   H22629074   6.634   6.623   6.544 -0.4079 -1.0920 -3.4817
   25MOL   H22729075   6.577   6.746   6.430  2.2851 -0.8586 -1.6710
   25MOL   H22829076   6.486   6.796   6.639 -0.4104 -1.8037 -0.5115
   25MOL   H22929077   6.611   6.919   6.602  1.3659  0.6269  4.5277
   25MOL   H23029078   6.768   6.798   6.757  0.2331 -2.4169 -1.5139
   25MOL   H23129079   6.640   6.675   6.785 -2.6094  0.4894 -1.8581
   25MOL   H23229080   6.505   6.831   6.901 -0.1149  0.1007  2.2712
   25MOL   H23329081   6.608   6.964   6.878 -0.3842  0.1414  2.3774
   25MOL   H23429082   6.694   6.701   7.007  2.4322 -0.9178 -1.2499
   25MOL   H23529083   6.797   6.844   6.997  0.0435 -0.4549 -1.3801
   25MOL   H23629084   6.601   6.960   7.140 -2.4886 -0.2323  1.5768
   25MOL   H23729085   6.514   6.810   7.128 -0.1094  0.7068  1.4964
   25MOL   H23829086   6.801   6.842   7.253 -0.0706 -0.1553  1.3908
   25MOL   H23929087   6.709   6.696   7.235  0.6945 -0.1728 -0.4399
   25MOL   H24029088   6.589   6.925   7.402 -0.7953  0.1900 -3.5604
   25MOL   H24129089   6.571   6.751   7.424 -0.3495 -0.2189 -2.0114
   25MOL   O24229090   6.849   6.744   7.473  0.1918 -0.6628  0.0051
   25MOL   C24329091   6.957   6.751   7.561  0.3488  0.3819 -0.2280
   25MOL   C24429092   6.932   6.666   7.689  0.0031  0.0949 -0.7182
   25MOL   C24529093   7.038   6.683   0.047  0.6554 -0.0060  0.3906
   25MOL   C24629094   7.166   6.610   0.014 -0.9134 -0.3772  0.1315
   25MOL   C24729095   7.305   6.677   0.051  0.3917  0.4404  0.6386
   25MOL   C24829096   7.327   6.681   0.207 -0.2901  0.1792 -0.1993
   25MOL   C24929097   7.450   6.771   0.240 -0.4691  0.2363 -0.2643
   25MOL   C25029098   7.474   6.801   0.383  0.4311  0.3274  0.0890
   25MOL   C25129099   7.590   6.899   0.386  0.1490  0.1590  0.3429
   25MOL   C25229100   7.610   6.948   0.532  0.1872 -0.3353  0.5533
   25MOL   O25329101   7.697   7.058   0.534 -0.7891  0.5382 -0.4546
   25MOL   C25429102   7.749   7.100   0.645  0.2989 -0.2708  0.2924
   25MOL   O25529103   7.717   7.066   0.756  0.5178  0.0664 -0.0600
   25MOL   C25629104   0.112   7.200   0.627 -0.0764 -0.1336  0.0789
   25MOL   C25729105   0.099   7.319   0.730 -0.2845 -0.3067 -0.5402
   25MOL   C25829106   7.756   7.429   0.687 -0.5051  0.2527 -0.4128
   25MOL   C25929107   7.728   7.524   0.806  0.4507  1.0726 -0.0409
   25MOL   C26029108   7.670   7.456   0.927 -0.0313  0.4468  0.2415
   25MOL   C26129109   7.547   7.370   0.889  0.8256 -0.3797 -0.0852
   25MOL   C26229110   7.484   7.324   1.021  0.1212 -0.9501  0.3237
   25MOL   C26329111   7.364   7.238   1.009 -0.3211  0.0046  0.2896
   25MOL   C26429112   7.394   7.094   1.010 -0.1238 -0.1261 -0.0309
   25MOL   O26529113   7.350   7.033   1.103  0.4678 -0.2345 -0.1983
   25MOL   H26629114   7.037   6.709   7.500  0.2447  0.0357 -0.1309
   25MOL   H26729115   6.999   6.851   7.571  2.5976 -0.3877 -1.5341
   25MOL   H26829116   6.834   6.693   7.727  0.1227 -1.0682  0.4406
   25MOL   H26929117   6.917   6.565   7.652 -2.0844  0.0821  0.1271
   25MOL   H27029118   7.062   6.789   0.057  2.1670 -0.3567  0.7108
   25MOL   H27129119   6.994   6.642   0.137 -1.3468  2.3255  0.5160
   25MOL   H27229120   7.158   6.510   0.056 -1.9382  0.8439  2.9769
   25MOL   H27329121   7.176   6.595   7.663 -1.0950 -1.2514  0.2352
   25MOL   H27429122   7.311   6.772   7.755  0.3072 -0.3323 -0.8009
   25MOL   H27529123   7.392   6.625   0.009 -1.5022  0.3711 -3.5122
   25MOL   H27629124   7.335   6.578   0.242  1.0349  0.7003  1.1235
   25MOL   H27729125   7.243   6.725   0.260 -0.1066 -1.1183  1.2218
   25MOL   H27829126   7.427   6.861   0.182 -2.5236 -0.2991 -0.3267
   25MOL   H27929127   7.538   6.716   0.208 -0.7009 -2.6211  3.6580
   25MOL   H28029128   7.510   6.709   0.430 -1.2026 -0.6010 -0.4067
   25MOL   H28129129   7.382   6.832   0.434  0.2636  1.4108 -0.8597
   25MOL   H28229130   7.682   6.849   0.356  2.0962  1.5357  3.7262
   25MOL   H28329131   7.556   6.975   0.316  0.3219  0.3508  0.4680
   25MOL   H28429132   7.510   6.974   0.565  0.5762  0.7547  0.8863
   25MOL   H28529133   7.647   6.866   0.594 -0.6976 -0.4142  0.9875
   25MOL   H28629134   0.114   7.225   0.521 -1.2244  1.0438  0.3301
   25MOL   H28729135   0.207   7.149   0.644 -0.5289 -1.1926 -0.4908
   25MOL   H28829136   0.197   7.366   0.741 -1.4477  1.9201  0.6767
   25MOL   H28929137   0.072   7.276   0.827 -1.5177  1.3193 -0.1362
   25MOL   H29029138   7.663   7.382   0.655 -1.4293  1.5467  0.3003
   25MOL   H29129139   0.035   7.486   0.601 -1.3944  0.9013 -0.3582
   25MOL   H29229140   7.644   7.587   0.778 -2.9413 -1.5865  3.4965
   25MOL   H29329141   0.063   7.578   0.829  2.2929 -1.4835 -1.0232
   25MOL   H29429142   7.746   7.396   0.977  0.5670 -1.5764 -2.9247
   25MOL   H29529143   7.635   7.543   0.983  1.4896  0.7253  0.7772
   25MOL   H29629144   7.484   7.436   0.829 -1.0459 -1.3124  0.7924
   25MOL   H29729145   7.579   7.287   0.826  2.2919 -1.3492  1.8701
   25MOL   H29829146   7.451   7.409   1.080  2.5586 -0.3271  0.8359
   25MOL   H29929147   7.554   7.265   1.080  0.8633  1.1095  1.5445
   25MOL   H30029148   7.295   7.260   1.091 -1.9806 -1.7182 -0.6019
   25MOL   H30129149   7.307   7.275   0.924 -0.9692  0.6346  0.9818
   25MOL   O30229150   7.439   7.045   0.900  0.1034 -0.1271 -0.0426
   25MOL   C30329151   7.470   6.911   0.879  0.2520  0.0204 -0.6026
   25MOL   C30429152   7.356   6.845   0.803 -0.2552 -0.1938 -0.1539
   25MOL   C30529153   7.391   6.704   0.758 -0.5194  0.1647  0.0384
   25MOL   C30629154   7.285   6.640   0.675  0.2732 -0.2114 -0.7111
   25MOL   C30729155   7.341   6.510   0.608 -0.1714 -0.3286  0.5821
   25MOL   C30829156   7.238   6.436   0.530  0.1798  0.1222  0.2416
   25MOL   C30929157   7.297   6.317   0.448  0.4734  0.0196  0.3908
   25MOL   C31029158   7.171   6.248   0.380  0.4222  0.0856 -0.4502
   25MOL   C31129159   7.220   6.151   0.286  1.0401 -0.0707 -0.4428
   25MOL   C31229160   7.107   6.078   0.215 -0.1446  0.2073  0.5389
   25MOL   O31329161   7.012   6.021   0.294 -0.1386  0.1982 -0.1321
   25MOL   C31429162   6.906   5.955   0.243 -0.2733 -0.6046  0.4296
   25MOL   O31529163   6.887   5.929   0.122 -0.3123 -0.1810 -0.0700
   25MOL   C31629164   6.801   5.926   0.343  0.7028  0.1855 -0.7270
   25MOL   C31729165   6.699   6.039   0.360 -0.4513 -0.1515 -0.1606
   25MOL   C31829166   6.756   6.151   0.446 -0.1674 -0.1142 -0.5176
   25MOL   C31929167   6.800   6.282   0.374  0.1705 -0.1060 -0.3502
   25MOL   C32029168   6.849   6.399   0.466  0.5704  0.0792  0.4200
   25MOL   C32129169   6.899   6.515   0.381  0.3591 -0.5794  0.2428
   25MOL   C32229170   6.908   6.638   0.473  0.4789 -0.4180 -0.7883
   25MOL   C32329171   6.946   6.776   0.409  0.5068  0.2075 -0.6624
   25MOL   C32429172   6.837   6.825   0.308 -0.4761  0.0522 -0.4141
   25MOL   O32529173   6.725   6.778   0.303  0.2532  0.0432  0.0441
   25MOL   H32629174   7.556   6.905   0.813 -0.2095  2.8136 -1.5505
   25MOL   H32729175   7.484   6.853   0.970  0.9771 -0.2767 -0.9027
   25MOL   H32829176   7.262   6.854   0.857 -1.4258 -0.9749 -2.0046
   25MOL   H32929177   7.339   6.912   0.719  2.5634  1.0081  0.1688
   25MOL   H33029178   7.487   6.710   0.707 -0.3244  0.8323  0.4751
   25MOL   H33129179   7.408   6.645   0.848  1.7332  1.1289  0.2822
   25MOL   H33229180   7.199   6.621   0.739  1.1202  1.9738  1.1476
   25MOL   H33329181   7.248   6.712   0.602  1.3124  0.8271 -0.2314
   25MOL   H33429182   7.390   6.441   0.676  1.8674  0.6481  0.1348
   25MOL   H33529183   7.415   6.541   0.534 -0.2783 -0.7113  0.3151
   25MOL   H33629184   7.187   6.501   0.459  2.0641  3.2191  1.6225
   25MOL   H33729185   7.161   6.398   0.597 -0.5664 -3.3881 -2.4455
   25MOL   H33829186   7.357   6.252   0.511  2.0316 -0.4888 -1.5711
   25MOL   H33929187   7.361   6.373   0.379 -0.6544  0.2737 -0.4666
   25MOL   H34029188   7.116   6.315   0.313 -1.6815  0.5263  1.6528
   25MOL   H34129189   7.102   6.208   0.454 -0.3666  2.4605  0.1235
   25MOL   H34229190   7.277   6.207   0.212  0.6870  0.2281 -0.4911
   25MOL   H34329191   7.300   6.085   0.317  1.9365 -0.3458 -3.1733
   25MOL   H34429192   7.062   6.150   0.147  0.9835 -0.1539 -0.6320
   25MOL   H34529193   7.152   5.992   0.164  1.3311  1.4130 -0.2540
   25MOL   H34629194   6.842   5.897   0.440  0.0783 -0.2234 -0.5822
   25MOL   H34729195   6.753   5.832   0.317  0.3129 -0.0315  0.7043
   25MOL   H34829196   6.610   5.992   0.402 -1.3656  1.5599 -0.1584
   25MOL   H34929197   6.657   6.089   0.273  0.9749  2.8525  0.7888
   25MOL   H35029198   6.835   6.118   0.512  1.1116 -0.1115 -2.0146
   25MOL   H35129199   6.678   6.177   0.517 -0.1238  1.4434 -1.0047
   25MOL   H35229200   6.713   6.321   0.322 -0.9734  0.5398  1.9772
   25MOL   H35329201   6.877   6.257   0.301 -0.0471 -1.0243 -0.2730
   25MOL   H35429202   6.771   6.436   0.533 -0.6902  0.0333 -1.0074
   25MOL   H35529203   6.931   6.366   0.529 -0.0287 -0.2472  1.0269
   25MOL   H35629204   6.993   6.488   0.334  0.3872  2.3741 -1.5432
   25MOL   H35729205   6.828   6.529   0.299  0.5736 -0.6181  0.0495
   25MOL   H35829206   6.988   6.618   0.545 -0.0773  0.5699  0.1323
   25MOL   H35929207   6.820   6.652   0.536  0.0369 -0.2704 -1.4401
   25MOL   H36029208   6.955   6.858   0.480 -1.5966  1.6472 -1.9933
   25MOL   H36129209   7.044   6.782   0.361  0.4614  1.2497 -0.6472
   25MOL   O36229210   6.895   6.923   0.224  0.5966  0.4770  0.3899
   25MOL   C36329211   6.826   6.962   0.110 -0.4922 -0.3327  0.0583
   25MOL   C36429212   6.773   7.104   0.146 -0.7036 -0.5001 -0.8226
   25MOL   C36529213   6.701   7.169   0.031 -0.2127  0.8365  0.2241
   25MOL   C36629214   6.687   7.325   0.047 -0.4297  0.6361 -0.0210
   25MOL   C36729215   6.799   7.398   7.739 -0.1092  0.4696  0.3825
   25MOL   C36829216   6.806   7.556   0.013 -0.4415  0.4018 -0.0589
   25MOL   C36929217   6.924   7.637   7.708  0.3279 -0.5354 -0.7935
   25MOL   C37029218   6.941   7.628   7.558 -0.2772 -0.5187  0.2314
   25MOL   C37129219   6.832   7.701   7.481  0.7059  0.5338  0.0407
   25MOL   C37229220   6.837   7.668   7.331  0.2544 -0.2485  0.7039
   25MOL   O37329221   6.722   7.721   7.267  0.0947  0.0827 -0.1460
   25MOL   C37429222   6.728   0.053   7.168  0.1253 -0.4173 -0.5191
   25MOL   O37529223   6.827   0.114   7.131 -0.5972 -0.0846 -0.5595
   25MOL   C37629224   6.593   0.071   7.118 -0.3273 -0.4243 -0.1015
   25MOL   C37729225   6.569   0.211   7.066  0.0442 -0.4982 -0.6089
   25MOL   C37829226   6.439   0.237   6.997 -0.4156 -0.1669  0.6945
   25MOL   C37929227   6.311   0.219   7.085  0.4134  0.8075 -1.0293
   25MOL   C38029228   6.182   0.256   7.009 -0.5371  0.3240 -0.1772
   25MOL   C38129229   6.051   0.224   7.079  0.6244  0.3137 -0.1088
   25MOL   C38229230   5.933   0.255   6.993 -0.1187  0.2070  0.5380
   25MOL   C38329231   5.915   0.399   6.944 -0.3596  0.0179  0.3190
   25MOL   C38429232   5.886   0.511   7.046  0.1259  0.0058 -0.1988
   25MOL   O38529233   5.945   0.614   7.031 -0.3183  0.3843  0.8872
   25MOL   H38629234   6.885   6.977   0.020 -0.1615 -1.5954  0.0440
   25MOL   H38729235   6.741   6.895   0.095 -0.8631 -0.4826  2.4995
   25MOL   H38829236   6.728   7.117   0.245 -0.6410 -1.9665 -0.5805
   25MOL   H38929237   6.856   7.174   0.151  1.4971 -3.1103  1.0767
   25MOL   H39029238   6.756   7.161   7.693  1.0928  0.6325  0.9858
   25MOL   H39129239   6.604   7.123   0.016  0.3293 -0.2073 -0.1054
   25MOL   H39229240   6.592   7.355   0.002 -1.1908 -0.7597  0.6136
   25MOL   H39329241   6.667   7.352   0.150 -2.0714 -0.2508 -0.0758
   25MOL   H39429242   6.802   7.388   7.630  0.2681 -0.2468  0.4537
   25MOL   H39529243   6.891   7.347   0.013  0.6038  0.5556 -1.5258
   25MOL   H39629244   6.810   7.574   0.121 -1.2044 -2.5360  0.5162
   25MOL   H39729245   6.712   7.602   7.740 -0.2298  0.2260 -1.0153
   25MOL   H39829246   7.014   7.591   7.749 -1.2065 -0.4985  2.7995
   25MOL   H39929247   6.916   7.740   7.742 -0.0435 -1.4002  1.8720
   25MOL   H40029248   6.946   7.523   7.529 -1.4902 -0.0693 -1.6341
   25MOL   H40129249   7.040   7.665   7.532 -1.0588  1.7283  0.3525
   25MOL   H40229250   6.733   7.674   7.519  0.2217 -1.4645 -2.5411
   25MOL   H40329251   6.839   0.053   7.494  2.0727  0.3600  0.8774
   25MOL   H40429252   6.920   7.718   7.282 -0.8773 -1.0626 -2.1336
   25MOL   H40529253   6.849   7.559   7.323 -0.0847 -0.2776  0.6148
   25MOL   H40629254   6.525   0.067   7.203 -0.8541 -2.5766 -0.5821
   25MOL   H40729255   6.555   7.755   7.046  1.7114 -1.5390 -0.0968
   25MOL   H40829256   6.652   0.239   7.001  0.4643 -0.2313  0.0380
   25MOL   H40929257   6.581   0.283   7.147 -2.2553  1.4913 -1.9622
   25MOL   H41029258   6.428   0.156   6.926 -2.8978  0.1225  0.6993
   25MOL   H41129259   6.439   0.334   6.946 -0.3912 -1.1310 -1.1604
   25MOL   H41229260   6.315   0.256   7.187 -0.8903  3.0092 -1.7570
   25MOL   H41329261   6.316   0.111   7.103 -0.0953  1.0731  0.8429
   25MOL   H41429262   6.183   0.363   6.987  0.7045  0.0557 -1.5247
   25MOL   H41529263   6.194   0.208   6.913  0.2917 -1.0858  0.6169
   25MOL   H41629264   6.044   0.118   7.102  0.6723  0.6375  1.4540
   25MOL   H41729265   6.046   0.269   7.178 -1.0064  2.0396 -0.9360
   25MOL   H41829266   5.845   0.232   7.053  0.7645  0.6837  2.0465
   25MOL   H41929267   5.937   0.194   6.902  1.6598 -0.3235  0.9435
   25MOL   H42029268   6.003   0.434   6.890 -2.0545  1.1536 -1.7327
   25MOL   H42129269   5.826   0.403   6.882 -0.6398  0.6234  0.7566
   25MOL   O42229270   5.799   0.483   7.134  0.1127 -0.1398 -0.2956
   25MOL   C42329271   5.752   0.588   7.213  0.3556  0.8736  0.8089
   25MOL   C42429272   5.612   0.548   7.252  0.4968 -0.8375 -0.3314
   25MOL   C42529273   5.604   0.445   7.368  0.1515 -0.9482  0.3058
   25MOL   C42629274   5.464   0.410   7.422  0.9289  0.0246 -0.8801
   25MOL   C42729275   5.475   0.343   7.561 -0.1955 -0.2766  0.1967
   25MOL   C42829276   5.338   0.319   7.626 -0.0179 -0.6296 -0.1260
   25MOL   C42929277   5.227   0.271   7.534 -0.0155 -0.0005  0.4056
   25MOL   C43029278   5.250   0.138   7.477 -0.1525  0.2990  0.1734
   25MOL   C43129279   5.175   0.105   7.347 -0.1393  0.0390 -0.1352
   25MOL   C43229280   5.218   7.732   7.285  0.1858 -0.0736  0.9668
   25MOL   O43329281   5.345   7.746   7.233 -0.7453 -0.1375  0.3148
   25MOL   C43429282   5.367   0.021   7.103  0.5114 -0.1791 -0.0373
   25MOL   O43529283   5.274   0.043   7.021 -0.2320  0.0682  0.0480
   25MOL   C43629284   5.516   0.031   7.056 -0.3202  0.0212 -0.5816
   25MOL   C43729285   5.538   0.138   6.942 -0.0151  0.2273  0.2968
   25MOL   C43829286   5.515   0.289   6.983  0.4763  0.0932 -0.0882
   25MOL   C43929287   5.507   0.377   6.856 -0.0065  0.2984 -0.5734
   25MOL   C44029288   5.495   0.525   6.875 -0.9062  0.0503  0.3888
   25MOL   C44129289   5.360   0.560   6.946 -0.3547  0.4993  0.3966
   25MOL   C44229290   5.364   0.701   6.993  0.4037 -0.3179  0.3688
   25MOL   C44329291   5.221   0.744   7.026  0.2249  0.2651 -0.5492
   25MOL   C44429292   5.154   0.662   7.135  0.2575 -0.1744 -0.5449
   25MOL   O44529293   5.225   0.610   7.218  0.0485 -0.1235 -0.3928
   25MOL   H44629294   5.823   0.592   7.295  0.9808  0.3277  0.3018
   25MOL   H44729295   5.746   0.686   7.165 -2.4459  0.9928  1.2926
   25MOL   H44829296   5.547   0.631   7.281 -0.8230 -0.5757 -3.7236
   25MOL   H44929297   5.576   0.508   7.157 -0.8068  2.7646 -1.4563
   25MOL   H45029298   5.651   0.352   7.336 -1.1373 -0.3964 -3.5543
   25MOL   H45129299   5.663   0.479   7.452  1.2276 -0.3482 -0.6799
   25MOL   H45229300   5.406   0.502   7.424  1.5570  0.4045  0.6161
   25MOL   H45329301   5.423   0.337   7.352 -0.0409  0.7160 -1.0417
   25MOL   H45429302   5.521   0.407   7.637  1.3192 -1.4228  0.2549
   25MOL   H45529303   5.529   0.249   7.558  0.7390  0.2580  0.2552
   25MOL   H45629304   5.300   0.415   7.661  0.8024  0.1108 -1.2594
   25MOL   H45729305   5.339   0.266   7.721 -2.6005 -1.1526 -0.3471
   25MOL   H45829306   5.217   0.339   7.449  0.4785  0.0425  0.3823
   25MOL   H45929307   5.129   0.282   7.580  0.1046  0.4531  0.5561
   25MOL   H46029308   5.227   0.066   7.556 -1.0925 -0.4906 -0.7983
   25MOL   H46129309   5.351   0.135   7.438 -0.6794  0.8383 -1.2891
   25MOL   H46229310   5.070   0.104   7.374 -0.6700  0.7966 -2.1324
   25MOL   H46329311   5.192   0.188   7.279  1.2788  0.1367  0.3113
   25MOL   H46429312   5.207   7.648   7.354  1.2773 -1.4150 -0.4338
   25MOL   H46529313   5.139   7.709   7.214 -0.0029  1.7621  0.5783
   25MOL   H46629314   5.542   7.686   7.027 -0.5672 -0.4590  0.8574
   25MOL   H46729315   5.576   0.049   7.145 -0.3268 -0.5001 -0.4677
   25MOL   H46829316   5.475   0.107   6.858 -0.3167 -2.2618  1.4095
   25MOL   H46929317   5.635   0.134   6.894  0.0933 -0.3851  0.5591
   25MOL   H47029318   5.602   0.320   7.041  0.3002 -0.7247  0.6178
   25MOL   H47129319   5.432   0.297   7.053 -1.0946 -1.0408 -1.7867
   25MOL   H47229320   5.422   0.341   6.798 -0.2001  2.1938 -1.4724
   25MOL   H47329321   5.595   0.356   6.795  1.1559 -2.1118  1.7776
   25MOL   H47429322   5.577   0.573   6.928 -2.5372  2.8986  0.4055
   25MOL   H47529323   5.512   0.566   6.775  0.1042 -1.0263  0.1101
   25MOL   H47629324   5.284   0.533   6.872 -0.9769 -1.1076  1.5985
   25MOL   H47729325   5.352   0.493   7.031  0.3204  0.8906  0.7763
   25MOL   H47829326   5.386   0.763   6.906 -0.3878  1.1213  1.1886
   25MOL   H47929327   5.428   0.717   7.080 -1.8389 -2.9936  2.6122
   25MOL   H48029328   5.208   0.851   7.042  1.2352  0.6265 -1.9941
   25MOL   H48129329   5.154   0.729   6.941 -0.0664  3.1286 -0.8915
   25MOL   O48229330   5.027   0.664   7.139  0.0585 -0.8591 -0.3786
   25MOL   C48329331   4.956   0.602   7.239 -0.2345  0.5082 -1.1834
   25MOL   C48429332   4.817   0.660   7.249 -0.1732 -0.2419  0.0495
   25MOL   C48529333   4.721   0.583   7.343 -0.1051 -0.3981 -0.1097
   25MOL   C48629334   4.569   0.624   7.338  0.4538 -0.0829 -0.2935
   25MOL   C48729335   4.487   0.563   7.221  0.2900  0.2858  0.6972
   25MOL   C48829336   4.344   0.615   7.212 -0.1870  0.0062 -0.1047
   25MOL   C48929337   4.328   0.754   7.160  0.0981  0.1574 -0.2935
   25MOL   C49029338   4.182   0.795   7.143 -0.6665 -0.1987  0.2773
   25MOL   C49129339   4.153   0.933   7.076 -0.1050  0.3762  0.5287
   25MOL   C49229340   4.189   1.065   7.151 -0.8199  0.3887 -0.0715
   25MOL   O49329341   4.083   1.085   7.243 -0.2449  0.0477 -0.0082
   25MOL   C49429342   4.099   1.185   7.331  0.2606  0.4001  0.2349
   25MOL   O49529343   4.193   1.266   7.328 -0.0265 -0.2560  0.4703
   25MOL   C49629344   3.990   1.195   7.443 -0.2169 -0.3800  0.7702
   25MOL   C49729345   3.998   1.328   7.509 -0.9018 -0.1731 -0.3462
   25MOL   C49829346   3.880   1.342   7.619  0.0883  0.2004 -0.6581
   25MOL   C49929347   3.882   1.488   7.676  0.1184  0.4774  0.0365
   25MOL   C50029348   3.827   1.495   0.056  0.8754  0.5483 -1.1320
   25MOL   C50129349   3.676   1.487   0.063 -0.3804 -0.5346  0.2227
   25MOL   C50229350   3.621   1.471   0.201 -0.3911  0.1070 -0.9286
   25MOL   C50329351   3.473   1.476   0.193 -0.3316 -0.4869 -0.1834
   25MOL   C50429352   3.402   1.341   0.153 -0.5902  0.1515 -0.8577
   25MOL   O50529353   3.352   1.275   0.240 -0.2002 -0.0749 -0.6531
   25MOL   H50629354   4.947   0.495   7.220 -1.1465  0.0941  1.2928
   25MOL   H50729355   5.008   0.622   7.333  0.9301 -0.1456 -1.6884
   25MOL   H50829356   4.819   0.766   7.271 -1.6560 -0.3123  0.6154
   25MOL   H50929357   4.771   0.661   7.150 -1.6204  0.8956  0.7144
   25MOL   H51029358   4.736   0.475   7.340  0.5057 -0.2889 -1.5157
   25MOL   H51129359   4.748   0.604   7.446 -1.5531 -0.4361  0.2931
   25MOL   H51229360   4.511   0.629   7.430 -1.2083 -0.1804 -1.3231
   25MOL   H51329361   4.579   0.731   7.323 -1.2453  0.1576  0.2397
   25MOL   H51429362   4.475   0.457   7.245  0.9747  0.5748  2.4193
   25MOL   H51529363   4.536   0.571   7.124 -0.6003 -0.3509  0.1876
   25MOL   H51629364   4.298   0.601   7.309  1.8181 -1.3213  0.6814
   25MOL   H51729365   4.278   0.550   7.155  0.6861 -2.1585  1.3032
   25MOL   H51829366   4.369   0.753   7.059 -1.2024 -0.8946 -0.8219
   25MOL   H51929367   4.388   0.830   7.209 -2.4896  3.0124 -1.3396
   25MOL   H52029368   4.134   0.800   7.241  0.0597 -1.0155  0.6867
   25MOL   H52129369   4.128   0.716   7.092  2.5083 -1.8442 -0.6452
   25MOL   H52229370   4.190   0.937   6.973  0.0012 -1.0674  0.4984
   25MOL   H52329371   4.049   0.927   7.045  0.5419 -0.6224 -1.5852
   25MOL   H52429372   4.283   1.046   7.203 -1.7893 -0.6354  1.3265
   25MOL   H52529373   4.202   1.156   7.092 -1.1397  1.4364  1.4503
   25MOL   H52629374   4.002   1.114   7.514  0.1147 -0.5484  0.5216
   25MOL   H52729375   3.898   1.180   7.386 -1.6740  0.6435  2.7640
   25MOL   H52829376   3.999   1.404   7.431  0.2669 -0.4152 -0.5846
   25MOL   H52929377   4.093   1.348   7.560 -1.1790 -1.0262  0.5271
   25MOL   H53029378   3.916   1.267   7.689  0.6093 -0.3739 -1.5437
   25MOL   H53129379   3.784   1.305   7.583  0.1583 -0.8857  0.2346
   25MOL   H53229380   3.832   1.557   7.608 -0.7419 -2.3896 -2.3093
   25MOL   H53329381   3.986   1.522   7.680  0.5960 -0.9180 -0.1073
   25MOL   H53429382   3.876   1.420   0.119  0.0640  1.1144  0.2055
   25MOL   H53529383   3.870   1.583   0.104 -1.1487  0.8516  0.1861
   25MOL   H53629384   3.635   1.576   0.015 -1.0597 -0.1319  1.5198
   25MOL   H53729385   3.647   1.402   0.002  0.3266  0.1883 -1.1450
   25MOL   H53829386   3.653   1.561   0.253 -0.4837  0.7642 -2.0026
   25MOL   H53929387   3.659   1.394   0.269 -1.5241  0.0478 -0.3567
   25MOL   H54029388   3.432   1.506   0.290 -0.4187  1.3959 -0.7724
   25MOL   H54129389   3.442   1.557   0.127  0.7622 -0.8075 -1.1213
   25MOL   O54229390   3.416   1.305   0.024  0.0120  0.2931  0.3907
   25MOL   C54329391   3.357   1.186   7.739 -0.5032  0.1435 -0.3720
   25MOL   C54429392   3.393   1.150   7.595  0.5060 -0.0946 -0.5877
   25MOL   C54529393   3.337   1.017   7.554  0.3456  0.3915  0.2286
   25MOL   C54629394   3.391   0.957   7.428  0.3428 -0.4007 -0.7124
   25MOL   C54729395   3.376   0.802   7.421  0.0733 -0.2111 -0.9429
   25MOL   C54829396   3.394   0.744   7.288 -0.5486 -0.4207  0.0912
   25MOL   C54929397   3.386   0.588   7.286 -0.1993  0.3230  1.0002
   25MOL   C55029398   3.391   0.530   7.148  0.2965  0.5620 -0.2307
   25MOL   C55129399   3.350   0.374   7.144 -0.2445  0.2420 -0.3443
   25MOL   C55229400   3.373   0.313   7.006 -0.1467  0.0208 -0.0873
   25MOL   O55329401   3.339   0.169   7.007 -0.3548  0.4635  0.2605
   25MOL   C55429402   3.232   0.129   6.933  0.2370 -0.5638 -0.1074
   25MOL   O55529403   3.154   0.203   6.872  0.3171  0.2702 -0.0245
   25MOL   C55629404   3.191   7.739   6.959 -0.2440 -0.1195 -0.4621
   25MOL   C55729405   3.200   7.702   7.108 -0.0889  0.1379 -0.5107
   25MOL   C55829406   3.117   0.036   7.199  0.2062  1.0031 -0.4464
   25MOL   C55929407   3.109   7.742   7.350 -0.5202 -0.3071  0.1677
   25MOL   C56029408   3.024   0.071   7.442 -0.2339 -0.3763 -0.6426
   25MOL   C56129409   3.063   0.225   7.452  0.5354 -0.2497  0.8031
   25MOL   C56229410   2.996   0.295   7.579  0.3422 -0.1452  0.0092
   25MOL   C56329411   3.079   0.416   7.624  0.4060 -0.5606  0.3128
   25MOL   C56429412   3.211   0.381   7.691 -0.2114  0.1383  0.7158
   25MOL   O56529413   3.231   0.280   7.754  0.0955 -0.4862  0.3583
   25MOL   H56629414   3.376   1.116   0.064  0.5505 -0.2084 -0.9093
   25MOL   H56729415   3.248   1.184   7.740 -0.5463  1.5380 -1.1353
   25MOL   H56829416   3.374   1.231   7.525 -0.8636  0.8626  0.8324
   25MOL   H56929417   3.501   1.145   7.593  0.4541 -1.6413 -0.4954
   25MOL   H57029418   3.363   0.945   7.633  3.9064  0.8162 -0.4708
   25MOL   H57129419   3.229   1.004   7.549  0.6368 -1.3439 -2.3893
   25MOL   H57229420   3.321   0.999   7.356 -2.3747 -1.6397  1.1399
   25MOL   H57329421   3.493   0.992   7.412  0.0744 -0.6794 -3.2878
   25MOL   H57429422   3.287   0.781   7.481  0.2448  1.1150 -0.1984
   25MOL   H57529423   3.459   0.757   7.476  1.0545  0.3686 -1.9406
   25MOL   H57629424   3.486   0.776   7.238  0.3490 -2.4977  0.3464
   25MOL   H57729425   3.306   0.781   7.235 -1.0053  0.8447  1.7101
   25MOL   H57829426   3.300   0.567   7.350 -0.8765  1.3218  0.4212
   25MOL   H57929427   3.473   0.546   7.337 -0.8411 -0.3903  1.5149
   25MOL   H58029428   3.491   0.543   7.107  0.1925 -1.1882 -1.1035
   25MOL   H58129429   3.320   0.587   7.087 -0.1009  2.1296  1.6784
   25MOL   H58229430   3.416   0.321   7.213  1.3476  0.4628 -1.6744
   25MOL   H58329431   3.249   0.358   7.181  0.4697 -0.4574  1.3645
   25MOL   H58429432   3.320   0.372   6.932  0.3538  1.4065  0.6508
   25MOL   H58529433   3.475   0.328   6.972  0.1712  0.1119  0.8871
   25MOL   H58629434   3.248   7.666   6.902 -0.4812 -0.1132 -0.7081
   25MOL   H58729435   3.093   7.724   6.914 -0.2604 -0.3524 -0.3516
   25MOL   H58829436   3.304   7.699   7.139 -0.4459  0.1996  0.6996
   25MOL   H58929437   3.185   7.595   7.121  2.8378 -0.1050  1.2647
   25MOL   H59029438   3.014   0.028   7.164 -0.1481  1.1492  0.5423
   25MOL   H59129439   3.159   0.137   7.195  0.0471  1.0126 -1.9147
   25MOL   H59229440   3.203   7.711   7.395 -0.3295  1.6212  1.1411
   25MOL   H59329441   3.064   7.643   7.344  0.8357 -0.9646  0.5859
   25MOL   H59429442   2.920   0.056   7.412 -0.7441  0.0796  0.8666
   25MOL   H59529443   3.029   0.021   7.538 -1.0636  1.1360  0.2141
   25MOL   H59629444   3.170   0.244   7.455  0.5395 -0.3710  1.5435
   25MOL   H59729445   3.034   0.284   7.365 -0.9801  0.2608  1.6362
   25MOL   H59829446   2.996   0.220   7.658  1.1396 -0.7571 -0.5584
   25MOL   H59929447   2.893   0.325   7.558  0.0492 -0.8376  0.4357
   25MOL   H60029448   3.089   0.486   7.541 -4.4592  3.0689  2.5705
   25MOL   H60129449   3.022   0.473   7.696  0.2213  0.5524 -0.7055
   25MOL   O60229450   3.307   0.467   7.668 -0.2312 -0.2443 -0.0759
   25MOL   C60329451   3.437   0.442   7.726  0.5629  0.2376  0.1240
   25MOL   C60429452   3.533   0.553   7.684 -0.1913  0.0502 -0.6017
   25MOL   C60529453   3.531   0.688   0.007 -0.5703  0.2227  0.6240
   25MOL   C60629454   3.625   0.799   7.713 -0.7048  0.2941  0.4172
   25MOL   C60729455   3.635   0.921   0.051  0.1813  0.9624  0.2699
   25MOL   C60829456   3.747   1.019   0.015  0.2204 -0.1133 -0.7607
   25MOL   C60929457   3.840   1.051   0.142 -0.0438 -0.1496  0.3240
   25MOL   C61029458   3.769   1.142   0.245  0.2903  0.2568  0.3116
   25MOL   C61129459   3.830   1.144   0.383  0.2032  0.3502 -0.2023
   25MOL   C61229460   3.756   1.223   0.490 -0.1123 -0.9080 -0.1829
   25MOL   O61329461   3.791   1.172   0.617  0.0981  0.1111 -0.2139
   25MOL   C61429462   3.787   1.248   0.722 -0.4122  0.0851  0.3112
   25MOL   O61529463   3.779   1.371   0.720  0.3153  0.0573 -0.3649
   25MOL   C61629464   3.815   1.169   0.852  0.0438  0.3599  0.2924
   25MOL   C61729465   3.910   1.236   0.953 -0.3338 -0.9055  0.7418
   25MOL   C61829466   4.061   1.221   0.913  0.1577  0.3016  0.0248
   25MOL   C61929467   4.170   1.249   1.024  0.0116  0.2488  0.2582
   25MOL   C62029468   4.314   1.247   0.967 -0.0279 -0.7107  0.3577
   25MOL   C62129469   4.419   1.249   1.077 -0.1346 -0.6982  0.2817
   25MOL   C62229470   4.562   1.235   1.025 -0.1135  0.1342  0.0475
   25MOL   C62329471   4.666   1.220   1.139 -0.0923 -0.4685 -0.3574
   25MOL   C62429472   4.713   1.076   1.157 -0.2368  0.1244  0.0669
   25MOL   O62529473   4.680   0.997   1.245  0.8610  0.1063  0.9155
   25MOL   H62629474   3.438   0.446   0.079 -0.3204  1.7135  0.1040
   25MOL   H62729475   3.473   0.347   7.687 -1.4174 -0.3842 -0.2656
   25MOL   H62829476   3.632   0.508   7.697 -0.5020 -0.3231  0.5480
   25MOL   H62929477   3.521   0.571   7.577  0.1563  2.9164 -0.2110
   25MOL   H63029478   3.427   0.719   0.000 -1.0739 -1.7372 -1.0334
   25MOL   H63129479   3.555   0.664   0.111  0.9061 -0.2488  0.1949
   25MOL   H63229480   3.723   0.753   7.707  0.7826  3.6257 -2.4871
   25MOL   H63329481   3.596   0.838   7.616 -0.3267  1.1766  0.6593
   25MOL   H63429482   3.658   0.874   0.147 -0.7330  1.4397  0.7301
   25MOL   H63529483   3.540   0.971   0.072 -0.9823 -0.7383 -0.8299
   25MOL   H63629484   3.708   1.114   7.735  1.2305  0.8550  0.6070
   25MOL   H63729485   3.812   0.981   7.693  1.2427  0.5578 -0.2611
   25MOL   H63829486   3.933   1.093   0.104  1.4199 -2.0244  1.7574
   25MOL   H63929487   3.878   0.962   0.192  0.6439  0.3139  0.6366
   25MOL   H64029488   3.665   1.114   0.262 -0.8524  4.8657  1.4273
   25MOL   H64129489   3.761   1.238   0.194 -0.9355 -0.5901 -1.1248
   25MOL   H64229490   3.834   1.044   0.428 -1.4301  0.2843 -0.1680
   25MOL   H64329491   3.936   1.170   0.385  0.5319 -0.8559  3.2933
   25MOL   H64429492   3.769   1.331   0.480 -2.3866 -0.2267  3.3205
   25MOL   H64529493   3.650   1.200   0.484 -0.1133 -1.0529  0.3198
   25MOL   H64629494   3.834   1.066   0.820 -3.2179 -0.1112 -0.2971
   25MOL   H64729495   3.717   1.174   0.899 -1.3600 -1.0442 -2.3953
   25MOL   H64829496   3.889   1.196   1.052  2.2411 -2.4658  0.7181
   25MOL   H64929497   3.884   1.342   0.960 -0.5647 -0.9547  0.6166
   25MOL   H65029498   4.075   1.290   0.829  0.7033  0.4684  0.2511
   25MOL   H65129499   4.071   1.118   0.878 -0.6497 -0.2693  1.4551
   25MOL   H65229500   4.159   1.186   1.113  0.1246 -0.3926 -0.1716
   25MOL   H65329501   4.140   1.351   1.045  1.3278  0.7904 -0.3950
   25MOL   H65429502   4.333   1.164   0.899 -1.0385  1.2616 -2.4103
   25MOL   H65529503   4.322   1.335   0.904 -2.6721 -1.7701 -1.5160
   25MOL   H65629504   4.408   1.345   1.127  1.3303 -0.2654 -0.1945
   25MOL   H65729505   4.395   1.172   1.150  2.0367 -1.8322 -0.1509
   25MOL   H65829506   4.591   1.325   0.972  2.4152 -0.9318 -0.4998
   25MOL   H65929507   4.559   1.166   0.940  1.0764  0.1897 -0.0440
   25MOL   H66029508   4.752   1.282   1.114  0.3858 -1.1256 -0.3633
   25MOL   H66129509   4.636   1.261   1.235  1.8778  0.6637 -0.2062
   25MOL   O66229510   4.781   1.038   1.051  0.0465 -0.1512 -0.1737
   25MOL   C66329511   4.825   0.904   1.038 -0.0197 -0.4650  0.1167
   25MOL   C66429512   4.769   0.839   0.916 -0.5378  0.1011  0.2185
   25MOL   C66529513   4.824   0.701   0.894  0.4197  0.3438 -0.0232
   25MOL   C66629514   4.765   0.631   0.767 -0.3618 -0.2393 -0.1526
   25MOL   C66729515   4.796   0.482   0.761 -0.7245  0.3526 -0.2791
   25MOL   C66829516   4.697   0.407   0.684 -0.1161  0.5480 -0.1983
   25MOL   C66929517   4.731   0.254   0.686 -1.0680  0.5483  0.2692
   25MOL   C67029518   4.629   0.168   0.615 -0.2812 -0.0203 -0.0059
   25MOL   C67129519   4.648   0.013   0.641  0.1136  0.2126  0.4836
   25MOL   C67229520   4.532   7.688   0.604 -0.1262 -0.6504 -0.2831
   25MOL   O67329521   4.554   7.555   0.618  0.2912 -0.1623 -0.3018
   25MOL   C67429522   4.455   7.472   0.585  0.5462  0.0904 -0.0247
   25MOL   O67529523   4.351   7.497   0.521 -0.4399 -0.1165 -0.7323
   25MOL   C67629524   4.482   7.324   0.611 -0.8976  0.6159 -0.8374
   25MOL   C67729525   4.557   7.305   0.744  1.2182 -0.6789  0.1869
   25MOL   C67829526   4.564   7.157   0.801 -0.2439  0.7182 -0.1729
   25MOL   C67929527   4.648   7.064   0.708 -0.2663 -0.5791 -0.0971
   25MOL   C68029528   4.696   6.938   0.780  0.2951  0.2849  0.5902
   25MOL   C68129529   4.807   6.872   0.700  0.3481  1.5202  0.2140
   25MOL   C68229530   4.756   6.804   0.566 -0.3006 -0.5774 -0.0665
   25MOL   C68329531   4.863   6.740   0.486  0.1250  0.7183 -0.4340
   25MOL   C68429532   4.858   6.588   0.486 -0.2087 -0.4592  1.0421
   25MOL   O68529533   4.780   6.534   0.405 -0.5458 -0.3260 -0.6775
   25MOL   H68629534   4.934   0.902   1.031 -0.0106  1.0983 -0.4568
   25MOL   H68729535   4.813   0.837   1.123  2.1813  1.1232  1.7469
   25MOL   H68829536   4.661   0.830   0.923 -0.6543  0.9600 -0.3791
   25MOL   H68929537   4.786   0.901   0.828  0.7199  0.4787  0.7132
   25MOL   H69029538   4.932   0.709   0.891  0.3414  1.3722 -0.4889
   25MOL   H69129539   4.799   0.638   0.979 -1.7144 -0.7199 -1.3588
   25MOL   H69229540   4.658   0.645   0.781  0.0760  3.4950  0.1271
   25MOL   H69329541   4.777   0.680   0.670 -1.6281  0.3485 -0.0277
   25MOL   H69429542   4.788   0.442   0.862 -0.7847  0.7075 -0.1457
   25MOL   H69529543   4.898   0.468   0.725 -0.5433 -0.4991  0.5362
   25MOL   H69629544   4.684   0.437   0.580 -0.3827 -0.8913 -0.6002
   25MOL   H69729545   4.600   0.418   0.731 -0.1921 -2.3781  0.4304
   25MOL   H69829546   4.737   0.221   0.790  1.4088  0.3741  0.0887
   25MOL   H69929547   4.828   0.228   0.645 -0.1370  3.0434  0.8101
   25MOL   H70029548   4.642   0.184   0.508  1.3173  1.3934  0.3762
   25MOL   H70129549   4.529   0.196   0.646  0.0454  1.0494  0.0896
   25MOL   H70229550   4.737   7.744   0.584 -0.8073 -0.4872 -0.6673
   25MOL   H70329551   4.672   7.754   0.747 -1.7758 -0.6653  0.8053
   25MOL   H70429552   4.453   7.727   0.667 -1.2899  1.1861 -2.7667
   25MOL   H70529553   4.522   7.705   0.497  0.6327  0.6599 -0.1680
   25MOL   H70629554   4.549   7.288   0.533  0.1065  2.0849 -0.6714
   25MOL   H70729555   4.385   7.275   0.602 -0.2329 -0.8203 -0.3129
   25MOL   H70829556   4.504   7.358   0.823  1.6727  0.4555 -0.2647
   25MOL   H70929557   4.656   7.346   0.724  0.4134  1.0743 -0.2839
   25MOL   H71029558   4.469   7.120   0.840 -0.6379  1.4271 -0.4526
   25MOL   H71129559   4.635   7.175   0.881  0.4885  1.8975 -1.0594
   25MOL   H71229560   4.731   7.120   0.665  0.9697 -0.6170  2.1243
   25MOL   H71329561   4.585   7.050   0.621 -0.7456 -0.9458  0.3046
   25MOL   H71429562   4.725   6.973   0.880  0.7587  1.2708  0.1239
   25MOL   H71529563   4.623   6.860   0.796 -0.1750  0.9475  1.8150
   25MOL   H71629564   4.896   6.931   0.678  2.4976 -1.2309  1.1631
   25MOL   H71729565   4.856   6.793   0.757 -2.6734 -0.0037  0.8267
   25MOL   H71829566   4.711   6.883   0.505 -1.6632 -1.1206  0.2040
   25MOL   H71929567   4.676   6.731   0.580 -0.4181 -0.2756  0.9143
   25MOL   H72029568   4.865   6.777   0.384 -1.2925 -0.6745 -0.9826
   25MOL   H72129569   4.958   6.779   0.520  1.0624 -0.1674 -1.9952
   25MOL   O72229570   4.941   6.531   0.569 -0.0185  0.0242 -0.3648
   25MOL   C72329571   4.920   6.392   0.586  0.2158 -0.0650  0.8910
   25MOL   C72429572   4.971   6.362   0.724  0.4058 -0.3630  0.0366
   25MOL   C72529573   4.889   6.435   0.837  0.1846 -0.5805  0.4995
   25MOL   C72629574   4.734   6.415   0.843  0.5179  0.4128 -0.2708
   25MOL   C72729575   4.660   6.495   0.953 -0.6577 -0.0648  0.4719
   25MOL   C72829576   4.721   6.478   1.094  0.1625  0.1447  0.3013
   25MOL   C72929577   4.636   6.548   1.205 -0.2842  0.4261 -0.2711
   25MOL   C73029578   4.602   6.692   1.183 -0.2254 -0.1587  0.0437
   25MOL   C73129579   4.552   6.758   1.306  0.4783 -0.0960 -0.8776
   25MOL   C73229580   4.539   6.906   1.288  0.0500 -0.1239 -0.0859
   25MOL   O73329581   4.657   6.981   1.285 -0.5118 -0.3975 -0.2142
   25MOL   C73429582   4.648   7.114   1.263 -0.4697  0.0107  1.0022
   25MOL   O73529583   4.547   7.180   1.240 -0.6587 -0.2263 -0.1958
   25MOL   C73629584   4.796   7.172   1.270  0.1808 -0.0397  0.1287
   25MOL   C73729585   4.863   7.149   1.407  0.5343 -0.1470 -0.1143
   25MOL   C73829586   4.788   7.230   1.519  0.3681 -0.1382 -0.5592
   25MOL   C73929587   4.853   7.208   1.654 -0.1614 -0.1124  0.0348
   25MOL   C74029588   4.850   7.063   1.698 -0.2512  0.1204 -0.8511
   25MOL   C74129589   4.828   7.061   1.853  0.1939 -0.1965  0.3157
   25MOL   C74229590   4.841   6.921   1.919  0.5733  0.0861 -0.3732
   25MOL   C74329591   4.757   6.903   2.041  0.2886  0.2959 -0.0136
   25MOL   C74429592   4.756   6.763   2.107 -0.3446 -0.3761  0.2950
   25MOL   O74529593   4.864   6.707   2.140  0.2702 -0.3835  0.3982
   25MOL   H74629594   4.821   6.350   0.566  0.7135  0.5562 -3.3765
   25MOL   H74729595   4.983   6.341   0.513  0.1855  0.8999  0.1757
   25MOL   H74829596   4.979   6.255   0.746 -0.9066 -0.4309  0.2229
   25MOL   H74929597   5.073   6.402   0.724 -0.3884  1.7481 -1.8677
   25MOL   H75029598   4.930   6.400   0.932 -1.3199 -1.0591  0.9844
   25MOL   H75129599   4.916   6.540   0.831 -0.0726 -0.6144 -1.5652
   25MOL   H75229600   4.690   6.428   0.744 -3.4121  2.0289  1.5917
   25MOL   H75329601   4.702   6.314   0.867 -0.4927  0.5125 -1.1562
   25MOL   H75429602   4.555   6.468   0.946 -0.2741 -0.9541 -3.3465
   25MOL   H75529603   4.661   6.599   0.920  0.3244  0.1027  1.0240
   25MOL   H75629604   4.824   6.511   1.104  0.7853 -2.3566  2.9865
   25MOL   H75729605   4.737   6.372   1.111  0.0521 -0.1935 -1.6848
   25MOL   H75829606   4.704   6.555   1.290 -1.7513  0.1470  0.9503
   25MOL   H75929607   4.546   6.491   1.229  0.6490 -1.9290 -2.1389
   25MOL   H76029608   4.537   6.713   1.099  1.6091  0.5206 -1.2506
   25MOL   H76129609   4.696   6.736   1.150 -0.7723  0.2369 -1.0005
   25MOL   H76229610   4.457   6.708   1.329  0.8670 -1.1227 -1.4746
   25MOL   H76329611   4.614   6.731   1.391  1.0994  2.7383 -0.3766
   25MOL   H76429612   4.488   6.927   1.194 -2.1981 -1.5001  0.7744
   25MOL   H76529613   4.477   6.940   1.371 -0.3304 -1.3305  0.1406
   25MOL   H76629614   4.764   7.276   1.262  1.1925  0.1944 -1.0885
   25MOL   H76729615   4.861   7.156   1.184 -2.3596 -0.5746 -1.7580
   25MOL   H76829616   4.969   7.174   1.401  0.4585  0.0564 -0.6349
   25MOL   H76929617   4.877   7.045   1.437 -1.8047 -0.0785  1.3785
   25MOL   H77029618   4.685   7.194   1.521  0.5370 -0.6952 -1.7607
   25MOL   H77129619   4.784   7.335   1.490 -0.2784 -0.6137 -2.2305
   25MOL   H77229620   4.794   7.260   1.729 -1.6471 -0.3303 -0.9633
   25MOL   H77329621   4.955   7.246   1.661 -0.1882 -0.0094 -0.1190
   25MOL   H77429622   4.771   7.000   1.658  1.8968 -3.0082 -0.3475
   25MOL   H77529623   4.945   7.013   1.682 -0.1411 -1.2533  3.3322
   25MOL   H77629624   4.891   7.139   1.896  1.2988  0.3248 -2.1659
   25MOL   H77729625   4.726   7.094   1.874  0.5515  0.5987  0.7951
   25MOL   H77829626   4.947   6.899   1.937  0.3763  1.0023  2.0558
   25MOL   H77929627   4.794   6.850   1.850 -0.0878  0.4215 -0.2651
   25MOL   H78029628   4.777   6.978   2.118 -1.7160  0.1469  0.6745
   25MOL   H78129629   4.654   6.919   2.010  0.7069  0.9948 -1.0642
   25MOL   O78229630   4.638   6.714   2.142  0.1376  0.6379  0.1892
   25MOL   C78329631   4.635   6.586   2.205  0.2499  0.1776 -0.2035
   25MOL   C78429632   4.509   6.524   2.152 -0.3061 -0.6465  0.1833
   25MOL   C78529633   4.492   6.377   2.188 -0.5209  0.0714 -0.2641
   25MOL   C78629634   4.356   6.326   2.170  0.5414 -0.4043  0.0335
   25MOL   C78729635   4.323   6.320   2.014  0.1606  0.0580 -0.1170
   25MOL   C78829636   4.171   6.287   1.983  0.0484  0.8303  0.0505
   25MOL   C78929637   4.139   6.280   1.832  0.2005  0.8509  0.1913
   25MOL   C79029638   3.994   6.239   1.807  0.0316  0.5356  0.5137
   25MOL   C79129639   3.957   6.212   1.661  0.8271 -0.5720  0.0854
   25MOL   C79229640   3.812   6.183   1.630 -0.2307 -0.7284  0.2789
   25MOL   O79329641   3.746   6.110   1.728  0.2507  0.8515 -0.8028
   25MOL   C79429642   3.764   5.981   1.732  0.2168 -0.7830 -0.5740
   25MOL   O79529643   3.846   5.922   1.666  0.5335  0.5510 -0.2053
   25MOL   C79629644   3.680   5.912   1.837 -0.3094  0.4949 -0.0281
   25MOL   C79729645   3.529   5.890   1.794  0.1990  0.2728  0.1808
   25MOL   C79829646   3.448   5.806   1.885 -0.2024  0.3807 -1.1998
   25MOL   C79929647   3.314   5.766   1.826 -0.3159 -0.2555  0.6277
   25MOL   C80029648   3.257   5.638   1.896 -0.4225 -0.3533 -0.2152
   25MOL   C80129649   3.331   5.506   1.856  0.9527 -0.6768  0.0002
   25MOL   C80229650   3.304   5.443   1.719 -0.5320  0.2995 -0.2000
   25MOL   C80329651   3.345   5.294   1.718 -0.2215 -0.7468 -0.3560
   25MOL   C80429652   3.318   5.242   1.578 -0.1104  0.7494 -0.0694
   25MOL   O80529653   3.216   5.178   1.540  0.0589  0.3186 -0.6505
   25MOL   H80629654   4.715   6.525   2.162 -0.1825 -0.5536  0.0108
   25MOL   H80729655   4.638   6.584   2.314  0.6316  3.2630 -0.1059
   25MOL   H80829656   4.417   6.570   2.187 -1.3992 -1.3453 -1.6622
   25MOL   H80929657   4.502   6.543   2.044 -1.6376  0.4850  0.4503
   25MOL   H81029658   4.561   6.316   2.130 -0.1569  0.2206  0.0115
   25MOL   H81129659   4.532   6.365   2.289  2.2050 -0.0456 -1.3079
   25MOL   H81229660   4.340   6.224   2.205 -0.4484 -0.4447 -0.5208
   25MOL   H81329661   4.288   6.390   2.226 -1.6074  0.2560 -3.2012
   25MOL   H81429662   4.391   6.258   1.956  0.1903  0.4241 -0.4738
   25MOL   H81529663   4.341   6.420   1.974  1.9700  0.1270  0.8177
   25MOL   H81629664   4.119   6.361   2.044  1.0476  0.9975  0.7177
   25MOL   H81729665   4.148   6.191   2.030  2.1312 -0.3426 -1.2295
   25MOL   H81829666   4.200   6.202   1.787  0.5584  0.1923  1.7968
   25MOL   H81929667   4.152   6.383   1.797  0.1360  1.4117  1.7954
   25MOL   H82029668   3.924   6.311   1.850 -0.8728  0.2194 -0.4177
   25MOL   H82129669   3.970   6.154   1.870 -1.7513 -0.0659 -0.9291
   25MOL   H82229670   3.999   6.291   1.597 -1.8085  1.3970  0.7111
   25MOL   H82329671   4.016   6.122   1.643  0.2813 -1.3403  1.9938
   25MOL   H82429672   3.760   6.279   1.638  0.9235  0.0317 -1.0924
   25MOL   H82529673   3.804   6.135   1.532  2.2761  2.1712 -1.4543
   25MOL   H82629674   3.682   5.965   1.932  0.4200 -1.3544  1.0042
   25MOL   H82729675   3.726   5.814   1.846 -1.0128  0.1148 -0.5445
   25MOL   H82829676   3.532   5.842   1.696  0.2339  0.6234  0.0109
   25MOL   H82929677   3.480   5.985   1.770  0.0888  0.1286 -0.1703
   25MOL   H83029678   3.426   5.868   1.972 -0.4271 -0.2815 -0.7848
   25MOL   H83129679   3.504   5.716   1.909 -0.7581 -0.1883 -1.9874
   25MOL   H83229680   3.339   5.742   1.723  0.6682 -1.4548  1.1406
   25MOL   H83329681   3.228   5.833   1.822 -0.6443 -0.6568  0.9356
   25MOL   H83429682   3.274   5.658   2.002 -2.9415 -0.9328  0.3495
   25MOL   H83529683   3.149   5.632   1.879 -0.6707  3.7070 -0.5235
   25MOL   H83629684   3.438   5.524   1.864  0.5092  2.7493 -1.1186
   25MOL   H83729685   3.311   5.434   1.936  1.5322 -0.4480  0.3475
   25MOL   H83829686   3.358   5.497   1.642  0.3122 -0.7415 -0.3551
   25MOL   H83929687   3.202   5.456   1.683  0.1605 -0.1955 -2.4653
   25MOL   H84029688   3.447   5.273   1.750 -1.0129 -0.1401  2.7924
   25MOL   H84129689   3.277   5.231   1.776  0.3277 -0.7897  0.2517
   25MOL   O84229690   3.428   5.265   1.499 -0.0044  0.0819  0.1478
   25MOL   C84329691   3.424   5.247   1.358 -0.1855 -0.2578  0.3431
   25MOL   C84429692   3.562   5.267   1.299 -0.2212  0.2137 -0.2233
   25MOL   C84529693   3.553   5.250   1.148  0.0870 -0.3557 -0.2127
   25MOL   C84629694   3.697   5.254   1.089 -0.3677 -1.0044  0.3184
   25MOL   C84729695   3.689   5.246   0.938  0.6256  0.8990 -0.3100
   25MOL   C84829696   3.828   5.278   0.880  0.4250  0.5671  0.0766
   25MOL   C84929697   3.843   5.233   0.735 -0.6716  0.4180  0.8134
   25MOL   C85029698   3.982   5.240   0.675 -0.7081 -0.5255 -0.2918
   25MOL   C85129699   3.983   5.226   0.519  0.2148  0.0587  0.4771
   25MOL   C85229700   4.123   5.221   0.455 -0.6116  0.7282  0.1585
   25MOL   O85329701   4.199   5.333   0.501 -0.0320  0.2358  0.4394
   25MOL   C85429702   4.307   5.320   0.575  0.0533 -0.3657 -0.5556
   25MOL   O85529703   4.350   5.219   0.629 -0.1164  0.3626  0.8363
   25MOL   C85629704   4.370   5.455   0.606 -0.5075 -0.0346 -0.2489
   25MOL   C85729705   4.428   5.527   0.481 -0.1792 -0.0105  0.6421
   25MOL   C85829706   4.516   5.642   0.532  0.1876 -0.3789 -0.4791
   25MOL   C85929707   4.612   5.694   0.430 -0.1352  0.5926 -0.2962
   25MOL   C86029708   4.687   5.818   0.483 -0.1003  0.1411 -0.3089
   25MOL   C86129709   4.745   5.904   0.366 -0.3719  0.3432 -0.3371
   25MOL   C86229710   4.794   6.048   0.409  0.6951 -0.2531 -0.5600
   25MOL   C86329711   4.869   6.128   0.297  0.3279 -0.0394  0.0528
   25MOL   C86429712   5.005   6.063   0.275 -0.6304  0.7741  0.4416
   25MOL   O86529713   5.104   6.091   0.348 -0.4344  0.6528  0.6854
   25MOL   H86629714   3.392   5.149   1.323 -1.1329  0.0839  0.2201
   25MOL   H86729715   3.367   5.330   1.316  3.2479  1.5763 -0.8530
   25MOL   H86829716   3.600   5.363   1.335  0.8007 -0.3741  0.2777
   25MOL   H86929717   3.624   5.183   1.330 -0.2362 -0.1852 -1.2505
   25MOL   H87029718   3.513   5.155   1.111 -0.8378 -0.5589  1.2739
   25MOL   H87129719   3.503   5.337   1.106 -1.1748 -0.5019  0.9644
   25MOL   H87229720   3.746   5.349   1.110 -3.0274 -0.4252  4.4646
   25MOL   H87329721   3.764   5.177   1.126 -1.0753 -1.9530 -0.3572
   25MOL   H87429722   3.604   5.301   0.898  0.5145  1.0107  0.0775
   25MOL   H87529723   3.671   5.141   0.916  2.0943  0.6068 -0.1612
   25MOL   H87629724   3.892   5.216   0.942 -1.5889 -0.5691  1.0852
   25MOL   H87729725   3.860   5.382   0.889  0.1980  0.8226 -1.8925
   25MOL   H87829726   3.778   5.288   0.667 -0.7759 -1.7602 -0.9049
   25MOL   H87929727   3.820   5.127   0.729  2.1202 -0.2802  1.6507
   25MOL   H88029728   4.042   5.157   0.712 -2.2192 -1.9236 -0.9189
   25MOL   H88129729   4.024   5.338   0.698  1.8598 -1.3728 -1.1224
   25MOL   H88229730   3.930   5.137   0.487 -2.4210  0.5869  3.1147
   25MOL   H88329731   3.924   5.298   0.462  0.5078 -0.4722 -0.5098
   25MOL   H88429732   4.169   5.129   0.493 -1.3343  0.2931 -0.0093
   25MOL   H88529733   4.115   5.212   0.347  1.1718  0.6413  0.0223
   25MOL   H88629734   4.433   5.433   0.692  1.1011  1.2915 -1.0418
   25MOL   H88729735   4.295   5.528   0.636 -1.2789 -0.6632 -0.6379
   25MOL   H88829736   4.343   5.563   0.424  1.2625  1.7456 -0.4530
   25MOL   H88929737   4.500   5.467   0.425  0.7826  0.5626  1.2491
   25MOL   H89029738   4.571   5.609   0.619  1.2746 -1.2040 -1.4630
   25MOL   H89129739   4.444   5.717   0.566  1.4147 -0.2334  1.9193
   25MOL   H89229740   4.558   5.723   0.339  0.5076  0.7476 -0.6303
   25MOL   H89329741   4.686   5.616   0.411  0.4173  0.9249  0.5047
   25MOL   H89429742   4.610   5.881   0.526  0.3181  0.4503 -0.0140
   25MOL   H89529743   4.747   5.804   0.572  0.8761 -0.9035 -1.1053
   25MOL   H89629744   4.830   5.849   0.327 -0.6421 -0.6967  0.5173
   25MOL   H89729745   4.668   5.911   0.289  1.0960 -1.8310 -2.0405
   25MOL   H89829746   4.870   6.040   0.487 -1.1953 -0.8641  1.2646
   25MOL   H89929747   4.712   6.106   0.453 -2.4208 -1.7281 -4.1232
   25MOL   H90029748   4.821   6.131   0.200  0.0501 -0.7526  0.1691
   25MOL   H90129749   4.879   6.234   0.321  0.3761 -0.1169  0.3872
   25MOL   O90229750   5.010   5.984   0.164 -0.0198  0.0189  0.4513
   25MOL   C90329751   5.135   5.931   0.113  0.4048 -0.6415  0.1325
   25MOL   C90429752   5.204   6.031   0.021  0.5263  0.3680 -0.4783
   25MOL   C90529753   5.305   5.956   7.686  0.5879 -0.6125  0.3785
   25MOL   C90629754   5.359   6.042   7.570  0.1758  0.1492  0.3882
   25MOL   C90729755   5.476   6.138   7.608  0.4776 -0.5195 -0.2641
   25MOL   C90829756   5.530   6.230   7.501  0.2970  0.3502  0.1665
   25MOL   C90929757   5.627   6.322   7.575 -0.1967 -0.5047  0.4111
   25MOL   C91029758   5.696   6.418   7.473  0.6506  0.0224  0.8615
   25MOL   C91129759   5.770   6.528   7.535 -0.1149  0.0892 -0.3657
   25MOL   C91229760   5.868   6.616   7.447  0.2701  0.5939 -0.1836
   25MOL   O91329761   5.798   6.744   7.428  0.0072 -0.0072 -0.2755
   25MOL   C91429762   5.711   6.755   7.331 -0.0145  0.5491  0.2585
   25MOL   O91529763   5.675   6.666   7.255  0.6461 -0.4430  0.2025
   25MOL   C91629764   5.681   6.896   7.306  0.6661 -0.4561  0.1913
   25MOL   C91729765   5.639   6.933   7.163 -0.1105  0.3308 -0.1883
   25MOL   C91829766   5.493   6.895   7.116 -0.2287  1.0197  0.5769
   25MOL   C91929767   5.467   6.906   6.966 -0.3438 -1.0739 -0.2885
   25MOL   C92029768   5.341   6.834   6.919 -0.5449  0.1066  0.0845
   25MOL   C92129769   5.325   6.821   6.772  0.4932  0.7605 -0.4964
   25MOL   C92229770   5.201   6.734   6.739 -0.7145 -1.0891  0.5325
   25MOL   C92329771   5.068   6.801   6.760 -0.1758 -0.4643 -0.6939
   25MOL   C92429772   4.961   6.701   6.726 -0.4596 -0.0038 -0.1089
   25MOL   O92529773   4.939   6.667   6.611 -0.6903  0.4050 -0.9492
   25MOL   H92629774   5.198   5.915   0.201 -0.7366  1.1502  1.3211
   25MOL   H92729775   5.125   5.831   0.072 -0.8951 -0.0685 -0.9959
   25MOL   H92829776   5.131   6.086   7.718  0.7707  1.0850 -0.1177
   25MOL   H92929777   5.243   6.113   0.081 -1.3824 -0.0746  1.4185
   25MOL   H93029778   5.387   5.919   7.748  0.6886 -0.9732  0.0306
   25MOL   H93129779   5.252   5.868   7.651 -2.6174  1.2992  0.2255
   25MOL   H93229780   5.404   5.971   7.501  1.0481 -0.4495  1.5585
   25MOL   H93329781   5.280   6.089   7.512  0.0721  1.4490  1.5490
   25MOL   H93429782   5.561   6.080   7.645  0.8701  0.4698  0.4186
   25MOL   H93529783   5.443   6.189   7.699  1.6871 -2.0037  1.0490
   25MOL   H93629784   5.453   6.291   7.453  1.0614  0.7009 -0.6337
   25MOL   H93729785   5.580   6.178   7.419  2.2556  1.8087  0.4024
   25MOL   H93829786   5.708   6.265   7.619  0.0962 -1.4352 -1.3105
   25MOL   H93929787   5.579   6.391   7.646  0.0421  0.5605 -0.4488
   25MOL   H94029788   5.629   6.459   7.397  2.5296  1.8874  0.1844
   25MOL   H94129789   5.764   6.357   7.414 -2.2993 -0.4476 -2.2180
   25MOL   H94229790   5.705   6.590   7.598  1.5916 -0.6618  2.1975
   25MOL   H94329791   5.829   6.476   7.610  1.0398  0.2233 -1.1708
   25MOL   H94429792   5.960   6.638   7.502  0.1060  0.6020  0.0888
   25MOL   H94529793   5.896   6.576   7.350  1.3011  0.2649  0.2414
   25MOL   H94629794   5.775   6.948   7.325  1.4224 -1.5563 -0.4931
   25MOL   H94729795   5.605   6.936   7.374  0.9603  0.7603 -0.1666
   25MOL   H94829796   5.712   6.869   7.113 -2.3473 -0.6009 -2.3790
   25MOL   H94929797   5.666   7.037   7.145 -1.1906  0.2873 -2.2235
   25MOL   H95029798   5.416   6.955   7.164 -0.7022 -0.0998  1.2517
   25MOL   H95129799   5.462   6.797   7.152 -2.7456  0.5466 -2.5993
   25MOL   H95229800   5.553   6.886   6.902  1.0305 -1.4929  1.6294
   25MOL   H95329801   5.457   7.013   6.948 -0.9208 -1.0773  0.0233
   25MOL   H95429802   5.337   6.737   6.969 -1.4223  0.8360  1.4728
   25MOL   H95529803   5.260   6.893   6.963 -0.0826  0.4941  0.4248
   25MOL   H95629804   5.319   6.913   6.713 -2.1736  0.5046 -0.7040
   25MOL   H95729805   5.417   6.776   6.734  0.9234  1.8572 -0.7798
   25MOL   H95829806   5.219   6.640   6.790 -0.4071  0.0121  2.5004
   25MOL   H95929807   5.206   6.721   6.631 -0.2634  1.2051  0.2437
   25MOL   H96029808   5.041   6.832   6.861 -1.7823 -0.3180 -1.1636
   25MOL   H96129809   5.062   6.895   6.706  1.1938  0.1156  0.1399
   25MOL   O96229810   4.900   6.663   6.839  0.0740 -0.0926  0.2554
   25MOL   C96329811   4.805   6.564   6.833  0.4113  0.0115 -0.6481
   25MOL   C96429812   4.828   6.465   6.952  0.2569 -0.0781  0.2491
   25MOL   C96529813   4.957   6.374   6.933  0.5849  0.1758  0.3438
   25MOL   C96629814   4.996   6.287   7.057 -0.1296  0.3183  0.7704
   25MOL   C96729815   5.032   6.367   7.179  0.0974  0.7125  0.2673
   25MOL   C96829816   5.125   6.289   7.271 -0.0403 -0.1592  0.1501
   25MOL   C96929817   5.166   6.357   7.405  0.1263 -0.3857  0.3320
   25MOL   C97029818   5.246   6.490   7.381 -0.0056  0.1550 -0.1406
   25MOL   C97129819   5.287   6.566   7.507 -0.3995 -0.0334  0.0418
   25MOL   C97229820   5.395   6.674   7.460  0.5832 -0.1979 -0.0679
   25MOL   O97329821   5.464   6.738   7.571  0.5834  0.1716  0.2006
   25MOL   C97429822   5.408   6.837   7.646  0.4050  0.3380  0.5706
   25MOL   O97529823   5.291   6.871   7.627  0.4465  0.2466 -0.5552
   25MOL   C97629824   5.497   6.893   7.753  0.3194 -0.4605 -0.2820
   25MOL   C97729825   5.647   6.871   7.732 -0.5500 -0.1993 -0.6456
   25MOL   C97829826   5.741   6.949   0.067 -0.5168  0.4170 -0.5165
   25MOL   C97929827   5.889   6.933   0.036  0.0176 -0.5048  0.8987
   25MOL   C98029828   5.966   7.048   0.109  0.3686 -0.8513  0.1099
   25MOL   C98129829   6.109   7.067   0.064  0.3627  0.3634 -0.8976
   25MOL   C98229830   6.182   7.198   0.106 -0.1031 -0.5648  0.2633
   25MOL   C98329831   6.338   7.199   0.094  0.6255 -0.1149  0.3662
   25MOL   C98429832   6.401   7.137   0.222  0.3750 -0.6904 -0.7018
   25MOL   O98529833   6.451   7.214   0.312  0.6288  0.4609  0.8639
   25MOL   H98629834   4.704   6.604   6.844  0.7695  1.0998 -1.2929
   25MOL   H98729835   4.813   6.509   6.740 -0.8270 -0.0568 -0.7346
   25MOL   H98829836   4.847   6.515   7.047  0.3996  1.4987 -0.5779
   25MOL   H98929837   4.739   6.403   6.960 -0.5581  1.0607  0.1903
   25MOL   H99029838   4.924   6.305   6.856 -0.1413  0.5258  0.3316
   25MOL   H99129839   5.036   6.437   6.892 -0.2334  0.1153 -1.3428
   25MOL   H99229840   4.912   6.224   7.086  0.3261  0.1322  1.6875
   25MOL   H99329841   5.069   6.215   7.020 -0.6343  1.7674 -3.3629
   25MOL   H99429842   4.944   6.402   7.233 -0.0379  1.5757 -0.5106
   25MOL   H99529843   5.065   6.467   7.154 -1.0602  1.4752  1.6791
   25MOL   H99629844   5.211   6.253   7.215 -0.3085 -0.7826  0.1333
   25MOL   H99729845   5.067   6.202   7.303 -1.3812  0.2979 -1.0084
   25MOL   H99829846   5.235   6.292   7.459  1.3013  0.8366  0.3093
   25MOL   H99929847   5.086   6.378   7.476 -0.3483  0.2034 -0.3675
   25MOL     H129848   5.201   6.553   7.304 -0.5013  2.0361  1.6519
   25MOL     H229849   5.335   6.451   7.332  0.1383  0.4471 -0.1158
   25MOL     H329850   5.198   6.604   7.558 -0.3352 -0.9040  0.7988
   25MOL     H429851   5.343   6.503   7.576  1.3780  0.9612 -0.4737
   25MOL     H529852   5.471   6.629   7.396  1.3884 -0.6040  1.1486
   25MOL     H629853   5.344   6.754   7.406  0.1190  0.6885  1.6579
   25MOL     H729854   5.477   6.868   0.101 -1.6174  0.9981 -0.2648
   25MOL     H829855   5.479   7.000   7.748  2.0505 -0.1818 -0.7654
   25MOL     H929856   5.669   6.881   7.625  0.2306  0.5421 -0.4160
   25MOL    H1029857   5.656   6.765   7.755  2.6289 -0.1861 -1.6820
   25MOL    H1129858   5.720   6.925   0.172  0.5570  3.0152  0.3431
   25MOL    H1229859   5.716   7.055   0.057  0.0424  0.4145 -2.0483
   25MOL    H1329860   5.893   6.954   7.686  0.1478 -1.2616  0.7535
   25MOL    H1429861   5.923   6.830   0.038  1.2468 -0.1024  0.9530
   25MOL    H1529862   5.910   7.139   0.091 -0.8472 -0.9485  2.9943
   25MOL    H1629863   5.965   7.035   0.218 -1.1763  1.8844  0.4724
   25MOL    H1729864   6.154   6.976   0.103 -0.7167  0.6364  0.9923
   25MOL    H1829865   6.103   7.069   7.711  2.1684  0.0845 -1.0180
   25MOL    H1929866   6.158   7.226   0.208  0.3711  1.3383 -0.1239
   25MOL    H2029867   6.139   7.273   0.040 -0.1562 -0.3573  0.5338
   25MOL    H2129868   6.382   7.161   0.002  1.4953  0.3124  0.6042
   25MOL    H2229869   6.373   7.302   0.100 -1.1679  0.4212  2.3152
   25MOL    O2329870   6.381   7.007   0.231 -0.2945  0.0102 -0.3905
   25MOL    C2429871   6.404   6.934   0.354  0.3010  0.5532 -0.3875
   25MOL    C2529872   6.289   6.825   0.372 -0.1446  0.8045 -0.3934
   25MOL    C2629873   6.245   6.805   0.514 -0.0603 -0.9461 -0.2792
   25MOL    C2729874   6.105   6.738   0.539  0.1845  0.2042  0.4900
   25MOL    C2829875   6.058   6.750   0.683  0.0373  0.0032  0.1651
   25MOL    C2929876   5.922   6.680   0.719 -0.2825  0.1331 -0.2062
   25MOL    C3029877   5.887   6.680   0.874  0.2816  0.3263  0.0102
   25MOL    C3129878   5.738   6.642   0.915 -0.0516  0.1069  0.1814
   25MOL    C3229879   5.698   6.700   1.051  0.6425 -0.7718 -0.7033
   25MOL    C3329880   5.547   6.695   1.077 -0.2382 -0.3931 -0.5497
   25MOL    O3429881   5.510   6.738   1.212  0.4410  0.2021 -0.6964
   25MOL    C3529882   5.450   6.860   1.231 -0.2721  0.1018  0.6880
   25MOL    O3629883   5.442   6.953   1.153  0.0792  0.1290 -0.3991
   25MOL    C3729884   5.383   6.869   1.368 -0.4671 -0.1098  0.4795
   25MOL    C3829885   5.313   7.006   1.392  0.7133  0.0035 -0.8017
   25MOL    C3929886   5.405   7.112   1.453  0.8090 -0.2010  0.6206
   25MOL    C4029887   5.338   7.245   1.494  0.6828  0.1498 -0.3821
   25MOL    C4129888   5.438   7.347   1.573  0.5847 -0.1986 -0.5845
   25MOL    C4229889   5.366   7.463   1.631 -0.5664 -0.2530  0.5076
   25MOL    C4329890   5.355   7.581   1.539 -0.0927  0.2230 -0.0476
   25MOL    C4429891   5.254   7.686   1.588  0.4394 -0.0691 -0.3554
   25MOL    C4529892   5.231   0.024   1.471  0.3641 -0.1883  0.2142
   25MOL    O4629893   5.115   0.034   1.427  0.2651 -0.6232 -0.0352
   25MOL    H4729894   6.502   6.888   0.342  0.4875  0.5878  0.9972
   25MOL    H4829895   6.413   7.004   0.437 -0.1785 -1.3508  1.3116
   25MOL    H4929896   6.204   6.857   0.312 -1.3757  0.2097  1.0095
   25MOL    H5029897   6.320   6.722   0.350  1.1313  0.2974  3.3698
   25MOL    H5129898   6.325   6.753   0.565  0.7094  2.0691  1.7561
   25MOL    H5229899   6.229   6.904   0.557 -0.6485 -0.4875 -1.5219
   25MOL    H5329900   6.031   6.789   0.477 -1.6921 -2.4772  0.4560
   25MOL    H5429901   6.101   6.633   0.509  0.4904  0.0957  0.8217
   25MOL    H5529902   6.044   6.856   0.705 -1.9487 -0.5570  1.7180
   25MOL    H5629903   6.130   6.711   0.754 -1.7395  0.0488  2.0381
   25MOL    H5729904   5.921   6.575   0.690 -0.1187 -0.0814  0.5444
   25MOL    H5829905   5.842   6.718   0.656 -0.2093 -0.5766 -0.7363
   25MOL    H5929906   5.913   6.780   0.910 -0.6648  0.5910 -0.0110
   25MOL    H6029907   5.964   6.623   0.926 -1.1413 -1.0865  0.6208
   25MOL    H6129908   5.736   6.533   0.915  0.7861  0.0815  2.3993
   25MOL    H6229909   5.670   6.681   0.839 -0.4766 -2.0000 -0.5385
   25MOL    H6329910   5.756   6.654   1.130  0.6682  0.0868 -0.2199
   25MOL    H6429911   5.719   6.807   1.046 -2.0610  0.0527  3.4884
   25MOL    H6529912   5.491   6.745   0.998  0.7844  1.7520  0.0366
   25MOL    H6629913   5.539   6.587   1.068 -1.9658 -0.2516 -0.8554
   25MOL    H6729914   5.448   6.846   1.453 -0.0741  0.0328  0.2175
   25MOL    H6829915   5.301   6.799   1.387 -1.5513  1.3489  1.2427
   25MOL    H6929916   5.228   6.993   1.460  0.9440  1.7661 -0.1311
   25MOL    H7029917   5.269   7.042   1.299  1.6904 -1.5489 -1.8746
   25MOL    H7129918   5.493   7.142   1.396  1.1310  0.9213  1.6778
   25MOL    H7229919   5.452   7.070   1.541  0.9486  0.9124  1.0937
   25MOL    H7329920   5.263   7.233   1.573 -0.3556  3.5869 -0.7348
   25MOL    H7429921   5.284   7.295   1.414  1.2346  1.7432  0.2148
   25MOL    H7529922   5.496   7.302   1.654  0.6607  0.9898  0.0325
   25MOL    H7629923   5.511   7.388   1.504  0.2167  0.2134 -0.7296
   25MOL    H7729924   5.271   7.433   1.675 -0.2088 -0.8823  0.8516
   25MOL    H7829925   5.411   7.489   1.726 -0.2714 -0.0802  0.3216
   25MOL    H7929926   5.330   7.534   1.444  0.0170 -1.0798  0.5535
   25MOL    H8029927   5.448   7.626   1.506 -0.5270 -1.4404 -3.7581
   25MOL    H8129928   5.154   7.645   1.598 -0.9704  3.0598 -1.1828
   25MOL    H8229929   5.283   7.746   1.675 -0.3296 -0.8145  0.4220
   25MOL    O8329930   5.337   0.088   1.429  0.1699  0.1634  0.5881
   25MOL    C8429931   5.343   0.190   1.328  0.3719 -0.4713 -0.2795
   25MOL    C8529932   5.428   0.307   1.379 -1.2547  0.5879  0.0478
   25MOL    C8629933   5.367   0.376   1.506  0.0145 -0.0903 -0.6688
   25MOL    C8729934   5.467   0.471   1.574  0.7499 -0.5614  0.1741
   25MOL    C8829935   5.468   0.608   1.509 -0.2273 -0.0099  0.1634
   25MOL    C8929936   5.578   0.696   1.589 -0.4807  0.2525  0.0765
   25MOL    C9029937   5.593   0.839   1.541 -0.2223 -0.4744 -0.8786
   25MOL    C9129938   5.459   0.922   1.546  0.1767 -0.4500 -0.3491
   25MOL    C9229939   5.473   1.077   1.561  0.0842  0.4171  0.2064
   25MOL    C9329940   5.554   1.136   1.452 -0.0465 -0.0486 -0.4499
   25MOL    O9429941   5.694   1.106   1.465 -0.7462 -0.5091 -0.3871
   25MOL    C9529942   5.783   1.123   1.358  0.4642  0.2010  0.2623
   25MOL    O9629943   5.755   1.182   1.256 -0.3115  0.5053  0.3001
   25MOL    C9729944   5.914   1.054   1.384  0.1634 -0.4236 -0.3301
   25MOL    C9829945   6.015   1.135   1.469 -0.5926 -0.8674  0.1309
   25MOL    C9929946   5.971   1.181   1.614  0.2971  0.3132  0.2769
   25MOL   C10029947   5.984   1.067   1.710 -0.1870 -0.3028 -0.3038
   25MOL   C10129948   5.920   1.116   1.842  0.0684 -0.1489 -0.4331
   25MOL   C10229949   5.997   1.070   1.964 -0.2420 -0.2604 -0.4799
   25MOL   C10329950   5.931   1.130   2.091 -0.0485 -0.1705  0.0379
   25MOL   C10429951   5.992   1.081   2.227 -0.1837 -0.5977 -0.4447
   25MOL   C10529952   6.114   1.155   2.277 -0.3084 -0.0549 -0.4743
   25MOL   O10629953   6.166   1.250   2.215 -0.3259 -0.4840 -0.4394
   25MOL   H10729954   5.391   0.142   1.243  1.2727 -0.6611  0.3411
   25MOL   H10829955   5.240   0.209   1.297 -0.7785 -1.9648  2.4489
   25MOL   H10929956   5.527   0.269   1.405 -1.5124 -1.1745 -1.4073
   25MOL   H11029957   5.446   0.388   1.308 -1.3842  0.8610  0.3267
   25MOL   H11129958   5.274   0.425   1.476  0.7016  1.3201 -0.5484
   25MOL   H11229959   5.346   0.300   1.581  3.4021  0.0244  0.4691
   25MOL   H11329960   5.441   0.491   1.678  0.6405  1.8417 -0.2749
   25MOL   H11429961   5.559   0.414   1.563 -0.0210 -1.6906 -0.4927
   25MOL   H11529962   5.369   0.653   1.500 -0.6416 -1.1411 -1.3829
   25MOL   H11629963   5.513   0.585   1.412  2.0782 -0.1347  1.2341
   25MOL   H11729964   5.673   0.642   1.580  0.5866  2.0818  0.0504
   25MOL   H11829965   5.553   0.682   1.694 -0.9676  2.1456  0.2252
   25MOL   H11929966   5.610   0.841   1.434  1.2806  0.4029 -0.6337
   25MOL   H12029967   5.675   0.885   1.596  0.3034 -3.6804  1.1395
   25MOL   H12129968   5.405   0.896   1.637  2.0815  0.4062  1.0663
   25MOL   H12229969   5.399   0.890   1.461 -0.0202 -3.1730  0.7349
   25MOL   H12329970   5.380   1.133   1.565 -0.4776 -0.5906  1.7969
   25MOL   H12429971   5.525   1.095   1.656  0.4562 -2.7475  0.6582
   25MOL   H12529972   5.516   1.098   1.357  1.0288 -0.8339 -0.5765
   25MOL   H12629973   5.544   1.244   1.458 -1.0622 -0.1733  0.3890
   25MOL   H12729974   5.960   1.046   1.285 -0.9190 -1.9017 -0.7216
   25MOL   H12829975   5.912   0.955   1.428  1.6487  0.3525  1.5405
   25MOL   H12929976   6.029   1.232   1.421 -1.8132 -0.8310 -0.1534
   25MOL   H13029977   6.111   1.082   1.472  1.0528  1.7463 -2.6848
   25MOL   H13129978   5.867   1.211   1.625 -0.4717 -2.3447  0.7244
   25MOL   H13229979   6.035   1.263   1.648  0.1892  0.1947  0.7712
   25MOL   H13329980   6.090   1.044   1.725 -0.2711  0.5673  1.6686
   25MOL   H13429981   5.934   0.979   1.669  0.0754 -0.8324  0.4952
   25MOL   H13529982   5.934   1.223   1.856 -0.2364 -0.2824  0.9872
   25MOL   H13629983   5.813   1.096   1.846 -0.0693  1.0897  3.9768
   25MOL   H13729984   5.994   0.962   1.971 -3.3355 -0.0773  2.2509
   25MOL   H13829985   6.100   1.102   1.945 -0.5820  0.7874 -0.5935
   25MOL   H13929986   5.829   1.093   2.096 -0.3537  0.6432 -0.1612
   25MOL   H14029987   5.932   1.239   2.084 -0.0337 -0.0108  2.2719
   25MOL   H14129988   5.922   1.102   2.307 -1.3885  1.0529 -1.8838
   25MOL   H14229989   6.033   0.980   2.218 -0.4862 -0.5353 -2.6925
   25MOL   O14329990   6.170   1.100   2.383  0.0114 -0.0053 -0.4020
   25MOL   C14429991   6.298   1.144   2.414  0.5741 -1.1465  0.6168
   25MOL   C14529992   6.350   1.054   2.530 -0.3503 -0.1914  0.2222
   25MOL   C14629993   6.466   1.125   2.587  0.0286 -0.3944  0.4750
   25MOL   C14729994   6.564   1.046   2.676 -0.1940  0.2050  0.0515
   25MOL   C14829995   6.661   1.141   2.758 -0.1464  0.4162 -0.0424
   25MOL   C14929996   6.761   1.059   2.838  0.2444 -0.3957  0.2534
   25MOL   C15029997   6.869   1.150   2.898  0.0660  0.1893  0.2486
   25MOL   C15129998   6.974   1.076   2.978 -0.6243  0.1996 -0.5223
   25MOL   C15229999   7.101   1.155   3.001 -0.5884 -0.3417  0.5074
   25MOL   C15330000   7.076   1.283   3.086  0.1359  0.0873 -0.3578
   25MOL   O15430001   7.010   1.253   3.209 -0.2706  0.1150 -0.1884
   25MOL   C15530002   7.011   1.345   3.305 -0.5557  0.0118 -0.5146
   25MOL   O15630003   7.065   1.459   3.294  0.6006 -0.1941 -0.0302
   25MOL   C15730004   6.941   1.295   3.431  0.2787 -0.7022  0.0737
   25MOL   C15830005   6.785   1.296   3.421 -0.0938 -0.4969  0.2229
   25MOL   C15930006   6.733   1.236   3.288  0.0045 -0.8628  0.2862
   25MOL   C16030007   6.580   1.231   3.299  0.2780 -0.2596  0.5084
   25MOL   C16130008   6.523   1.172   3.170 -0.0771 -0.3484 -0.2427
   25MOL   C16230009   6.366   1.160   3.176  0.0832 -0.5233  0.4362
   25MOL   C16330010   6.320   1.079   3.050  0.4107  0.3979  0.2994
   25MOL   C16430011   6.165   1.083   3.037  0.4982  0.3779  0.5143
   25MOL   C16530012   6.118   0.990   2.931  0.5873 -0.0331 -0.2694
   25MOL   O16630013   6.185   0.943   2.841  0.3872 -0.3620 -0.0521
   25MOL   H16730014   6.369   1.147   2.332  0.1513 -1.3574  0.2394
   25MOL   H16830015   6.296   1.242   2.460  1.2200  0.5917 -2.8758
   25MOL   H16930016   6.265   1.039   2.597 -0.6812 -1.7159 -0.5225
   25MOL   H17030017   6.382   0.960   2.486  2.7157  1.4190 -1.1754
   25MOL   H17130018   6.537   1.166   2.514 -1.4854 -1.2340 -1.5177
   25MOL   H17230019   6.424   1.207   2.644  1.1859  1.4758 -1.2794
   25MOL   H17330020   6.506   0.982   2.743 -0.2720 -2.0583 -2.0991
   25MOL   H17430021   6.627   0.976   2.621 -0.3172  1.3245 -1.5661
   25MOL   H17530022   6.615   1.210   2.829  0.6469  1.8316 -0.8832
   25MOL   H17630023   6.722   1.196   2.687  0.7349 -0.3885  0.0775
   25MOL   H17730024   6.811   1.002   2.760 -0.0072 -0.0483 -0.1596
   25MOL   H17830025   6.717   0.999   2.918  2.2166 -2.2250 -0.0118
   25MOL   H17930026   6.818   1.222   2.962  0.0126 -0.9534  1.4959
   25MOL   H18030027   6.910   1.214   2.820  0.6318 -1.4689 -0.8416
   25MOL   H18130028   7.008   0.992   2.918  0.7445  0.4579 -0.1229
   25MOL   H18230029   6.922   1.038   3.066 -0.7534 -1.2640 -1.2153
   25MOL   H18330030   7.170   1.091   3.056  0.2589 -2.5353 -2.9643
   25MOL   H18430031   7.145   1.174   2.903 -1.8868  3.1588  0.5234
   25MOL   H18530032   7.179   1.315   3.103  0.1588 -0.3170  0.3028
   25MOL   H18630033   7.031   1.359   3.022  0.2730 -0.0568 -0.6225
   25MOL   H18730034   6.958   1.358   3.519 -0.2149  0.2892 -0.5329
   25MOL   H18830035   6.965   1.192   3.458  0.8978 -0.7607 -0.6764
   25MOL   H18930036   6.753   1.400   3.426 -0.6842 -0.6857  0.3608
   25MOL   H19030037   6.743   1.244   3.507  2.7670 -2.7516  0.3588
   25MOL   H19130038   6.770   1.137   3.263  0.0000 -0.9175  0.4941
   25MOL   H19230039   6.766   1.301   3.207 -1.4870  0.3468  0.6201
   25MOL   H19330040   6.546   1.334   3.307 -0.8797 -0.4556 -1.6856
   25MOL   H19430041   6.550   1.171   3.385  1.9977  1.5794  2.4533
   25MOL   H19530042   6.550   1.236   3.085  1.0485 -1.1792 -0.5095
   25MOL   H19630043   6.569   1.074   3.158  1.9693  0.8134 -2.4289
   25MOL   H19730044   6.335   1.113   3.268 -0.3752 -3.3055 -1.0944
   25MOL   H19830045   6.317   1.257   3.178  1.0044 -0.0860  2.4800
   25MOL   H19930046   6.361   0.979   3.064 -1.4553 -0.3390  0.6742
   25MOL   H20030047   6.370   1.123   2.964  0.1075  1.4970  0.6771
   25MOL   H20130048   6.109   1.044   3.122 -0.2161 -0.8364 -0.4998
   25MOL   H20230049   6.130   1.182   3.007  0.7595  0.2963 -0.0654
   25MOL   H20330050   6.014   0.958   2.937  0.8414 -0.5807  1.7780
   26MOL     O130051   5.829   2.267   1.572  0.4143 -0.0590 -0.2368
   26MOL     C230052   5.880   2.161   1.500 -0.0855 -0.9986  0.7266
   26MOL     C330053   6.027   2.127   1.534 -0.4806 -0.2596 -0.0243
   26MOL     C430054   6.088   2.037   1.427 -0.5848  0.4671 -0.3653
   26MOL     C530055   6.239   2.014   1.453  0.3857  0.2834 -0.5720
   26MOL     C630056   6.305   1.911   1.360 -0.0746  0.6050  0.8186
   26MOL     C730057   6.455   1.909   1.362  0.0868  0.7632  0.4526
   26MOL     C830058   6.526   1.819   1.255 -0.4184 -0.5503 -0.1164
   26MOL     C930059   6.671   1.764   1.286 -0.2177  0.0938 -0.0542
   26MOL    C1030060   6.722   1.682   1.165 -0.8553  0.4409 -0.0976
   26MOL    C1130061   6.865   1.635   1.197  0.7676 -0.1655 -0.3051
   26MOL    O1230062   6.852   1.507   1.259  0.5893  0.7690 -0.4635
   26MOL    C1330063   6.952   1.461   1.335 -0.1910 -0.4946 -0.2728
   26MOL    O1430064   7.059   1.515   1.339 -0.0240 -0.0407  0.4622
   26MOL    C1530065   6.919   1.333   1.410  0.2574 -0.4898  0.0926
   26MOL    C1630066   6.824   1.358   1.534 -0.9135 -1.0653 -0.1894
   26MOL    C1730067   6.898   1.408   1.668 -0.3226  0.1649  0.2721
   26MOL    C1830068   6.978   1.289   1.726  0.4069 -0.6307 -0.6225
   26MOL    C1930069   7.064   1.318   1.852  0.4592 -0.1417  0.5260
   26MOL    C2030070   7.163   1.203   1.880  0.1416 -0.5327 -0.0591
   26MOL    C2130071   7.287   1.250   1.966  0.2675  0.5715  0.4853
   26MOL    C2230072   7.366   1.132   2.031  0.2133 -0.2398  0.3334
   26MOL    C2330073   7.431   1.046   1.926 -0.0192 -0.0104  0.1284
   26MOL    O2430074   7.417   0.924   1.930 -0.4636 -0.3225  0.5580
   26MOL    H2530075   5.812   2.076   1.499 -1.4737  0.1002 -1.3520
   26MOL    H2630076   5.891   2.202   1.400 -3.3867  0.2302  0.8137
   26MOL    H2730077   6.084   2.218   1.555  0.8019 -1.3559  1.3095
   26MOL    H2830078   6.037   2.085   1.634  1.6462 -1.4581 -0.7240
   26MOL    H2930079   6.043   1.939   1.415 -1.1130  0.7584 -0.8190
   26MOL    H3030080   6.065   2.082   1.330 -1.9990  0.9324  0.1693
   26MOL    H3130081   6.299   2.103   1.468 -1.8152  1.8250 -0.7697
   26MOL    H3230082   6.247   1.968   1.552  2.1780  1.9675  0.0749
   26MOL    H3330083   6.280   1.938   1.257  1.2365 -2.5916 -0.3916
   26MOL    H3430084   6.269   1.816   1.399  2.2108 -0.7613 -0.2698
   26MOL    H3530085   6.490   1.856   1.450  3.6562 -5.0357 -4.0866
   26MOL    H3630086   6.503   2.007   1.353  0.2189  0.9114  2.5326
   26MOL    H3730087   6.533   1.878   1.163  1.7613 -1.1094 -0.3324
   26MOL    H3830088   6.456   1.736   1.242 -2.7385  1.1083  1.3335
   26MOL    H3930089   6.666   1.702   1.376 -1.0752 -1.0387 -0.8628
   26MOL    H4030090   6.733   1.853   1.287 -0.1886  0.0956 -1.5012
   26MOL    H4130091   6.660   1.595   1.144 -2.2298  1.3486  0.0539
   26MOL    H4230092   6.730   1.755   1.084 -0.9137  0.1829 -0.3342
   26MOL    H4330093   6.931   1.621   1.111 -0.4592  1.3966 -1.5244
   26MOL    H4430094   6.919   1.698   1.267 -0.1763 -0.8881  1.1010
   26MOL    H4530095   7.005   1.288   1.460 -0.9314 -3.4202 -0.3750
   26MOL    H4630096   6.872   1.259   1.346 -3.2233  1.7265 -0.0459
   26MOL    H4730097   6.767   1.268   1.554 -2.1857  0.1430  1.6967
   26MOL    H4830098   6.743   1.426   1.508 -1.1723 -1.7798 -1.2941
   26MOL    H4930099   6.824   1.436   1.743  1.2320 -1.0492  2.3081
   26MOL    H5030100   6.969   1.488   1.651  0.4430 -0.9736 -2.1891
   26MOL    H5130101   7.039   1.248   1.645 -0.1354  2.3951 -2.6839
   26MOL    H5230102   6.896   1.219   1.739  0.7153 -0.6502  1.2921
   26MOL    H5330103   7.109   1.414   1.825 -1.4851  0.9296  0.9121
   26MOL    H5430104   6.998   1.334   1.938 -2.9075  0.6162 -2.0524
   26MOL    H5530105   7.106   1.128   1.934  0.3533 -0.3587  0.4082
   26MOL    H5630106   7.191   1.157   1.785  0.8780 -2.1523  0.9401
   26MOL    H5730107   7.246   1.311   2.047 -0.9582 -0.3192  0.5457
   26MOL    H5830108   7.358   1.311   1.910  0.1716  0.2563  0.0191
   26MOL    H5930109   7.449   1.163   2.095 -0.7780  0.2618  1.4062
   26MOL    H6030110   7.309   1.067   2.098  0.9702 -1.9893 -0.6883
   26MOL    H6130111   5.826   2.238   1.662 -0.2389 -1.8693 -0.8240
   26MOL    O6230112   7.513   1.103   1.846 -0.7539 -0.1813 -0.2762
   26MOL    C6330113   7.578   1.036   1.744  0.1385 -0.7341  0.7966
   26MOL    C6430114   7.713   0.986   1.797 -0.1256 -0.0650 -0.1073
   26MOL    C6530115   0.021   0.888   1.699 -0.0167 -0.6094  1.0397
   26MOL    C6630116   0.155   0.830   1.736 -0.0837  0.2904  0.4881
   26MOL    C6730117   0.202   0.726   1.634 -0.1511  0.4256 -0.3969
   26MOL    C6830118   0.347   0.673   1.639 -0.6287  0.7209  0.3781
   26MOL    C6930119   0.358   0.565   1.755  0.1149 -1.5549 -0.7723
   26MOL    C7030120   0.494   0.554   1.810 -0.4162 -0.0614 -0.6029
   26MOL    C7130121   0.545   0.674   1.893 -0.0534 -0.5433 -0.2735
   26MOL    C7230122   0.683   0.644   1.958  0.0031 -0.3064 -0.6583
   26MOL    O7330123   0.727   0.766   2.018  0.2541  0.4045  0.4057
   26MOL    C7430124   0.849   0.798   2.022 -0.3997 -0.1403  0.4319
   26MOL    O7530125   0.943   0.733   1.979 -0.3525  0.0272 -0.2323
   26MOL    C7630126   0.859   0.917   2.122 -0.4377  0.6738  0.5721
   26MOL    C7730127   0.766   1.037   2.081 -0.8499  0.2079 -0.7126
   26MOL    C7830128   0.809   1.144   1.965  0.2390  0.4091  0.3998
   26MOL    C7930129   0.814   1.088   1.820 -0.2220  0.0505  0.5025
   26MOL    C8030130   0.956   1.051   1.772  0.8251 -0.1706  0.7349
   26MOL    C8130131   0.947   0.931   1.678  0.9054 -0.0338 -0.2687
   26MOL    C8230132   1.088   0.904   1.628 -0.5130 -0.1270 -0.2112
   26MOL    C8330133   1.185   0.833   1.725  0.2821 -0.2687 -0.0780
   26MOL    C8430134   1.214   0.682   1.716  0.1203  0.1714 -0.8226
   26MOL    O8530135   1.299   0.633   1.639 -0.1292 -0.3375 -0.7309
   26MOL    H8630136   7.514   0.956   1.707  0.0474  0.4384 -1.6923
   26MOL    H8730137   7.588   1.114   1.668  1.0837 -1.9302 -0.3297
   26MOL    H8830138   0.020   1.071   1.823  1.8450 -1.0897 -1.4630
   26MOL    H8930139   7.693   0.937   1.893  0.7166 -0.8530 -0.3320
   26MOL    H9030140   7.705   0.811   1.673 -0.0857 -1.0749  2.5833
   26MOL    H9130141   0.021   0.946   1.606  0.4115 -2.2153  0.0246
   26MOL    H9230142   0.227   0.911   1.730 -0.5316  0.5453 -1.5216
   26MOL    H9330143   0.159   0.784   1.835  1.4765 -2.0574 -0.6321
   26MOL    H9430144   0.191   0.775   1.537 -2.6291  0.8849  0.0968
   26MOL    H9530145   0.130   0.645   1.637 -0.2433  0.4888 -0.8692
   26MOL    H9630146   0.423   0.750   1.649 -0.1606  0.2237  0.7072
   26MOL    H9730147   0.361   0.625   1.542 -3.1956  1.0395 -0.1927
   26MOL    H9830148   0.322   0.467   1.725  0.7271 -1.8374 -0.6035
   26MOL    H9930149   0.289   0.585   1.836 -1.0872  1.2666 -2.3850
   26MOL   H10030150   0.557   0.550   1.721  0.7699 -2.3661  0.3174
   26MOL   H10130151   0.493   0.462   1.868 -0.7087  3.3225  5.1143
   26MOL   H10230152   0.551   0.764   1.832  2.0500 -1.3934 -1.3705
   26MOL   H10330153   0.472   0.693   1.972  0.4099  0.1245 -0.0001
   26MOL   H10430154   0.668   0.575   2.041  1.7592  0.6081  0.4483
   26MOL   H10530155   0.756   0.590   1.899  0.6289 -1.8064  1.4247
   26MOL   H10630156   0.962   0.942   2.151 -0.4487  1.0779  0.2797
   26MOL   H10730157   0.814   0.876   2.212 -0.1179  2.1180  1.4160
   26MOL   H10830158   0.766   1.098   2.172  1.4851  0.6384 -0.9657
   26MOL   H10930159   0.662   1.009   2.067 -0.4476 -1.2349 -0.9523
   26MOL   H11030160   0.905   1.184   1.999  2.4357 -3.0229 -1.4763
   26MOL   H11130161   0.727   1.214   1.977  0.8700  1.2708 -0.2191
   26MOL   H11230162   0.751   1.145   1.752  3.2997  0.2888 -2.6463
   26MOL   H11330163   0.753   0.997   1.822 -0.3733  0.1328 -0.2563
   26MOL   H11430164   0.996   1.144   1.731 -0.7041 -1.1866 -3.3043
   26MOL   H11530165   1.015   1.021   1.858  1.3445  0.1479  0.4943
   26MOL   H11630166   0.909   0.844   1.732  3.2343 -0.2931  1.0363
   26MOL   H11730167   0.879   0.955   1.597 -0.0282 -0.8059  0.2764
   26MOL   H11830168   1.128   0.998   1.591  0.0432 -0.9709 -1.8417
   26MOL   H11930169   1.071   0.841   1.540  0.0681 -2.8072  1.5496
   26MOL   H12030170   1.286   0.873   1.725 -0.0425  0.5507 -0.4472
   26MOL   H12130171   1.161   0.855   1.828 -1.6277 -0.2401 -0.5145
   26MOL   O12230172   1.140   0.615   1.802 -0.2711 -0.1709  0.2629
   26MOL   C12330173   1.131   0.478   1.800 -0.2896  0.5317  0.6894
   26MOL   C12430174   1.191   0.430   1.939 -0.0952 -0.1852  0.2102
   26MOL   C12530175   1.236   0.289   1.958 -0.2525 -0.2777 -0.1349
   26MOL   C12630176   1.308   0.284   2.092 -0.3136  0.6786 -0.1670
   26MOL   C12730177   1.323   0.134   2.138  0.0967  0.5900  0.1974
   26MOL   C12830178   1.449   0.105   2.226  0.0932  1.3454 -0.3910
   26MOL   C12930179   1.480   7.712   2.256 -0.4650 -0.1628  0.6522
   26MOL   C13030180   1.361   7.632   2.307 -0.6096  0.1630 -0.1481
   26MOL   C13130181   1.290   7.698   2.429  0.5541  0.2299  0.2384
   26MOL   C13230182   1.190   7.599   2.486  0.3284  0.7527  0.4276
   26MOL   O13330183   1.222   7.549   2.615  0.0109 -0.4145  0.1093
   26MOL   C13430184   1.145   7.464   2.671 -0.0610  0.1457 -0.1207
   26MOL   O13530185   1.035   7.427   2.629  0.1862  0.6475  0.7184
   26MOL   C13630186   1.205   7.418   2.799 -0.6408  0.1268 -0.4945
   26MOL   C13730187   1.149   7.280   2.848 -0.6191 -0.2948  0.5582
   26MOL   C13830188   1.207   7.243   2.980 -0.2504  0.5418  0.1770
   26MOL   C13930189   1.351   7.186   2.977 -0.5851  0.0393  0.1415
   26MOL   C14030190   1.399   7.116   3.108 -0.8287 -0.1504  0.2889
   26MOL   C14130191   1.551   7.107   3.113  0.0487  0.4992 -0.4557
   26MOL   C14230192   1.606   7.033   3.232  0.4339  0.1768  0.5880
   26MOL   C14330193   1.756   7.063   3.254 -0.5847  0.1177  0.2421
   26MOL   C14430194   1.784   7.198   3.322 -0.0816  0.1233 -0.5395
   26MOL   O14530195   1.716   7.298   3.297  0.4712  0.0813  0.0501
   26MOL   H14630196   1.023   0.463   1.803 -0.6292  2.5454 -0.6995
   26MOL   H14730197   1.186   0.426   1.722  0.1271 -0.5959  1.7207
   26MOL   H14830198   1.271   0.502   1.957 -0.7273  0.4997  0.2728
   26MOL   H14930199   1.121   0.453   2.019  0.8508 -1.4347  1.4283
   26MOL   H15030200   1.156   0.217   1.974  2.2484 -3.1415  0.0111
   26MOL   H15130201   1.303   0.255   1.879 -1.2186  1.1665 -1.6148
   26MOL   H15230202   1.411   0.318   2.080  0.0874 -0.7666 -0.8593
   26MOL   H15330203   1.260   0.333   2.177  1.6595  1.5600  0.4727
   26MOL   H15430204   1.338   0.069   2.052  3.5860 -0.4369  1.4821
   26MOL   H15530205   1.228   0.111   2.186 -1.0022  1.8230 -1.3346
   26MOL   H15630206   1.420   0.151   2.321 -0.4520 -0.5389  0.3885
   26MOL   H15730207   1.540   0.157   2.197  1.3560  0.3008  1.5877
   26MOL   H15830208   1.561   7.705   2.328  1.3936  1.0336 -1.2697
   26MOL   H15930209   1.530   7.670   2.169 -0.4734  0.3092  0.4174
   26MOL   H16030210   1.416   7.543   2.338  1.7576  1.0739 -1.6474
   26MOL   H16130211   1.299   7.601   2.223  0.9628 -0.3336 -1.1382
   26MOL   H16230212   1.359   7.731   2.507  0.2466 -0.4304  0.7893
   26MOL   H16330213   1.245   0.035   2.399  1.6495  0.5307 -0.5187
   26MOL   H16430214   1.087   7.636   2.492  0.2191  0.4881  0.2306
   26MOL   H16530215   1.184   7.513   2.419  3.3636  1.5727 -0.9781
   26MOL   H16630216   1.179   7.491   2.874  0.3469 -0.8075  0.7889
   26MOL   H16730217   1.314   7.429   2.799 -0.8354  2.2457  0.9578
   26MOL   H16830218   1.174   7.217   2.762  0.4040  1.0708 -0.1628
   26MOL   H16930219   1.041   7.273   2.855 -0.6463  0.1437  0.5766
   26MOL   H17030220   1.145   7.156   3.001 -1.1890  0.3709 -3.0295
   26MOL   H17130221   1.200   7.328   3.047  0.4438 -0.6562  1.7768
   26MOL   H17230222   1.427   7.261   2.954 -1.3189  0.6629 -0.2765
   26MOL   H17330223   1.360   7.118   2.892 -0.2441  0.8346 -0.4661
   26MOL   H17430224   1.363   7.179   3.189 -0.1126  1.0312 -0.2929
   26MOL   H17530225   1.357   7.016   3.111 -1.7216  0.1756 -0.8085
   26MOL   H17630226   1.580   7.053   3.022 -0.0520  0.2134 -0.3191
   26MOL   H17730227   1.596   7.205   3.097  2.4523 -0.5742 -0.5053
   26MOL   H17830228   1.594   6.925   3.230 -1.2424  0.3603 -0.8328
   26MOL   H17930229   1.560   7.055   3.328  0.9954 -0.2860  0.9685
   26MOL   H18030230   1.801   6.978   3.307  1.6582  1.8156  1.1208
   26MOL   H18130231   1.818   7.057   3.165 -0.4125 -1.6481  0.4556
   26MOL   O18230232   1.908   7.190   3.395  0.0915 -0.1802 -0.2579
   26MOL   C18330233   1.943   7.305   3.470  0.5285  0.4044 -0.2740
   26MOL   C18430234   2.080   7.346   3.414  0.2761 -0.0315  0.4232
   26MOL   C18530235   2.149   7.440   3.509 -0.2756  0.2430 -0.2341
   26MOL   C18630236   2.296   7.470   3.470 -0.4964  0.2101  0.2976
   26MOL   C18730237   2.376   7.543   3.582  0.1197  0.0067  0.5039
   26MOL   C18830238   2.503   7.594   3.531  0.0462 -0.2446 -0.1604
   26MOL   C18930239   2.570   7.673   3.642 -0.0416 -0.1276 -0.7916
   26MOL   C19030240   2.717   7.710   3.612 -0.0790  0.3096 -0.9844
   26MOL   C19130241   2.799   7.579   3.629  0.1622 -0.8011 -0.2539
   26MOL   C19230242   2.954   7.602   3.625  0.2116 -0.5677 -0.1230
   26MOL   O19330243   3.005   7.676   3.737  0.1728 -0.8402  0.5292
   26MOL   C19430244   3.125   7.663   3.782 -0.1135  0.6334 -0.0925
   26MOL   O19530245   3.212   7.593   3.722  0.1668 -0.0167  0.2784
   26MOL   C19630246   3.149   7.707   3.926  0.5113  0.4895  0.0504
   26MOL   C19730247   3.272   0.045   3.942  0.3429 -0.1902  0.2978
   26MOL   C19830248   3.382   7.751   4.036 -0.3860 -0.3696  0.0465
   26MOL   C19930249   3.480   0.108   4.082  1.1646  0.0894  0.3223
   26MOL   C20030250   3.578   0.060   4.195 -0.4214  0.3751  0.0342
   26MOL   C20130251   3.622   0.166   4.295 -0.0913  0.1232 -0.1393
   26MOL   C20230252   3.674   0.103   4.429  0.4635 -0.6125 -0.2701
   26MOL   C20330253   3.700   0.217   4.531  0.1906 -0.2553  0.2913
   26MOL   C20430254   3.726   0.176   4.676  0.0172  0.0701  0.0480
   26MOL   O20530255   3.705   0.256   4.769  0.4287 -0.3755 -0.0279
   26MOL   H20630256   1.869   7.382   3.452 -2.1405 -2.3315 -1.4639
   26MOL   H20730257   1.944   7.283   3.577  0.7181 -1.7828 -0.6894
   26MOL   H20830258   2.150   7.266   3.391  1.5880  1.3720 -0.6096
   26MOL   H20930259   2.068   7.383   3.312 -1.7323 -1.6796  0.0413
   26MOL   H21030260   2.098   7.536   3.498 -3.2724 -1.4045 -1.5440
   26MOL   H21130261   2.143   7.396   3.609  0.7963  0.3807 -0.1046
   26MOL   H21230262   2.352   7.380   3.444  0.7144  1.0330 -0.0100
   26MOL   H21330263   2.295   7.542   3.388 -1.3964 -1.5622 -1.2662
   26MOL   H21430264   2.377   7.474   3.667 -1.4167  1.6870  1.9357
   26MOL   H21530265   2.312   7.627   3.610 -1.0830 -0.4895 -0.7177
   26MOL   H21630266   2.494   7.662   3.446  0.6982  1.2533  0.9407
   26MOL   H21730267   2.569   7.510   3.507 -1.5750 -1.5603 -0.0824
   26MOL   H21830268   2.574   7.627   3.740 -0.7950  2.7520  0.6459
   26MOL   H21930269   2.512   0.008   3.657 -1.7506 -1.2655 -0.3032
   26MOL   H22030270   2.740   0.030   3.686  0.0482 -2.1782  1.6309
   26MOL   H22130271   2.742   7.755   3.516  1.3572  1.3291 -0.1549
   26MOL   H22230272   2.762   7.521   3.713  2.8477  1.1649  2.3733
   26MOL   H22330273   2.790   7.507   3.548 -1.2139 -1.8557  0.8225
   26MOL   H22430274   2.999   7.503   3.614 -1.4814 -1.3011 -0.5582
   26MOL   H22530275   2.967   7.659   3.533 -1.9178  0.0172 -0.0918
   26MOL   H22630276   3.141   7.621   3.992  1.8079  0.0149 -0.3868
   26MOL   H22730277   3.072   0.021   3.956 -0.1327 -0.1470 -0.0971
   26MOL   H22830278   3.241   0.145   3.972 -1.9387 -1.1103  1.0790
   26MOL   H22930279   3.320   0.059   3.845  1.8969 -0.6937  0.9882
   26MOL   H23030280   3.447   7.669   4.005  0.5140  1.0590 -1.9521
   26MOL   H23130281   3.344   7.735   4.137  0.6215 -0.8347  0.3620
   26MOL   H23230282   3.421   0.194   4.115  0.2601 -0.6933  0.7727
   26MOL   H23330283   3.547   0.149   4.007  0.1652  1.8864  0.3815
   26MOL   H23430284   3.547   7.733   4.257 -0.9534 -1.1661 -2.2498
   26MOL   H23530285   3.655   0.003   4.141  0.0336  0.3285  0.7242
   26MOL   H23630286   3.688   0.234   4.242 -1.7850  1.1368 -0.9968
   26MOL   H23730287   3.535   0.227   4.316  0.0809 -0.2911  1.8644
   26MOL   H23830288   3.754   0.032   4.409  0.7540  0.2079 -2.1090
   26MOL   H23930289   3.587   0.051   4.469 -0.5522  1.3896  0.1690
   26MOL   H24030290   3.797   0.261   4.507  0.1526 -0.2436  0.1584
   26MOL   H24130291   3.629   0.299   4.527 -0.4762 -0.8284  0.2228
   26MOL   O24230292   3.785   0.052   4.690  0.2984  0.5680  0.4694
   26MOL   C24330293   3.825   0.014   4.817  0.2050 -0.0038  0.3824
   26MOL   C24430294   3.948   7.684   4.796  0.4133  0.3519 -0.3787
   26MOL   C24530295   4.000   7.621   4.920  0.5199  0.9969 -0.9539
   26MOL   C24630296   4.137   7.541   4.898 -1.0268 -0.3315  0.6868
   26MOL   C24730297   4.177   7.461   5.034  0.2303  0.1880  0.0533
   26MOL   C24830298   4.324   7.443   5.058 -0.0481  0.8838  0.0548
   26MOL   C24930299   4.353   7.351   5.174 -0.5367 -0.6160  0.7183
   26MOL   C25030300   4.504   7.332   5.216  0.0012  0.4339 -0.3747
   26MOL   C25130301   4.506   7.242   5.346 -0.9635 -0.9640 -0.0505
   26MOL   C25230302   4.618   7.278   5.435  0.0155 -0.1569 -0.1272
   26MOL   O25330303   4.745   7.244   5.388 -0.5445 -0.8262  0.2300
   26MOL   C25430304   4.854   7.298   5.443  1.1113  0.7782  0.0432
   26MOL   O25530305   4.853   7.392   5.531 -0.1214  0.0366  0.4000
   26MOL   C25630306   4.992   7.259   5.384  0.2836  0.3034  0.6142
   26MOL   C25730307   5.008   7.274   5.231  0.5702  0.3442  0.2152
   26MOL   C25830308   5.035   7.416   5.186  0.5505 -0.1775  0.2347
   26MOL   C25930309   5.014   7.433   5.034 -0.1801 -0.5382 -0.0273
   26MOL   C26030310   5.071   7.566   4.987 -0.6402 -0.5977  0.6180
   26MOL   C26130311   5.054   7.595   4.835  0.3786 -0.7739  0.3320
   26MOL   C26230312   5.111   7.737   4.792 -0.4203 -0.4758 -0.0321
   26MOL   C26330313   5.106   7.742   4.636  0.1033  0.4631  0.0334
   26MOL   C26430314   5.095   0.128   4.582  0.3322  0.2254  0.2047
   26MOL   O26530315   4.999   0.153   4.513 -0.0424  0.4813  0.0422
   26MOL   H26630316   3.855   0.090   4.889 -1.3467 -0.3584  1.4292
   26MOL   H26730317   3.740   7.719   4.864 -0.9506  1.1184 -0.4442
   26MOL   H26830318   3.923   7.612   4.718 -1.8554  3.4794 -2.7245
   26MOL   H26930319   4.019   7.754   4.752 -0.6585  0.2682 -2.2901
   26MOL   H27030320   4.016   7.691   5.001 -2.6677 -0.8586  1.4255
   26MOL   H27130321   3.921   7.558   4.962  2.1463 -0.2592  0.2838
   26MOL   H27230322   4.115   7.476   4.813  0.2042 -1.5204  1.2652
   26MOL   H27330323   4.217   7.611   4.873 -1.0360 -0.1143  1.2665
   26MOL   H27430324   4.128   7.364   5.046  0.5805  0.1055  0.7969
   26MOL   H27530325   4.143   7.525   5.115 -0.2618 -0.4703  0.3797
   26MOL   H27630326   4.383   7.534   5.074  1.2014  0.7053 -3.1408
   26MOL   H27730327   4.356   7.398   4.964 -1.3230 -0.5854  0.3078
   26MOL   H27830328   4.318   7.252   5.144 -2.4679  0.3609 -0.3816
   26MOL   H27930329   4.296   7.390   5.258 -0.6296 -0.3865  0.5474
   26MOL   H28030330   4.555   7.427   5.229 -1.6595  1.4510 -1.1541
   26MOL   H28130331   4.564   7.280   5.141 -1.2211  0.3850 -1.3508
   26MOL   H28230332   4.419   7.275   5.403 -1.7942 -2.5685 -0.3731
   26MOL   H28330333   4.502   7.134   5.332  2.9224 -1.1236 -0.5536
   26MOL   H28430334   4.610   7.386   5.448  1.1697 -0.0931  0.0593
   26MOL   H28530335   4.608   7.237   5.535 -0.8097 -0.5286 -0.3496
   26MOL   H28630336   5.015   7.157   5.414  1.5343  0.2577 -0.4384
   26MOL   H28730337   5.056   7.312   5.454 -0.2968 -0.7937  2.0105
   26MOL   H28830338   4.927   7.229   5.174 -0.2173  1.1487  0.6780
   26MOL   H28930339   5.092   7.209   5.208  0.8200  0.5973  0.4074
   26MOL   H29030340   5.135   7.446   5.215  1.3913 -0.2616 -2.4304
   26MOL   H29130341   4.976   7.497   5.229  0.2364  0.0624 -0.6380
   26MOL   H29230342   4.907   7.427   5.016 -0.2528 -3.9070  1.0616
   26MOL   H29330343   5.053   7.350   4.975 -1.0594 -0.9665 -0.0026
   26MOL   H29430344   5.052   7.653   5.050 -0.2648 -0.6132  0.7543
   26MOL   H29530345   5.179   7.554   4.995 -0.3992 -0.0278 -1.4353
   26MOL   H29630346   5.096   7.509   4.784 -1.7928 -0.2622 -2.4009
   26MOL   H29730347   4.950   7.595   4.805  0.5221 -0.3602 -0.1812
   26MOL   H29830348   5.215   7.749   4.824 -0.8967 -0.3675  1.5219
   26MOL   H29930349   5.039   0.055   4.824  0.6944  0.6433 -0.1118
   26MOL   H30030350   5.209   7.718   4.613  0.6001  1.5091  1.0992
   26MOL   H30130351   5.038   7.678   4.579 -0.1462  0.3664  0.4365
   26MOL   O30230352   5.194   0.213   4.627  0.2724 -0.5199  0.9877
   26MOL   C30330353   5.165   0.353   4.626 -0.4702 -0.4234  0.1291
   26MOL   C30430354   5.288   0.437   4.662  0.5873  0.5496 -0.2972
   26MOL   C30530355   5.249   0.586   4.668 -0.2682  0.4084  0.6272
   26MOL   C30630356   5.237   0.651   4.528  0.1734  0.3121 -0.5677
   26MOL   C30730357   5.230   0.800   4.540  0.0409  0.2402 -0.4577
   26MOL   C30830358   5.194   0.864   4.408  0.3272 -0.6553 -0.0063
   26MOL   C30930359   5.191   1.019   4.400 -0.1575  0.1495 -0.1069
   26MOL   C31030360   5.055   1.077   4.437  0.3921  0.3228  0.6124
   26MOL   C31130361   5.063   1.225   4.470 -0.4796  0.7037  0.7920
   26MOL   C31230362   4.921   1.292   4.476  0.0628  0.3373 -0.3353
   26MOL   O31330363   4.853   1.275   4.593 -0.3316  0.5568  0.3400
   26MOL   C31430364   4.726   1.322   4.599  0.3461 -0.4645 -0.0903
   26MOL   O31530365   4.654   1.350   4.505  0.0133 -0.9002 -1.2492
   26MOL   C31630366   4.680   1.329   4.749 -0.1816  0.4834  0.3169
   26MOL   C31730367   4.536   1.387   4.764  0.6041  0.3462  0.1185
   26MOL   C31830368   4.417   1.300   4.715 -0.1461  0.4856 -0.5921
   26MOL   C31930369   4.273   1.353   4.745  0.7582  0.0318  0.4100
   26MOL   C32030370   4.166   1.253   4.714 -0.8426  0.5070  0.0756
   26MOL   C32130371   4.019   1.277   4.754 -0.6554 -0.1019  0.1168
   26MOL   C32230372   4.001   1.290   4.904 -0.1575  0.2854  0.2278
   26MOL   C32330373   3.855   1.316   4.946 -0.0363  0.2035  0.1959
   26MOL   C32430374   3.757   1.212   4.907 -0.3737 -0.0257  0.0971
   26MOL   O32530375   3.660   1.240   4.841  0.4485 -0.4031  0.5326
   26MOL   H32630376   5.136   0.381   4.524  2.7571  0.1384 -0.7099
   26MOL   H32730377   5.088   0.374   4.699 -0.1873 -0.5206  0.4550
   26MOL   H32830378   5.316   0.412   4.764 -1.9468 -0.9547  0.0761
   26MOL   H32930379   5.366   0.426   4.587  1.4959 -0.1494  0.7325
   26MOL   H33030380   5.153   0.604   4.717 -0.6270 -0.0393  0.0979
   26MOL   H33130381   5.329   0.636   4.722  1.0958  0.0507 -1.0138
   26MOL   H33230382   5.319   0.632   4.458  0.2634 -0.9164 -0.1334
   26MOL   H33330383   5.148   0.614   4.479  1.1971  0.8152 -2.8780
   26MOL   H33430384   5.329   0.836   4.568 -0.8789  2.0409  0.5584
   26MOL   H33530385   5.153   0.828   4.612 -0.1486 -0.3170 -0.4377
   26MOL   H33630386   5.100   0.827   4.367 -1.0461  0.1510  2.3390
   26MOL   H33730387   5.273   0.835   4.339  1.4733  1.5450  0.3344
   26MOL   H33830388   5.216   1.042   4.297  1.1553 -1.3761 -0.1527
   26MOL   H33930389   5.273   1.061   4.459 -0.2158  0.7542 -0.4516
   26MOL   H34030390   5.008   1.032   4.525  0.1089  0.8983  0.7572
   26MOL   H34130391   4.994   1.055   4.350  0.1283 -1.3573  1.2022
   26MOL   H34230392   5.118   1.239   4.563 -0.3595  1.2554  0.6416
   26MOL   H34330393   5.118   1.272   4.388  1.3802 -2.8263 -0.1100
   26MOL   H34430394   4.923   1.400   4.463 -2.0096  0.3116 -1.1744
   26MOL   H34530395   4.866   1.266   4.385 -1.3490 -1.7384  1.0717
   26MOL   H34630396   4.749   1.396   4.801  2.5837 -3.2203  1.6625
   26MOL   H34730397   4.682   1.233   4.802  0.8729 -0.4045 -1.3060
   26MOL   H34830398   4.524   1.481   4.710 -2.3073  1.3845  2.3988
   26MOL   H34930399   4.521   1.409   4.870  0.3260  3.4292 -0.5146
   26MOL   H35030400   4.432   1.212   4.777 -2.3115  0.1502 -0.5105
   26MOL   H35130401   4.428   1.268   4.611  1.3070  1.4051 -0.7347
   26MOL   H35230402   4.251   1.441   4.685  2.6464  0.1087 -0.2157
   26MOL   H35330403   4.271   1.381   4.850  0.4386 -1.6085  0.8611
   26MOL   H35430404   4.166   1.240   4.605 -2.3288  1.3435 -0.0364
   26MOL   H35530405   4.201   1.163   4.765 -0.6534  1.0161  0.8432
   26MOL   H35630406   3.986   1.370   4.707  0.0663 -1.8305 -4.0532
   26MOL   H35730407   3.955   1.211   4.696 -1.6248  0.3294  0.6842
   26MOL   H35830408   4.058   1.364   4.959  1.2005 -0.5976  0.0251
   26MOL   H35930409   4.033   1.199   4.954 -3.9559 -0.9039  0.6419
   26MOL   H36030410   3.856   1.333   5.054 -0.2477  0.8586  0.0944
   26MOL   H36130411   3.809   1.406   4.906  0.2427  1.1940  2.0407
   26MOL   O36230412   3.786   1.100   4.965  0.6118 -0.2390 -0.3705
   26MOL   C36330413   3.706   0.990   4.930  0.5593  0.1001 -0.1665
   26MOL   C36430414   3.761   0.861   4.979 -0.5968  0.8179 -0.6086
   26MOL   C36530415   3.859   0.792   4.884 -0.1069  0.1787 -0.0936
   26MOL   C36630416   3.941   0.673   4.949  0.2461 -0.7177  0.1778
   26MOL   C36730417   3.872   0.540   4.951 -0.0103  0.0305  0.0647
   26MOL   C36830418   3.905   0.434   5.066  0.7488  0.5676  0.5418
   26MOL   C36930419   3.829   0.467   5.190  0.1741 -0.3584  0.3141
   26MOL   C37030420   3.858   0.359   5.301 -0.2027 -0.1669  0.5234
   26MOL   C37130421   3.758   0.376   5.415  0.4373 -0.1668  0.2296
   26MOL   C37230422   3.806   0.460   5.533  0.3586 -0.1253  0.1091
   26MOL   O37330423   3.791   0.589   5.501 -0.3790 -0.4502  0.0310
   26MOL   C37430424   3.867   0.691   5.544  0.3807 -0.1704 -0.2970
   26MOL   O37530425   3.967   0.681   5.611  0.2021  0.0897  0.1856
   26MOL   C37630426   3.814   0.823   5.499 -0.0979  0.2263 -0.0728
   26MOL   C37730427   3.896   0.889   5.380 -0.1651  0.1165 -0.0016
   26MOL   C37830428   4.013   0.980   5.424  0.5202 -0.1381  0.0981
   26MOL   C37930429   4.066   1.062   5.310 -0.5711 -0.6812 -0.2845
   26MOL   C38030430   4.196   1.140   5.327  0.0636 -0.0613 -0.9905
   26MOL   C38130431   4.208   1.246   5.217 -0.3269 -0.3212 -0.5086
   26MOL   C38230432   4.334   1.335   5.241 -0.1547 -0.6241 -0.6291
   26MOL   C38330433   4.378   1.442   5.143 -0.0644  0.5875  0.4329
   26MOL   C38430434   4.282   1.558   5.109 -0.1962  0.6192 -0.1599
   26MOL   O38530435   4.170   1.560   5.145  0.1258 -0.2628  0.8670
   26MOL   H38630436   3.605   1.008   4.968  1.3637 -0.8872  2.5753
   26MOL   H38730437   3.684   0.978   4.824 -0.6360 -1.6396  0.2645
   26MOL   H38830438   3.807   0.888   5.074 -1.9181 -0.4106  0.4083
   26MOL   H38930439   3.680   0.789   4.990  3.0979 -3.5515 -0.6823
   26MOL   H39030440   3.796   0.757   4.802  0.0437  1.5012 -0.8016
   26MOL   H39130441   3.922   0.872   4.845 -1.7300  0.3073 -2.6338
   26MOL   H39230442   4.025   0.668   4.880  0.2461 -0.6593  0.1739
   26MOL   H39330443   3.979   0.703   5.046 -0.7253  0.3125  0.2481
   26MOL   H39430444   3.894   0.494   4.854 -1.8926 -0.6990 -0.0375
   26MOL   H39530445   3.766   0.562   4.937  0.2988  1.2389 -0.4032
   26MOL   H39630446   4.010   0.436   5.094  0.4203  0.8237  1.7940
   26MOL   H39730447   3.876   0.332   5.038 -0.2981  0.9548  0.2154
   26MOL   H39830448   3.723   0.468   5.165  0.6173  2.1372 -1.6439
   26MOL   H39930449   3.850   0.568   5.225 -1.6634 -0.3171  1.3795
   26MOL   H40030450   3.959   0.375   5.339  1.1893 -2.2404 -2.1258
   26MOL   H40130451   3.860   0.256   5.265 -0.6439  0.2764 -0.8026
   26MOL   H40230452   3.659   0.410   5.386 -0.7357 -0.8550  3.2209
   26MOL   H40330453   3.739   0.277   5.456  1.2660  0.8596  3.2132
   26MOL   H40430454   3.755   0.429   5.624  1.9172 -0.0376  1.0252
   26MOL   H40530455   3.913   0.442   5.542  0.1848 -1.3908 -0.2825
   26MOL   H40630456   3.806   0.896   5.580 -0.8252  1.6646 -1.4333
   26MOL   H40730457   3.717   0.800   5.455 -0.6688  0.9026  0.7969
   26MOL   H40830458   3.828   0.957   5.329 -3.7774 -1.6698  2.2126
   26MOL   H40930459   3.926   0.808   5.314  1.8407  0.0455  0.9507
   26MOL   H41030460   4.102   0.928   5.457  1.1907  0.0667 -1.3370
   26MOL   H41130461   3.982   1.041   5.509 -0.6004  0.8098 -0.9594
   26MOL   H41230462   3.985   1.127   5.277  1.2027  2.3570  1.1362
   26MOL   H41330463   4.091   0.999   5.225 -2.7261 -0.3211 -1.2373
   26MOL   H41430464   4.191   1.186   5.426 -0.7988 -3.1299  0.4511
   26MOL   H41530465   4.282   1.074   5.330  0.6068  0.6767  1.8635
   26MOL   H41630466   4.207   1.194   5.121  0.6478 -2.2252  0.4811
   26MOL   H41730467   4.121   1.311   5.220  0.2933  0.4652  3.0544
   26MOL   H41830468   4.423   1.272   5.249 -0.6567 -1.3218 -0.5321
   26MOL   H41930469   4.316   1.373   5.342  0.4683 -0.6233 -0.5150
   26MOL   H42030470   4.475   1.490   5.156 -0.0943  0.7952 -0.1163
   26MOL   H42130471   4.386   1.392   5.046 -1.2960  0.3713  0.4322
   26MOL   O42230472   4.339   1.651   5.035  0.0096  0.1083  0.3393
   26MOL   C42330473   4.259   1.762   5.002 -0.1612  0.4350 -0.3274
   26MOL   C42430474   4.183   1.727   4.872  0.2899 -0.2089  0.1754
   26MOL   C42530475   4.109   1.846   4.804  0.5416 -1.0637  0.2813
   26MOL   C42630476   4.044   1.807   4.674  0.7419 -0.1396 -0.0828
   26MOL   C42730477   3.937   1.703   4.697  0.0247  0.0742  0.4300
   26MOL   C42830478   3.847   1.695   4.569  0.3802  0.1773  0.2915
   26MOL   C42930479   3.760   1.563   4.574  0.5750 -0.1294 -0.1456
   26MOL   C43030480   3.673   1.540   4.452  0.1301 -0.5070 -0.2419
   26MOL   C43130481   3.567   1.429   4.473  0.6626 -0.9608  0.0294
   26MOL   C43230482   3.481   1.405   4.345  0.1947 -0.1210  0.0311
   26MOL   O43330483   3.566   1.367   4.235  0.5620  0.9847  0.5214
   26MOL   C43430484   3.500   1.326   4.121  0.2620 -0.2252  0.7646
   26MOL   O43530485   3.380   1.329   4.094 -0.5153  0.0624 -0.0615
   26MOL   C43630486   3.593   1.266   4.021 -0.2460 -0.4135  0.3510
   26MOL   C43730487   3.630   1.370   3.912 -0.3179  0.4109  0.4329
   26MOL   C43830488   3.718   1.319   3.804  0.3639  0.0522  0.1118
   26MOL   C43930489   3.769   1.435   3.719  0.4472 -0.3749  0.4238
   26MOL   C44030490   3.861   1.378   3.612 -0.4215  0.5478  0.5300
   26MOL   C44130491   3.940   1.481   3.523 -0.7635  0.0699  0.1219
   26MOL   C44230492   3.875   1.579   3.427  0.2689  0.5058  0.5797
   26MOL   C44330493   3.803   1.505   3.307  0.1314  0.7125 -0.2496
   26MOL   C44430494   3.762   1.593   3.184  0.3639 -0.1903 -0.0632
   26MOL   O44530495   3.765   1.719   3.187  0.6244 -0.0565  0.0153
   26MOL   H44630496   4.188   1.786   5.081  1.0826  0.4575  0.8168
   26MOL   H44730497   4.326   1.847   4.982 -0.1341  0.8529  1.4273
   26MOL   H44830498   4.248   1.692   4.791 -0.5455 -0.4034 -0.4163
   26MOL   H44930499   4.112   1.647   4.894  0.9553 -0.5130  1.2202
   26MOL   H45030500   4.034   1.882   4.875 -0.8081 -1.5823 -0.8649
   26MOL   H45130501   4.180   1.930   4.802  0.4412 -0.9814  0.1038
   26MOL   H45230502   3.983   1.896   4.656  3.1442  2.0152  1.9246
   26MOL   H45330503   4.107   1.796   4.585  0.4451 -1.7573 -0.0872
   26MOL   H45430504   3.885   1.738   4.786 -2.4643  1.1203 -1.3473
   26MOL   H45530505   3.985   1.607   4.714 -1.1543 -0.5971  0.0025
   26MOL   H45630506   3.901   1.707   4.476 -0.3117  0.5951 -0.0635
   26MOL   H45730507   3.781   1.782   4.572  1.4380  1.0106 -0.2573
   26MOL   H45830508   3.703   1.562   4.667  1.1723  1.4392  0.2491
   26MOL   H45930509   3.832   1.481   4.577  2.3318  1.3982 -0.2408
   26MOL   H46030510   3.732   1.507   4.365  0.9884  1.6222 -0.4880
   26MOL   H46130511   3.627   1.636   4.429 -0.2317 -0.2856  1.3718
   26MOL   H46230512   3.603   1.333   4.509 -0.0756 -2.3847 -2.8694
   26MOL   H46330513   3.501   1.463   4.553 -0.6021  1.0205 -1.7873
   26MOL   H46430514   3.411   1.323   4.363  0.6476 -0.4603  0.2772
   26MOL   H46530515   3.428   1.495   4.315  0.9307  0.7703  1.3459
   26MOL   H46630516   3.542   1.184   3.969 -1.4345 -0.1409  1.0678
   26MOL   H46730517   3.686   1.239   4.070  0.6091  0.4485 -0.7681
   26MOL   H46830518   3.671   1.461   3.956  1.2528  0.5192 -1.2164
   26MOL   H46930519   3.544   1.418   3.866 -0.0603  1.1847  0.7318
   26MOL   H47030520   3.659   1.252   3.741  1.0426 -0.2868 -0.1765
   26MOL   H47130521   3.801   1.257   3.840 -0.4365 -1.3996 -0.4967
   26MOL   H47230522   3.818   1.505   3.787  0.6188 -0.3128  0.2333
   26MOL   H47330523   3.681   1.473   3.667 -0.8755 -2.6280  0.9446
   26MOL   H47430524   3.940   1.324   3.664 -0.2394  0.0675 -0.2448
   26MOL   H47530525   3.810   1.308   3.546 -1.1530  1.5195  0.0676
   26MOL   H47630526   4.003   1.535   3.594  1.1667 -1.7516 -0.1811
   26MOL   H47730527   4.018   1.424   3.472 -1.8824  0.5832 -2.2032
   26MOL   H47830528   3.950   1.652   3.396  1.2796 -0.4859  0.6679
   26MOL   H47930529   3.800   1.629   3.489  0.3143  1.0476  0.2039
   26MOL   H48030530   3.867   1.427   3.265  0.2603 -0.1531  1.5183
   26MOL   H48130531   3.715   1.453   3.345  1.0539 -0.6318  0.0667
   26MOL   O48230532   3.718   1.525   3.071 -0.2728 -0.6194  0.1346
   26MOL   C48330533   3.671   1.595   2.957 -0.4902 -0.0714 -0.3497
   26MOL   C48430534   3.729   1.524   2.838 -0.0328  0.2803 -0.3611
   26MOL   C48530535   3.697   1.374   2.828  0.1472 -0.0499 -0.4647
   26MOL   C48630536   3.681   1.314   2.683 -0.1670 -0.3149  0.0345
   26MOL   C48730537   3.668   1.159   2.666  0.1195 -0.2110  0.3163
   26MOL   C48830538   3.659   1.118   2.518 -0.2547  0.1787 -0.5243
   26MOL   C48930539   3.618   0.975   2.486 -0.1647  0.4724  0.2574
   26MOL   C49030540   3.682   0.870   2.575 -0.6316 -0.5369 -0.4165
   26MOL   C49130541   3.638   0.726   2.537  0.0471 -0.0891  0.1888
   26MOL   C49230542   3.726   0.636   2.619  0.5295 -0.0175 -0.3011
   26MOL   O49330543   3.681   0.626   2.751  0.3930 -0.4136  0.1519
   26MOL   C49430544   3.581   0.544   2.783 -0.8526  0.5052 -0.1736
   26MOL   O49530545   3.520   0.475   2.697 -1.2763  0.4782 -0.8379
   26MOL   C49630546   3.553   0.538   2.928  0.1441 -0.5073 -0.2253
   26MOL   C49730547   3.448   0.647   2.970 -0.1680 -0.2986  0.0882
   26MOL   C49830548   3.514   0.781   2.974  0.0528 -0.5114 -0.0510
   26MOL   C49930549   3.446   0.891   3.057  0.5278  0.3814  0.0597
   26MOL   C50030550   3.520   1.030   3.064 -0.4692  0.6547 -0.4551
   26MOL   C50130551   3.665   1.026   3.118  0.5593  0.2147  0.1733
   26MOL   C50230552   3.719   1.161   3.168  0.4348  0.5607 -0.5623
   26MOL   C50330553   3.870   1.160   3.203 -0.3274  0.0881  0.3330
   26MOL   C50430554   3.911   1.085   3.336 -0.0283  0.5582  0.0544
   26MOL   O50530555   3.837   1.006   3.396  0.6555 -0.3746 -0.0734
   26MOL   H50630556   3.563   1.582   2.961 -0.7565  1.9598 -0.6843
   26MOL   H50730557   3.687   1.702   2.964 -0.4211 -0.0650 -0.6451
   26MOL   H50830558   3.693   1.575   2.749 -1.6625 -0.8336 -0.3661
   26MOL   H50930559   3.836   1.540   2.818 -0.3160  2.8368 -0.0266
   26MOL   H51030560   3.767   1.317   2.889 -1.4104  1.2936  2.6873
   26MOL   H51130561   3.606   1.364   2.887  1.9029 -0.3396  2.2841
   26MOL   H51230562   3.592   1.367   2.647 -0.4679  0.0410  1.2686
   26MOL   H51330563   3.758   1.353   2.617  2.2381 -0.4730  2.6603
   26MOL   H51430564   3.581   1.125   2.721  0.6917 -0.1815  1.2419
   26MOL   H51530565   3.761   1.123   2.708 -0.0433 -0.5717  0.3626
   26MOL   H51630566   3.761   1.129   2.482 -0.5410  2.9208 -0.6254
   26MOL   H51730567   3.582   1.173   2.465  0.4929  2.0751  0.3085
   26MOL   H51830568   3.625   0.954   2.379  0.2647 -2.1116  0.7630
   26MOL   H51930569   3.510   0.975   2.494 -0.4155  2.3432 -2.5231
   26MOL   H52030570   3.661   0.892   2.680  1.4242  3.3909 -0.7006
   26MOL   H52130571   3.789   0.886   2.565 -0.7917  1.3836  0.6289
   26MOL   H52230572   3.534   0.709   2.566  0.0533  0.1505  0.3531
   26MOL   H52330573   3.654   0.720   2.430 -1.6819  2.2375 -0.2442
   26MOL   H52430574   3.734   0.542   2.566  2.5065  1.5721 -2.9336
   26MOL   H52530575   3.830   0.671   2.618  0.0548  1.4079 -1.3817
   26MOL   H52630576   3.638   0.554   2.993 -1.4904 -0.0240  1.8530
   26MOL   H52730577   3.502   0.444   2.950 -1.4408  0.8178  1.8711
   26MOL   H52830578   3.400   0.626   3.065 -0.4925  3.5632  0.8477
   26MOL   H52930579   3.363   0.652   2.902  0.7372  2.0596 -0.9198
   26MOL   H53030580   3.544   0.812   2.874 -3.6878  1.3607 -0.7051
   26MOL   H53130581   3.611   0.767   3.022 -0.6842 -0.4018  1.5073
   26MOL   H53230582   3.428   0.860   3.160  1.2818 -0.8042 -0.1685
   26MOL   H53330583   3.348   0.913   3.013  1.1648  0.9043 -1.1098
   26MOL   H53430584   3.528   1.059   2.959  3.3090 -1.3264 -0.7908
   26MOL   H53530585   3.457   1.107   3.108 -0.1487 -0.7076  2.5085
   26MOL   H53630586   3.662   0.957   3.202 -3.7168  1.1163  0.8768
   26MOL   H53730587   3.735   0.996   3.040  1.4341 -0.7266  1.2947
   26MOL   H53830588   3.662   1.193   3.255  0.5224  0.2517 -0.3903
   26MOL   H53930589   3.711   1.229   3.083  1.6448 -0.2979 -1.3847
   26MOL   H54030590   3.901   1.094   3.121 -0.7732  0.9699 -0.5476
   26MOL   H54130591   3.926   1.253   3.192 -1.7928  0.7793 -1.4954
   26MOL   O54230592   4.031   1.128   3.374 -0.0328  0.3657 -0.3050
   26MOL   C54330593   4.084   1.079   3.495  0.4160  0.7981  0.5000
   26MOL   C54430594   4.147   0.943   3.481 -0.2675 -0.8043  0.6793
   26MOL   C54530595   4.263   0.927   3.374  0.0196 -0.4162 -0.2362
   26MOL   C54630596   4.330   0.790   3.364 -0.0588 -0.3655  0.4249
   26MOL   C54730597   4.254   0.672   3.306 -0.0846 -0.5297  0.9479
   26MOL   C54830598   4.333   0.541   3.318 -0.2479  1.0618  0.0245
   26MOL   C54930599   4.263   0.428   3.238 -0.2395  0.2406 -0.6018
   26MOL   C55030600   4.340   0.296   3.241 -0.9644  0.1685  0.1274
   26MOL   C55130601   4.381   0.234   3.377 -0.0708  0.3829 -0.0786
   26MOL   C55230602   4.458   0.097   3.376  0.0775 -0.0843  0.2751
   26MOL   O55330603   4.581   0.101   3.297 -0.2328  0.0907  0.6508
   26MOL   C55430604   4.693   0.058   3.351  0.1282 -0.6419  0.6318
   26MOL   O55530605   4.702   0.006   3.457  0.4964  0.3500 -1.0209
   26MOL   C55630606   4.814   0.087   3.256  0.5867  0.0823 -0.2877
   26MOL   C55730607   4.948   0.119   3.318 -0.2381 -0.0453 -0.7467
   26MOL   C55830608   5.059   0.129   3.210  0.5976 -0.1057 -0.0501
   26MOL   C55930609   5.198   0.139   3.274 -0.3120  0.6744  0.1505
   26MOL   C56030610   5.307   0.136   3.167  0.1729  0.4554 -0.3203
   26MOL   C56130611   5.441   0.116   3.231  0.2725  0.2144  0.1290
   26MOL   C56230612   5.562   0.099   3.132  0.1388  0.0302  0.1392
   26MOL   C56330613   5.565   0.220   3.042  0.5869  0.4620  0.1444
   26MOL   C56430614   5.611   0.348   3.108 -0.2463 -0.4271 -0.9977
   26MOL   O56530615   5.585   0.458   3.063  0.2011  0.4476 -0.3148
   26MOL   H56630616   4.161   1.149   3.527  0.8092  1.8147 -2.4970
   26MOL   H56730617   4.010   1.065   3.573 -0.8125 -1.5383 -1.0240
   26MOL   H56830618   4.191   0.917   3.577  1.9959 -0.5360 -0.2519
   26MOL   H56930619   4.066   0.876   3.451  1.3464 -2.9185  0.9224
   26MOL   H57030620   4.238   0.971   3.278  0.6486 -2.1420 -1.2128
   26MOL   H57130621   4.349   0.983   3.413  1.2770 -2.3599 -0.0965
   26MOL   H57230622   4.428   0.786   3.316 -1.0147  1.6721 -1.7687
   26MOL   H57330623   4.360   0.761   3.465  0.1655 -0.2579  0.3903
   26MOL   H57430624   4.239   0.694   3.200  0.9497 -1.0320  0.6881
   26MOL   H57530625   4.162   0.672   3.364 -0.3730  4.2394  0.7149
   26MOL   H57630626   4.346   0.504   3.419 -2.1549  0.2711 -0.0043
   26MOL   H57730627   4.432   0.549   3.272  1.0276  0.4942  2.5848
   26MOL   H57830628   4.239   0.470   3.140  0.7890  0.0440 -0.9365
   26MOL   H57930629   4.161   0.414   3.276 -0.1501 -0.6059 -0.6615
   26MOL   H58030630   4.432   0.323   3.191 -1.0590  3.5782  1.6921
   26MOL   H58130631   4.299   0.222   3.172 -1.3715  1.2073 -0.7382
   26MOL   H58230632   4.449   0.302   3.428 -3.0212  1.8136  2.0660
   26MOL   H58330633   4.294   0.224   3.441 -0.2681  0.2081 -0.3751
   26MOL   H58430634   4.473   0.033   3.462  0.5324  1.2379  1.1962
   26MOL   H58530635   4.382   0.035   3.327 -0.0804 -1.0738  1.7670
   26MOL   H58630636   4.792   0.177   3.199 -2.4088 -0.5398 -0.1837
   26MOL   H58730637   4.821   0.004   3.187 -0.1552 -0.1613 -0.0767
   26MOL   H58830638   4.967   0.035   3.386 -0.7633  0.2956 -0.1748
   26MOL   H58930639   4.937   0.203   3.386 -0.1193 -0.1088 -0.6482
   26MOL   H59030640   5.040   0.218   3.149 -1.2507 -0.3776  0.0777
   26MOL   H59130641   5.055   0.040   3.148  0.1336  0.7753 -1.3039
   26MOL   H59230642   5.207   0.054   3.342 -2.2096  0.2466 -0.1029
   26MOL   H59330643   5.203   0.229   3.334 -3.0184  1.8441 -1.2954
   26MOL   H59430644   5.298   0.056   3.093  2.6886 -0.3017  0.1159
   26MOL   H59530645   5.300   0.224   3.103 -0.6384 -0.7568 -1.9379
   26MOL   H59630646   5.472   0.194   3.300  0.9662  0.7156 -0.7436
   26MOL   H59730647   5.436   0.027   3.294  0.0450 -0.1383 -0.3760
   26MOL   H59830648   5.539   0.010   3.075 -0.4240 -0.0221  0.4462
   26MOL   H59930649   5.659   0.091   3.181  0.0555  2.0500  0.6910
   26MOL   H60030650   5.635   0.197   2.962  2.5054 -1.0478  2.1836
   26MOL   H60130651   5.471   0.238   2.990  0.3458  1.1758  0.8280
   26MOL   O60230652   5.693   0.330   3.217 -0.3318  0.0609  0.3151
   26MOL   C60330653   5.752   0.433   3.296  0.7829  0.4156 -0.6487
   26MOL   C60430654   5.831   0.368   3.410  0.4740 -0.4653  0.0845
   26MOL   C60530655   5.746   0.288   3.505 -0.4900 -0.4555  0.5389
   26MOL   C60630656   5.802   0.228   3.630  0.0280 -0.2276  0.2210
   26MOL   C60730657   5.698   0.134   3.689  0.9001 -0.0760 -0.1074
   26MOL   C60830658   5.744   0.084   3.824 -0.7563  0.1405 -0.1748
   26MOL   C60930659   5.651   7.726   3.876  0.2030  0.0373 -0.8778
   26MOL   C61030660   5.721   7.591   3.861  0.1596  0.5185  0.0234
   26MOL   C61130661   5.635   7.475   3.913 -0.6605 -0.2769  0.6958
   26MOL   C61230662   5.696   7.333   3.898  0.6678  0.3989  0.1293
   26MOL   O61330663   5.733   7.305   3.764  0.1089 -0.5184  0.6520
   26MOL   C61430664   5.836   7.222   3.734  0.2504  0.0580 -0.0403
   26MOL   O61530665   5.909   7.163   3.815  0.3404 -0.1925  0.4213
   26MOL   C61630666   5.862   7.206   3.584  0.4150  0.3119  0.2640
   26MOL   C61730667   5.908   7.063   3.543  0.0269  0.0399 -0.4611
   26MOL   C61830668   5.912   7.040   3.388  0.1288 -0.0183  0.1076
   26MOL   C61930669   5.988   6.910   3.343 -0.1624 -0.2088 -0.6991
   26MOL   C62030670   5.995   6.912   3.186 -0.4329  0.0399  0.0896
   26MOL   C62130671   6.100   6.820   3.124  0.2946  0.5034  0.2492
   26MOL   C62230672   6.117   6.825   2.968  0.2021 -1.0755 -0.2695
   26MOL   C62330673   6.157   6.963   2.918 -0.5680 -0.0956 -0.4513
   26MOL   C62430674   6.185   6.972   2.771  0.1933 -0.2562 -0.3851
   26MOL   O62530675   6.296   6.989   2.725 -0.3177  0.0567  1.0920
   26MOL   H62630676   5.811   0.501   3.234 -0.7900  1.0938 -1.4243
   26MOL   H62730677   5.672   0.491   3.341  0.3133 -2.0973  1.8993
   26MOL   H62830678   5.913   0.309   3.368  0.2411 -1.0940  0.4997
   26MOL   H62930679   5.879   0.437   3.479 -0.1935  1.3326 -1.2345
   26MOL   H63030680   5.662   0.353   3.529  0.4167  0.9763 -0.0588
   26MOL   H63130681   5.710   0.208   3.440  1.6451 -0.4026 -0.7559
   26MOL   H63230682   5.898   0.181   3.614  0.2857  0.4000 -0.0901
   26MOL   H63330683   5.821   0.307   3.703  1.1905  0.2251 -0.5563
   26MOL   H63430684   5.683   0.054   3.616  1.9371 -0.2985 -0.0947
   26MOL   H63530685   5.600   0.177   3.706  0.3419 -2.2464  2.4481
   26MOL   H63630686   5.741   0.165   3.897 -0.3334 -0.0566  0.0682
   26MOL   H63730687   5.841   0.033   3.818  0.2751  2.2463 -2.6308
   26MOL   H63830688   5.553   7.732   3.829 -0.7135  1.0727  1.0711
   26MOL   H63930689   5.645   7.748   3.983  1.9553  0.5244 -0.8506
   26MOL   H64030690   5.815   7.587   3.916 -0.5894  0.5809  1.3431
   26MOL   H64130691   5.727   7.577   3.753 -1.3291 -0.8338  0.0994
   26MOL   H64230692   5.604   7.480   4.018  1.8158  1.5784  1.3808
   26MOL   H64330693   5.538   7.468   3.863 -0.1079 -1.0722 -0.2664
   26MOL   H64430694   5.786   7.326   3.958 -0.4674  0.5405  1.8996
   26MOL   H64530695   5.626   7.253   3.923 -0.2767  0.1752 -2.9941
   26MOL   H64630696   5.923   7.291   3.555 -0.1134 -0.5190 -3.5471
   26MOL   H64730697   5.760   7.233   3.553  0.1346  0.0240  0.9259
   26MOL   H64830698   5.857   6.981   3.591 -0.4462 -1.1419 -2.8942
   26MOL   H64930699   6.012   7.057   3.576  0.6361  0.6955 -2.1527
   26MOL   H65030700   5.961   7.119   3.331  2.4174 -0.7746  0.9415
   26MOL   H65130701   5.813   7.051   3.345 -0.1741  0.4846  0.9266
   26MOL   H65230702   5.945   6.820   3.388  0.4272  0.6345  1.6248
   26MOL   H65330703   6.085   6.916   3.392 -1.0089  0.8406  0.8889
   26MOL   H65430704   5.896   6.891   3.146  0.8715  0.5703 -3.6711
   26MOL   H65530705   6.029   7.011   3.155  0.6535 -0.3293  0.0728
   26MOL   H65630706   6.195   6.830   3.175 -0.0694  0.7082  0.8940
   26MOL   H65730707   6.058   6.723   3.149 -1.6642  1.7113  1.7565
   26MOL   H65830708   6.027   6.797   2.912  0.0630 -1.0079 -0.0759
   26MOL   H65930709   6.182   6.744   2.932 -0.8058 -1.5389 -1.1070
   26MOL   H66030710   6.077   7.036   2.925  1.0751  1.8395 -1.2100
   26MOL   H66130711   6.241   7.007   2.971 -0.7254 -0.3081 -0.0243
   26MOL   O66230712   6.071   6.948   2.694 -0.2152  0.3528  0.7281
   26MOL   C66330713   6.093   6.949   2.552  0.8560  0.7740 -0.3736
   26MOL   C66430714   5.974   7.007   2.471 -0.0247 -0.1055  0.2264
   26MOL   C66530715   5.933   7.142   2.509  0.6069 -0.9276 -0.0307
   26MOL   C66630716   6.050   7.244   2.480  0.1590  0.5074  0.4017
   26MOL   C66730717   6.000   7.387   2.464 -0.1328 -0.1220 -0.4278
   26MOL   C66830718   6.115   7.494   2.459  0.4909 -0.3225 -0.4913
   26MOL   C66930719   6.054   7.632   2.452  1.2726  0.0380  0.5714
   26MOL   C67030720   6.009   7.683   2.586 -0.6897 -0.3298 -0.2200
   26MOL   C67130721   5.957   0.078   2.584 -0.0310  0.3983 -0.4765
   26MOL   C67230722   6.069   0.187   2.574 -0.3380 -0.3223  0.2015
   26MOL   O67330723   6.110   0.208   2.708 -0.4177  0.3553  0.5252
   26MOL   C67430724   6.242   0.228   2.735  0.1541 -0.3113 -0.4542
   26MOL   O67530725   6.330   0.222   2.649  0.2415 -0.2857 -0.2550
   26MOL   C67630726   6.273   0.261   2.877  0.0010 -0.1436  0.0347
   26MOL   C67730727   6.237   0.145   2.973 -0.9335  0.0448 -0.1930
   26MOL   C67830728   6.122   0.167   3.072  0.2390 -0.3925 -0.5975
   26MOL   C67930729   6.078   0.021   3.117  0.2064  0.6693 -0.0031
   26MOL   C68030730   5.972   7.757   3.223  0.5950 -0.2768  0.3403
   26MOL   C68130731   6.025   7.747   3.363 -0.1767  0.0247 -0.4265
   26MOL   C68230732   5.933   7.664   3.452 -0.6004 -0.9545  0.2355
   26MOL   C68330733   5.988   7.661   3.596 -0.1545  0.1882  1.0578
   26MOL   C68430734   6.088   7.549   3.628  0.2731  0.0179  1.2966
   26MOL   O68530735   6.102   7.451   3.554 -0.1965  0.3373  0.2158
   26MOL   H68630736   6.181   6.998   2.510 -0.5472  0.9362 -3.2541
   26MOL   H68730737   6.100   6.844   2.524  0.3133  0.5538  0.2918
   26MOL   H68830738   6.008   7.014   2.368 -1.1261 -0.0572 -0.1372
   26MOL   H68930739   5.887   6.941   2.478  1.1892 -1.7538  0.1041
   26MOL   H69030740   5.851   7.154   2.439 -0.2059 -0.0418  1.0494
   26MOL   H69130741   5.880   7.156   2.603  0.2283  3.2780 -0.7599
   26MOL   H69230742   6.113   7.237   2.568  0.1896 -0.6108  0.2887
   26MOL   H69330743   6.111   7.214   2.395 -0.7128  1.7658 -0.6917
   26MOL   H69430744   5.941   7.411   2.553 -0.9989  0.5242 -1.1608
   26MOL   H69530745   5.929   7.393   2.382  2.1339 -0.5000 -2.4433
   26MOL   H69630746   6.175   7.474   2.370  2.0445  1.5665  0.1086
   26MOL   H69730747   6.187   7.505   2.540 -0.5426  1.6467  0.1872
   26MOL   H69830748   5.968   7.621   2.386  0.0895  0.4588  2.0099
   26MOL   H69930749   6.110   7.713   2.406 -1.3537  0.6420 -1.6882
   26MOL   H70030750   6.091   7.683   2.657 -0.4703  0.0012 -0.4758
   26MOL   H70130751   5.930   7.618   2.624  0.5982 -1.5667  0.3776
   26MOL   H70230752   5.880   0.089   2.508 -0.3528  1.2879 -0.0281
   26MOL   H70330753   5.900   0.116   2.669  0.2753  0.6744 -0.3946
   26MOL   H70430754   6.144   0.153   2.502 -1.6251  0.2939 -1.4506
   26MOL   H70530755   6.031   0.284   2.543  0.8153  0.4391  1.1214
   26MOL   H70630756   6.249   0.365   2.898  0.2874 -0.1448  0.3807
   26MOL   H70730757   6.382   0.255   2.871 -0.0079  0.0634 -0.3199
   26MOL   H70830758   6.328   0.118   3.025  0.0341  1.8126 -0.9437
   26MOL   H70930759   6.221   0.055   2.915  0.1770  1.2388 -2.4025
   26MOL   H71030760   6.034   0.213   3.025 -0.3932  0.7524  1.6047
   26MOL   H71130761   6.169   0.227   3.150 -1.7093 -0.3363  0.5985
   26MOL   H71230762   6.164   7.720   3.152  0.1892  0.9341  0.4758
   26MOL   H71330763   6.035   7.728   3.030 -0.3692  0.2052  0.5443
   26MOL   H71430764   5.892   0.073   3.216  0.5500 -0.4490 -1.1686
   26MOL   H71530765   5.922   7.660   3.215 -0.7216  0.4994 -0.9563
   26MOL   H71630766   6.121   7.695   3.366 -0.4104 -0.4930 -1.6500
   26MOL   H71730767   6.051   0.093   3.389  0.8706 -0.0650 -1.1200
   26MOL   H71830768   5.931   7.565   3.406 -2.6312 -0.0019 -1.8412
   26MOL   H71930769   5.837   7.715   3.460 -0.2915 -0.2671 -0.3076
   26MOL   H72030770   6.018   0.004   3.627 -1.5880  0.5882  1.1661
   26MOL   H72130771   5.901   7.636   3.657  0.0476 -3.5274 -0.0062
   26MOL   O72230772   6.140   7.566   3.753  1.1618  0.0754  0.0257
   26MOL   C72330773   6.216   7.461   3.808 -0.1017 -0.1001  0.6160
   26MOL   C72430774   6.222   7.475   3.955 -0.3573 -0.1238  0.3590
   26MOL   C72530775   6.088   7.510   4.026 -0.5628 -0.0042  0.4980
   26MOL   C72630776   6.097   7.534   4.185 -0.9726  0.1770 -0.0034
   26MOL   C72730777   5.963   7.564   4.260  0.5346 -0.3409 -0.3092
   26MOL   C72830778   5.862   7.452   4.248 -0.2508  0.2780  0.1060
   26MOL   C72930779   5.748   7.463   4.349  0.0931  0.1759  0.1480
   26MOL   C73030780   5.640   7.573   4.303  0.1554  0.4074  0.0525
   26MOL   C73130781   5.562   7.614   4.427 -0.0655 -0.4959  0.3123
   26MOL   C73230782   5.468   7.733   4.418  0.6749  0.7205  0.5227
   26MOL   O73330783   5.340   7.704   4.356 -0.1114 -0.0034 -1.0342
   26MOL   C73430784   5.335   7.718   4.228  0.3927 -0.7498 -0.8591
   26MOL   O73530785   5.433   0.003   4.159  0.1638  0.2130  0.3226
   26MOL   C73630786   5.197   7.696   4.162  0.3349 -1.0728  0.1193
   26MOL   C73730787   5.133   7.559   4.174 -0.6131 -0.4792 -0.3798
   26MOL   C73830788   5.044   7.544   4.296  0.6063  0.3132 -0.2038
   26MOL   C73930789   4.959   7.419   4.294 -0.3426  0.2485  0.1962
   26MOL   C74030790   5.031   7.282   4.286  0.2148 -0.2477 -0.0576
   26MOL   C74130791   4.935   7.166   4.246  0.6858 -0.0495  0.2387
   26MOL   C74230792   4.981   7.028   4.237 -0.5410 -0.1133  0.1224
   26MOL   C74330793   5.071   6.992   4.117 -0.3617  0.1260  0.2156
   26MOL   C74430794   5.084   6.839   4.107 -0.0495 -0.3916 -0.0655
   26MOL   O74530795   5.045   6.766   4.197  0.0076  0.5897  0.0791
   26MOL   H74630796   6.165   7.366   3.787  0.6650 -0.7990  1.8505
   26MOL   H74730797   6.316   7.458   3.765 -1.2279  0.8697 -2.1943
   26MOL   H74830798   6.266   7.386   4.000 -0.5560 -0.5424 -0.2710
   26MOL   H74930799   6.298   7.553   3.964 -0.8504  0.2097  1.7273
   26MOL   H75030800   6.051   7.599   3.976  2.7330  1.2259  0.1549
   26MOL   H75130801   6.008   7.435   4.019 -0.4748  0.0811 -1.8137
   26MOL   H75230802   6.151   7.456   4.238  1.6346  2.3628  0.6571
   26MOL   H75330803   6.154   7.626   4.195  0.2397 -0.3117 -2.0319
   26MOL   H75430804   5.924   7.650   4.205 -1.9892 -1.2334  0.0181
   26MOL   H75530805   5.982   7.584   4.365 -2.7601 -0.7275  0.4259
   26MOL   H75630806   5.913   7.355   4.255 -0.2568  0.3514  1.2495
   26MOL   H75730807   5.819   7.444   4.149 -0.9983  1.3588  0.3425
   26MOL   H75830808   5.780   7.487   4.450 -1.8814  2.6159  0.2357
   26MOL   H75930809   5.701   7.366   4.362  1.1656 -0.2173  1.1857
   26MOL   H76030810   5.559   7.543   4.237  0.1419 -1.7772  0.9965
   26MOL   H76130811   5.688   7.661   4.261 -1.6196  1.4769  0.2130
   26MOL   H76230812   5.493   7.531   4.449 -1.2481 -0.0397 -1.5496
   26MOL   H76330813   5.619   7.638   4.516  0.6566 -0.1825 -0.2282
   26MOL   H76430814   5.450   0.007   4.521 -0.7562 -0.0045  0.5086
   26MOL   H76530815   5.527   0.047   4.360  0.0888 -0.2030 -1.2546
   26MOL   H76630816   5.211   7.716   4.056 -1.7557 -0.1126 -0.0084
   26MOL   H76730817   5.133   0.014   4.209 -1.9631 -1.1707 -2.6641
   26MOL   H76830818   5.203   7.477   4.191 -0.4821 -0.1345  0.8064
   26MOL   H76930819   5.083   7.534   4.081  1.2119 -0.2694 -1.4292
   26MOL   H77030820   4.978   7.631   4.307  1.0782  0.5545  0.7546
   26MOL   H77130821   5.102   7.551   4.388 -2.2961 -0.7650  1.7981
   26MOL   H77230822   4.890   7.414   4.210  0.3229 -0.2340 -0.3304
   26MOL   H77330823   4.902   7.419   4.387  2.0482  1.3486  1.7144
   26MOL   H77430824   5.104   7.286   4.205 -1.2591  0.2704 -1.3828
   26MOL   H77530825   5.094   7.264   4.373  0.2349  1.3147  0.2615
   26MOL   H77630826   4.849   7.169   4.313 -0.9930 -1.6603 -1.7505
   26MOL   H77730827   4.872   7.183   4.158 -0.0564 -0.8997  0.5971
   26MOL   H77830828   4.890   6.969   4.230 -0.7189  0.2893 -1.0913
   26MOL   H77930829   5.029   6.997   4.330 -0.4376  3.2997  1.2689
   26MOL   H78030830   5.025   7.022   4.023  1.7081  2.4220 -0.1264
   26MOL   H78130831   5.172   7.032   4.128 -0.1068  0.0567 -1.7209
   26MOL   O78230832   5.148   6.813   3.995 -0.7396 -0.1176  0.6037
   26MOL   C78330833   5.178   6.676   3.966 -0.0581  0.1235 -0.3433
   26MOL   C78430834   5.313   6.625   3.979 -0.3433  1.4357 -0.0180
   26MOL   C78530835   5.372   6.646   4.121  0.4799 -0.1625 -0.3686
   26MOL   C78630836   5.521   6.622   4.133 -0.3908 -0.0728  0.1019
   26MOL   C78730837   5.583   6.477   4.132 -0.0285 -0.0165  0.7976
   26MOL   C78830838   5.729   6.466   4.173 -0.1623  0.0936 -0.2164
   26MOL   C78930839   5.776   6.318   4.179 -0.5694  0.3261 -0.4234
   26MOL   C79030840   5.924   6.308   4.130 -0.0106  0.1123 -0.6574
   26MOL   C79130841   5.967   6.170   4.106 -0.2921 -0.6283  0.5234
   26MOL   C79230842   6.095   6.176   4.022 -0.0347 -0.4786  0.2023
   26MOL   O79330843   6.194   6.269   4.082  0.4337 -1.1910  0.2149
   26MOL   C79430844   6.251   6.364   4.011  0.0324 -0.2304  0.6434
   26MOL   O79530845   6.266   6.358   3.888  0.2984 -0.3327 -0.1485
   26MOL   C79630846   6.316   6.474   4.097 -0.4698  0.3678 -0.6004
   26MOL   C79730847   6.219   6.561   4.176  0.5691 -0.0765 -0.5838
   26MOL   C79830848   6.117   6.641   4.093  0.0085 -0.9281  0.3119
   26MOL   C79930849   6.009   6.704   4.182 -0.5396 -0.2117  0.7001
   26MOL   C80030850   5.908   6.795   4.107  0.0046 -0.7088 -0.6391
   26MOL   C80130851   5.817   6.877   4.200  0.9684 -0.6910 -0.1628
   26MOL   C80230852   5.714   6.953   4.117 -0.4037  0.3845  0.1486
   26MOL   C80330853   5.635   7.061   4.185  0.2067  0.1199 -0.0227
   26MOL   C80430854   5.505   7.005   4.235 -0.0047 -0.1470 -0.5016
   26MOL   O80530855   5.405   6.997   4.166  0.4311 -0.6661 -0.2255
   26MOL   H80630856   5.105   6.612   4.015 -0.5735  1.0972  0.1710
   26MOL   H80730857   5.155   6.671   3.859  0.8832  2.4080 -0.6831
   26MOL   H80830858   5.304   6.521   3.947  3.4907  0.7164  1.0182
   26MOL   H80930859   5.391   6.662   3.913  1.9378 -2.7192  0.1973
   26MOL   H81030860   5.346   6.735   4.178 -1.3895 -0.8318 -0.1385
   26MOL   H81130861   5.322   6.564   4.172  0.3802 -0.9399 -1.6851
   26MOL   H81230862   5.568   6.685   4.057  1.1282 -0.2667  0.8500
   26MOL   H81330863   5.547   6.674   4.226 -0.6265  1.3793 -0.6325
   26MOL   H81430864   5.568   6.424   4.037  0.7198  1.6907 -0.3067
   26MOL   H81530865   5.528   6.426   4.211  0.4169 -0.7910  0.6133
   26MOL   H81630866   5.740   6.518   4.268 -1.9939 -0.5346  0.3590
   26MOL   H81730867   5.782   6.534   4.106 -0.6446  0.3412 -0.3419
   26MOL   H81830868   5.715   6.266   4.105  0.4061  0.6449 -1.4608
   26MOL   H81930869   5.763   6.275   4.279  3.0001  0.0729 -0.0170
   26MOL   H82030870   5.994   6.361   4.194 -0.0869  0.6697 -1.0346
   26MOL   H82130871   5.923   6.370   4.040  0.6565 -0.4286 -1.0421
   26MOL   H82230872   5.994   6.112   4.194 -0.3804  1.9444  2.3173
   26MOL   H82330873   5.888   6.127   4.044 -0.1111  0.5991 -0.6002
   26MOL   H82430874   6.138   6.081   3.991 -0.9963 -0.3609 -1.5881
   26MOL   H82530875   6.075   6.222   3.925 -0.3050 -0.1422  0.4134
   26MOL   H82630876   6.380   6.532   4.030  0.2432  2.0282  1.4733
   26MOL   H82730877   6.389   6.430   4.165  0.2573  1.2648 -0.7966
   26MOL   H82830878   6.282   6.629   4.232  0.1488  1.6886 -2.2074
   26MOL   H82930879   6.177   6.492   4.250 -0.7339  0.6969 -0.5914
   26MOL   H83030880   6.075   6.577   4.016  1.0925 -1.9441  0.5431
   26MOL   H83130881   6.168   6.722   4.040 -1.9230  0.7606  0.9870
   26MOL   H83230882   6.058   6.776   4.247 -1.2444  0.2860  0.6847
   26MOL   H83330883   5.970   6.625   4.246  2.5881 -1.6469  0.9153
   26MOL   H83430884   5.967   6.864   4.047 -0.4730 -0.8428 -1.2633
   26MOL   H83530885   5.856   6.733   4.033 -0.5996  0.2708 -1.0430
   26MOL   H83630886   5.761   6.813   4.269 -1.6789  0.4026 -1.2622
   26MOL   H83730887   5.869   6.946   4.266  0.5684 -2.2531  1.8490
   26MOL   H83830888   5.653   6.885   4.057 -0.4527 -1.0255  1.7682
   26MOL   H83930889   5.769   7.011   4.043 -0.6442  0.5499  0.0978
   26MOL   H84030890   5.700   7.115   4.254 -0.3104  0.6654  0.0413
   26MOL   H84130891   5.604   7.139   4.116  1.8853  0.7467 -0.0934
   26MOL   O84230892   5.516   6.961   4.366 -0.2523  0.0625  0.3364
   26MOL   C84330893   5.402   6.947   4.448  0.2412  0.4927 -0.3394
   26MOL   C84430894   5.425   7.000   4.592 -0.2246 -0.3153 -0.0443
   26MOL   C84530895   5.293   7.019   4.666 -0.0882 -0.2219 -0.1832
   26MOL   C84630896   5.196   7.115   4.603  0.5970  0.2570  0.1034
   26MOL   C84730897   5.080   7.137   4.705  0.1194 -0.3218  0.3223
   26MOL   C84830898   4.964   7.220   4.636  0.4485 -0.6525 -0.5873
   26MOL   C84930899   4.843   7.246   4.728 -0.2057 -0.8501  0.7809
   26MOL   C85030900   4.736   7.332   4.660 -0.5009 -0.0512 -0.2282
   26MOL   C85130901   4.614   7.361   4.753  0.3111 -0.7986  0.3064
   26MOL   C85230902   4.520   7.450   4.680 -0.7275  0.1443  0.2089
   26MOL   O85330903   4.584   7.580   4.671 -0.1268  0.4198 -0.2738
   26MOL   C85430904   4.581   7.657   4.788  0.5006  0.1596  0.0258
   26MOL   O85530905   4.510   7.631   4.883 -0.4417 -0.1451 -0.0544
   26MOL   C85630906   4.681   0.014   4.789 -0.8986 -0.0149  0.4164
   26MOL   C85730907   4.633   0.146   4.853  0.1597  0.5001 -0.3912
   26MOL   C85830908   4.728   0.267   4.834  0.1271 -0.2256  0.1152
   26MOL   C85930909   4.699   0.335   4.695 -0.8816  0.1060  0.3940
   26MOL   C86030910   4.771   0.472   4.688  0.1480 -0.0188 -1.1002
   26MOL   C86130911   4.743   0.529   4.550 -0.1073  0.3264 -0.6252
   26MOL   C86230912   4.813   0.666   4.544  0.0806  0.0915 -0.7857
   26MOL   C86330913   4.752   0.760   4.441  0.3082 -0.2901  0.2508
   26MOL   C86430914   4.769   0.715   4.299 -0.0306 -0.5068 -0.8142
   26MOL   O86530915   4.670   0.702   4.227  0.5392 -0.3715 -0.7473
   26MOL   H86630916   5.319   7.002   4.403 -1.5717 -2.1758 -0.4069
   26MOL   H86730917   5.370   6.843   4.449 -0.3701  0.6442  2.8293
   26MOL   H86830918   5.477   6.933   4.661  0.7441  0.7236  0.2507
   26MOL   H86930919   5.477   7.095   4.598  0.2045 -0.4340 -1.7502
   26MOL   H87030920   5.248   6.923   4.691  0.6176 -0.6290 -0.4593
   26MOL   H87130921   5.323   7.056   4.764  1.0235 -0.4028 -0.4513
   26MOL   H87230922   5.252   7.207   4.585  0.7533  0.2452  0.5335
   26MOL   H87330923   5.151   7.071   4.514  1.7311 -3.2604  1.1960
   26MOL   H87430924   5.116   7.186   4.796  0.8471  0.7846 -0.5566
   26MOL   H87530925   5.045   7.042   4.746  0.2289 -0.0360  1.0923
   26MOL   H87630926   4.929   7.171   4.545 -0.3857  1.0272 -1.1818
   26MOL   H87730927   5.008   7.316   4.609 -2.7027  0.3975 -2.1846
   26MOL   H87830928   4.880   7.288   4.822  2.0895  3.1060 -1.7233
   26MOL   H87930929   4.798   7.148   4.740  1.6982 -1.7758  0.5166
   26MOL   H88030930   4.721   7.272   4.570  0.7741 -2.8794  1.3576
   26MOL   H88130931   4.781   7.424   4.623 -1.0539  0.6646  0.8483
   26MOL   H88230932   4.554   7.273   4.780 -0.6583 -0.1337  0.3298
   26MOL   H88330933   4.650   7.403   4.847  2.9216 -0.3308 -0.8508
   26MOL   H88430934   4.507   7.403   4.583 -0.1936 -0.2646  0.3360
   26MOL   H88530935   4.422   7.461   4.727 -1.1169  1.2302 -0.8454
   26MOL   H88630936   4.715   0.041   4.689 -1.7138  1.1024  0.4225
   26MOL   H88730937   4.770   7.736   4.842 -1.1627 -0.2359  0.7187
   26MOL   H88830938   4.616   0.128   4.959  2.8801  0.5142  0.0832
   26MOL   H88930939   4.533   0.168   4.814 -1.6831 -1.4937  2.9039
   26MOL   H89030940   4.828   0.222   4.839  0.8165  0.5848 -3.9666
   26MOL   H89130941   4.706   0.338   4.913 -4.1063  0.1293 -1.2527
   26MOL   H89230942   4.593   0.349   4.674 -0.9874  1.4786  1.7516
   26MOL   H89330943   4.736   0.276   4.611 -2.8569 -0.4707 -0.0859
   26MOL   H89430944   4.736   0.531   4.773 -1.4636  0.4614 -2.0728
   26MOL   H89530945   4.877   0.450   4.700 -0.5057 -2.0056  1.5629
   26MOL   H89630946   4.763   0.461   4.467 -0.6318  0.0616 -0.5356
   26MOL   H89730947   4.636   0.543   4.537  0.2315  1.2238 -2.5318
   26MOL   H89830948   4.920   0.648   4.529  0.1000 -1.6444  1.1950
   26MOL   H89930949   4.814   0.712   4.644  0.3414  2.1405 -1.6972
   26MOL   H90030950   4.644   0.756   4.454 -0.1760  1.2684 -2.7334
   26MOL   H90130951   4.791   0.862   4.451  0.1073  0.0305 -1.9982
   26MOL   O90230952   4.887   0.683   4.269 -0.1828 -0.1445  0.4655
   26MOL   C90330953   4.912   0.648   4.133  0.0245  0.2113  0.4672
   26MOL   C90430954   4.904   0.493   4.111  0.5467  0.1774  0.2774
   26MOL   C90530955   5.006   0.405   4.191 -0.4907  0.4087  0.8679
   26MOL   C90630956   5.147   0.411   4.133  0.1605  1.3771 -0.1959
   26MOL   C90730957   5.250   0.398   4.243 -0.3852  0.1224  0.0234
   26MOL   C90830958   5.399   0.412   4.204 -0.0848 -0.1304 -0.1415
   26MOL   C90930959   5.432   0.552   4.153  0.3781 -0.2468  0.6066
   26MOL   C91030960   5.582   0.587   4.133  0.1078  0.0319 -0.4823
   26MOL   C91130961   5.649   0.505   4.022  0.0237 -1.0118  0.0791
   26MOL   C91230962   5.790   0.560   3.982 -0.4640 -0.1120 -0.0514
   26MOL   O91330963   5.782   0.679   3.908 -0.2731  0.3185  0.0418
   26MOL   C91430964   5.896   0.735   3.860  0.1426  0.1610  0.4366
   26MOL   O91530965   6.001   0.679   3.851  0.0080 -0.2745 -0.2851
   26MOL   C91630966   5.883   0.882   3.823  0.2339  0.2518  0.5839
   26MOL   C91730967   5.770   0.907   3.723 -0.0293 -0.4722 -0.3958
   26MOL   C91830968   5.807   0.892   3.575 -0.8050  0.2449  0.1012
   26MOL   C91930969   5.724   0.967   3.476  0.2062 -0.0456 -0.9058
   26MOL   C92030970   5.765   0.935   3.341 -0.8758 -0.2475 -0.0779
   26MOL   C92130971   5.693   1.029   3.245 -0.5281  0.1526 -0.2419
   26MOL   C92230972   5.722   1.016   3.098  0.5074 -0.2290 -0.6910
   26MOL   C92330973   5.708   1.145   3.015  0.1680 -0.0829  0.2733
   26MOL   C92430974   5.563   1.209   3.012 -0.1746 -0.1034  0.6088
   26MOL   O92530975   5.482   1.199   3.109 -0.3897 -0.0233 -0.4841
   26MOL   H92630976   4.848   0.686   4.054 -0.5420  0.5397  1.0829
   26MOL   H92730977   5.011   0.687   4.107 -0.1716  0.6321  0.3507
   26MOL   H92830978   4.800   0.465   4.130  0.6874 -0.8805 -0.4560
   26MOL   H92930979   4.918   0.471   4.005  0.8019 -2.2305  0.7981
   26MOL   H93030980   4.999   0.435   4.296 -1.2635 -0.3649  1.0392
   26MOL   H93130981   4.973   0.301   4.189 -1.5267  0.7447 -3.0559
   26MOL   H93230982   5.166   0.327   4.066 -0.8716  0.8302  0.1901
   26MOL   H93330983   5.154   0.504   4.076  0.1253  1.5135  0.0229
   26MOL   H93430984   5.244   0.297   4.283 -2.4194  0.4554  0.5857
   26MOL   H93530985   5.232   0.465   4.327 -2.6868 -0.2485 -0.1494
   26MOL   H93630986   5.436   0.345   4.127  1.8304  3.1919 -2.2668
   26MOL   H93730987   5.455   0.390   4.295  0.0529 -0.5576 -0.3304
   26MOL   H93830988   5.385   0.620   4.225  1.2752 -0.7620  1.6914
   26MOL   H93930989   5.373   0.561   4.062  0.1405 -0.1141  0.7738
   26MOL   H94030990   5.634   0.580   4.228 -0.4294  2.3017 -0.0093
   26MOL   H94130991   5.578   0.691   4.100 -2.3239  0.1830  0.1931
   26MOL   H94230992   5.670   0.404   4.058 -0.3084 -1.4813 -1.0168
   26MOL   H94330993   5.579   0.490   3.939  2.3329 -1.5973 -1.8149
   26MOL   H94430994   5.834   0.581   4.079 -0.2848  0.6208 -0.2913
   26MOL   H94530995   5.856   0.485   3.940 -1.7401 -1.0190 -0.4777
   26MOL   H94630996   5.975   0.918   3.776 -1.7147  2.0690 -1.8994
   26MOL   H94730997   5.860   0.925   3.921 -1.8301 -1.4098  0.8656
   26MOL   H94830998   5.728   1.007   3.739 -0.2188 -0.2206 -2.3717
   26MOL   H94930999   5.681   0.850   3.747  0.6310 -2.8372 -3.2481
   26MOL   H95031000   5.811   0.785   3.553 -1.7780  0.0014  1.0824
   26MOL   H95131001   5.903   0.939   3.555  0.3423 -2.3230 -0.5849
   26MOL   H95231002   5.722   1.075   3.486 -1.7591 -0.2477  1.4671
   26MOL   H95331003   5.622   0.929   3.483  0.1073  0.3110 -0.3429
   26MOL   H95431004   5.873   0.950   3.331 -0.8088 -1.7557 -1.9520
   26MOL   H95531005   5.746   0.833   3.308 -0.0413 -0.9602  1.6217
   26MOL   H95631006   5.588   1.001   3.253 -1.0829  2.0499 -0.5441
   26MOL   H95731007   5.697   1.135   3.271  0.5768  0.4701 -1.6611
   26MOL   H95831008   5.680   0.932   3.043 -1.3272 -0.8586  1.5979
   26MOL   H95931009   5.827   0.986   3.092  0.8361  1.2522 -3.3728
   26MOL   H96031010   5.775   1.219   3.058 -0.0465  0.2980 -0.0431
   26MOL   H96131011   5.734   1.128   2.910  0.6957  0.5845  0.2950
   26MOL   O96231012   5.521   1.243   2.888 -0.7275 -0.6331 -0.4815
   26MOL   C96331013   5.385   1.279   2.874 -0.0046 -0.0335  0.1808
   26MOL   C96431014   5.373   1.435   2.863 -0.0238 -0.6560  0.4040
   26MOL   C96531015   5.427   1.490   2.733  0.2002  0.0653  0.1239
   26MOL   C96631016   5.388   1.640   2.719  0.4889 -0.4390  0.4792
   26MOL   C96731017   5.422   1.692   2.580  0.0711  0.2087  0.3243
   26MOL   C96831018   5.367   1.834   2.556  0.0480  0.3061  0.2764
   26MOL   C96931019   5.472   1.945   2.550  0.1966  0.3427 -0.3315
   26MOL   C97031020   5.411   2.074   2.510 -0.0298  0.1700  1.0772
   26MOL   C97131021   5.513   2.195   2.504  0.2506  0.1765 -0.1229
   26MOL   C97231022   5.444   2.331   2.488  0.9061  0.1015 -0.5275
   26MOL   O97331023   5.367   2.356   2.370 -0.1541  0.3433  0.2421
   26MOL   C97431024   5.288   2.462   2.356  0.7342 -0.0905 -0.2000
   26MOL   O97531025   5.266   2.546   2.440  0.2090 -0.2403 -0.2686
   26MOL   C97631026   5.225   2.475   2.217  0.2430 -0.4905  0.3632
   26MOL   C97731027   5.093   2.398   2.208  0.2416  0.1259 -0.5996
   26MOL   C97831028   5.089   2.246   2.219  0.0715  0.2794 -0.4237
   26MOL   C97931029   4.944   2.191   2.217  0.1959 -0.0347  0.2418
   26MOL   C98031030   4.914   2.060   2.289  0.3036 -0.3103  0.1924
   26MOL   C98131031   5.019   1.950   2.263 -0.4986  0.6075 -0.5233
   26MOL   C98231032   4.997   1.812   2.325  0.1520  0.3746  0.0265
   26MOL   C98331033   5.095   1.703   2.286 -0.8981  0.5886  0.1926
   26MOL   C98431034   5.103   1.671   2.138  0.1153  0.4114  0.1746
   26MOL   O98531035   5.211   1.669   2.087 -0.2517  0.1018 -0.1743
   26MOL   H98631036   5.357   1.239   2.777  0.4100 -1.7272  0.7317
   26MOL   H98731037   5.322   1.244   2.956  0.7148 -1.3360  0.2066
   26MOL   H98831038   5.266   1.457   2.864  0.3871  1.6059 -1.8678
   26MOL   H98931039   5.422   1.485   2.947 -1.0432  3.4179 -1.2976
   26MOL   H99031040   5.535   1.486   2.723 -0.0108 -0.0138 -2.4264
   26MOL   H99131041   5.388   1.427   2.653  1.3743 -1.0893  0.4414
   26MOL   H99231042   5.280   1.646   2.723  0.2143 -3.3656 -0.7237
   26MOL   H99331043   5.426   1.699   2.801  2.2084 -0.2676 -0.4121
   26MOL   H99431044   5.368   1.639   2.502 -1.2031  0.7944  0.8042
   26MOL   H99531045   5.530   1.684   2.563  0.0074 -4.8048  1.4637
   26MOL   H99631046   5.300   1.848   2.641 -1.4033 -1.7740 -0.4807
   26MOL   H99731047   5.303   1.825   2.469  3.0437  0.0516 -1.9715
   26MOL   H99831048   5.544   1.917   2.474 -0.5445 -2.1008 -0.1824
   26MOL   H99931049   5.529   1.964   2.641 -0.9668  2.6764 -0.0547
   26MOL     H131050   5.323   2.100   2.570 -0.6166  0.3692  0.1384
   26MOL     H231051   5.369   2.059   2.410 -0.6088  1.5123  1.1116
   26MOL     H331052   5.571   2.194   2.597  0.2496  1.3626 -0.0987
   26MOL     H431053   5.584   2.177   2.423 -1.0888  0.2241 -1.3122
   26MOL     H531054   5.376   2.335   2.573  2.1271  3.2402  0.3774
   26MOL     H631055   5.523   2.407   2.490  0.4441  0.6100 -1.4229
   26MOL     H731056   5.305   2.426   2.162  1.4125  0.0708  1.5309
   26MOL     H831057   5.213   2.576   2.179 -0.5998 -0.5617  0.4298
   26MOL     H931058   5.037   2.427   2.120  0.1635 -1.8521 -1.2040
   26MOL    H1031059   5.028   2.442   2.284 -0.6026 -1.5028 -0.3654
   26MOL    H1131060   5.150   2.224   2.307 -0.0964  0.8424 -0.1584
   26MOL    H1231061   5.130   2.203   2.128  0.7689  0.1063 -0.0331
   26MOL    H1331062   4.912   2.196   2.113  0.5554  3.9645  0.2463
   26MOL    H1431063   4.879   2.265   2.264 -2.1013 -0.3928 -2.2657
   26MOL    H1531064   4.907   2.083   2.395 -1.5067  1.6772 -0.3070
   26MOL    H1631065   4.816   2.016   2.268  0.7546 -0.2448 -2.2283
   26MOL    H1731066   5.033   1.925   2.158  2.0032 -2.1129  0.3691
   26MOL    H1831067   5.109   1.993   2.307 -0.3434  1.7377 -1.9462
   26MOL    H1931068   4.891   1.791   2.309  0.2983 -0.2331 -0.1704
   26MOL    H2031069   5.005   1.813   2.434 -2.1637 -1.0328  0.2420
   26MOL    H2131070   5.192   1.738   2.320 -0.0800 -0.8277 -0.6285
   26MOL    H2231071   5.071   1.613   2.342  0.0239 -0.3726 -0.9179
   26MOL    O2331072   4.976   1.645   2.087  0.3087 -0.4040 -0.0095
   26MOL    C2431073   4.973   1.589   1.959 -0.0163  0.7966 -0.5047
   26MOL    C2531074   4.952   1.440   1.968 -0.5479  0.1613 -0.5772
   26MOL    C2631075   4.939   1.376   1.827  0.5919  0.3145  0.9075
   26MOL    C2731076   4.930   1.226   1.823  0.0196  0.3268  0.2082
   26MOL    C2831077   4.888   1.164   1.688  0.2630 -0.5992  0.4546
   26MOL    C2931078   5.003   1.143   1.592 -0.1200 -0.1138 -0.0623
   26MOL    C3031079   4.968   1.093   1.449  0.1250 -0.7978 -0.1218
   26MOL    C3131080   5.093   1.024   1.395  0.0334  0.1625  0.1337
   26MOL    C3231081   5.063   0.947   1.269 -0.8369  0.0365  0.7282
   26MOL    C3331082   5.139   0.818   1.267  0.2819 -0.4077 -0.1041
   26MOL    O3431083   5.149   0.769   1.137 -0.0233 -0.4011 -0.1882
   26MOL    C3531084   5.233   0.667   1.110 -0.1242  0.2219  0.2861
   26MOL    O3631085   5.297   0.606   1.193  0.4991  0.5368  0.4439
   26MOL    C3731086   5.237   0.634   0.963  0.2635  0.3381  0.3286
   26MOL    C3831087   5.318   0.504   0.940  0.9501  0.2118  0.4760
   26MOL    C3931088   5.304   0.458   0.794 -0.0086  0.3062  0.3891
   26MOL    C4031089   5.334   0.309   0.769  0.2810  0.5321  0.4080
   26MOL    C4131090   5.310   0.272   0.617  0.2272 -0.6035  0.5956
   26MOL    C4231091   5.436   0.293   0.528  0.1854 -0.4847 -0.3601
   26MOL    C4331092   5.406   0.260   0.385  0.3332  0.3373 -0.2090
   26MOL    C4431093   5.520   0.278   0.279  0.2811  0.1000 -0.3301
   26MOL    C4531094   5.660   0.220   0.321  0.4328  0.9194 -0.4457
   26MOL    O4631095   5.690   0.104   0.297  0.1342 -0.1694 -0.4452
   26MOL    H4731096   4.905   1.634   1.886 -0.1631  1.3414 -0.0324
   26MOL    H4831097   5.071   1.606   1.915 -0.4729  0.4786 -1.6747
   26MOL    H4931098   5.034   1.399   2.028 -0.7222  0.1530 -0.3430
   26MOL    H5031099   4.860   1.421   2.023 -1.7688 -1.1623 -3.0183
   26MOL    H5131100   4.853   1.426   1.782 -0.6606 -0.5210  2.3707
   26MOL    H5231101   5.023   1.414   1.769  0.9087 -0.1767  1.0425
   26MOL    H5331102   5.026   1.192   1.860 -0.0641 -0.2705 -0.1065
   26MOL    H5431103   4.854   1.197   1.896 -0.0154 -1.1552 -0.3935
   26MOL    H5531104   4.823   1.239   1.642  0.1607 -0.8511  0.1820
   26MOL    H5631105   4.840   1.068   1.707  0.2475 -0.4300  1.2884
   26MOL    H5731106   5.083   1.076   1.625 -0.2294 -0.6210 -0.8251
   26MOL    H5831107   5.051   1.240   1.580  1.9613 -0.8395  1.9730
   26MOL    H5931108   4.947   1.165   1.370 -0.0520 -1.5610 -0.7726
   26MOL    H6031109   4.882   1.027   1.449 -0.3885 -0.1352  1.1286
   26MOL    H6131110   5.122   0.954   1.474 -1.6245 -1.5351 -0.7118
   26MOL    H6231111   5.171   1.099   1.387  1.6773 -1.1408  3.0679
   26MOL    H6331112   4.960   0.911   1.274 -0.1583 -2.7485 -3.3636
   26MOL    H6431113   5.070   1.011   1.181 -1.1657 -1.7915 -0.6566
   26MOL    H6531114   5.237   0.843   1.308 -0.8964  1.3341  1.7434
   26MOL    H6631115   5.090   0.734   1.316  1.6082  0.5210  2.9183
   26MOL    H6731116   5.282   0.717   0.910 -2.1075  0.9636 -0.7489
   26MOL    H6831117   5.136   0.617   0.927  0.8480 -1.5810 -0.5183
   26MOL    H6931118   5.281   0.415   0.990 -0.4243 -0.8703 -2.3381
   26MOL    H7031119   5.422   0.514   0.971  0.9719  1.5744 -0.0150
   26MOL    H7131120   5.380   0.517   0.741  1.2590 -1.5835  0.0586
   26MOL    H7231121   5.208   0.488   0.754 -0.1616 -1.0136 -0.2606
   26MOL    H7331122   5.276   0.243   0.834  0.7856  0.1059  0.4258
   26MOL    H7431123   5.438   0.292   0.794  0.4190  0.0580 -0.4785
   26MOL    H7531124   5.275   0.170   0.598 -1.2017  0.1971 -1.1448
   26MOL    H7631125   5.224   0.333   0.589  0.8854  0.3007  0.5225
   26MOL    H7731126   5.471   0.396   0.519 -1.9574  0.1997 -1.1507
   26MOL    H7831127   5.518   0.245   0.580  1.1558  0.5910 -0.8586
   26MOL    H7931128   5.324   0.322   0.350  0.5246  0.7075 -0.0004
   26MOL    H8031129   5.377   0.155   0.380  1.4285 -0.0622  1.2084
   26MOL    H8131130   5.479   0.222   0.194  1.7502 -1.9892  0.2853
   26MOL    H8231131   5.552   0.380   0.261 -1.2612  0.8439  1.0660
   26MOL    O8331132   5.729   0.311   0.394 -0.1746 -0.2071 -0.2087
   26MOL    C8431133   5.862   0.268   0.436  0.1970  0.3110  0.1701
   26MOL    C8531134   5.933   0.371   0.522  0.2707  0.1145 -0.2605
   26MOL    C8631135   5.879   0.365   0.666  0.0694 -0.2396  0.3235
   26MOL    C8731136   5.923   0.483   0.759  0.2076 -0.6321  0.3380
   26MOL    C8831137   5.821   0.599   0.743 -0.2801 -0.9266  0.2028
   26MOL    C8931138   5.860   0.723   0.818 -0.7306  0.0871 -0.2701
   26MOL    C9031139   5.758   0.842   0.791 -0.9021  0.5197 -0.2856
   26MOL    C9131140   5.640   0.833   0.892  0.3146  0.0339 -0.8976
   26MOL    C9231141   5.676   0.904   1.026  0.2550 -0.1767  0.0831
   26MOL    C9331142   5.605   0.845   1.153 -0.2659  0.3284  0.6311
   26MOL    O9431143   5.629   0.705   1.168 -0.0831 -0.3624  0.1477
   26MOL    C9531144   5.735   0.661   1.224 -0.1236 -0.4143 -0.3621
   26MOL    O9631145   5.819   0.732   1.273 -0.5450 -0.0816 -0.2659
   26MOL    C9731146   5.760   0.512   1.216  0.1576 -0.4743 -0.8439
   26MOL    C9831147   5.692   0.445   1.097 -0.1655 -0.4171 -0.3043
   26MOL    C9931148   5.723   0.298   1.088 -0.0511 -0.0858  0.0721
   26MOL   C10031149   5.629   0.237   0.984 -0.3540  0.0274 -0.6638
   26MOL   C10131150   5.661   0.089   0.972  0.6124  0.3250 -0.3492
   26MOL   C10231151   5.586   7.742   1.063  0.1621 -0.2999 -0.2212
   26MOL   C10331152   5.440   7.721   1.024 -0.4666  0.4703  0.3799
   26MOL   C10431153   5.356   7.611   1.108  0.2730 -0.0240  0.0994
   26MOL   C10531154   5.417   7.469   1.128  0.2297 -0.3758 -0.3820
   26MOL   O10631155   5.486   7.435   1.222  0.1733  0.0871 -0.2056
   26MOL   H10731156   5.860   0.177   0.496  1.2747 -0.9311 -1.6187
   26MOL   H10831157   5.927   0.253   0.350 -0.5674 -0.0362 -0.3627
   26MOL   H10931158   6.036   0.338   0.536 -0.1992 -0.6445  1.5405
   26MOL   H11031159   5.928   0.470   0.475  1.4888  0.6943  0.7975
   26MOL   H11131160   5.771   0.353   0.657  0.5645 -4.9108 -0.6850
   26MOL   H11231161   5.914   0.277   0.721  3.2060  0.2531 -0.7594
   26MOL   H11331162   5.944   0.455   0.863 -0.5057  1.5773  1.1069
   26MOL   H11431163   6.017   0.519   0.719  0.1538  1.0831  1.6807
   26MOL   H11531164   5.721   0.569   0.777 -0.0229 -2.9859 -0.7754
   26MOL   H11631165   5.803   0.630   0.640  2.0402  0.0809  0.0937
   26MOL   H11731166   5.963   0.743   0.790 -0.6878  1.2618  0.6758
   26MOL   H11831167   5.864   0.706   0.926  1.2164  2.1359  0.0165
   26MOL   H11931168   5.730   0.840   0.686  0.0545 -0.3432 -0.5338
   26MOL   H12031169   5.798   0.944   0.798 -1.5886  0.9052 -1.8060
   26MOL   H12131170   5.612   0.729   0.908  0.6763 -0.1615 -1.5379
   26MOL   H12231171   5.549   0.875   0.851 -0.6045  0.1407  1.1815
   26MOL   H12331172   5.781   0.886   1.045  0.5824  0.1868 -1.2996
   26MOL   H12431173   5.688   1.012   1.020  1.3670 -0.3232 -0.3647
   26MOL   H12531174   5.638   0.907   1.236  2.0718 -0.3798  0.2738
   26MOL   H12631175   5.498   0.863   1.145 -0.5445 -1.8800 -1.0521
   26MOL   H12731176   5.743   0.468   1.315  0.8420  2.3248  0.5616
   26MOL   H12831177   5.867   0.495   1.216  0.2660  0.1159  0.7659
   26MOL   H12931178   5.727   0.487   1.003  0.1383  1.3251  0.5677
   26MOL   H13031179   5.583   0.453   1.100 -0.2487  1.0666 -3.9430
   26MOL   H13131180   5.713   0.244   1.182  2.8586  1.2727  1.1985
   26MOL   H13231181   5.822   0.274   1.050  0.8587 -1.3994  3.1472
   26MOL   H13331182   5.653   0.281   0.888 -1.3413  0.0186 -0.9122
   26MOL   H13431183   5.524   0.253   1.004  0.4257  3.3937  1.0379
   26MOL   H13531184   5.636   0.073   0.867 -1.5474  0.4226  0.1369
   26MOL   H13631185   5.763   0.062   0.997  0.1185  0.0063  1.3408
   26MOL   H13731186   5.643   7.650   1.053 -0.0321 -0.6337  1.5441
   26MOL   H13831187   5.593   0.012   1.169  0.7897  2.1559 -0.8337
   26MOL   H13931188   5.425   7.702   0.917  0.3250 -0.8921  0.4908
   26MOL   H14031189   5.397   0.062   1.043 -0.5539  0.6375 -0.6428
   26MOL   H14131190   5.365   7.649   1.210  2.8909 -0.3233  0.0364
   26MOL   H14231191   5.250   7.614   1.087 -0.2641 -1.2648  2.4656
   26MOL   O14331192   5.394   7.395   1.026  0.2973 -0.2780  0.2514
   26MOL   C14431193   5.447   7.266   1.017  0.2234  0.5942 -0.6792
   26MOL   C14531194   5.456   7.211   0.877  0.1290 -0.3763  0.7046
   26MOL   C14631195   5.312   7.217   0.812  0.5008 -0.0870 -0.4053
   26MOL   C14731196   5.197   7.146   0.886 -0.5475  0.4443  0.1008
   26MOL   C14831197   5.054   7.148   0.812  0.1277  0.2444  0.2916
   26MOL   C14931198   4.997   7.291   0.799  0.7308 -1.0979 -0.4498
   26MOL   C15031199   4.985   7.376   0.928 -0.1534  0.3787 -0.4666
   26MOL   C15131200   4.901   7.502   0.907  0.3061 -0.1216  0.0254
   26MOL   C15231201   4.918   7.602   1.028 -0.2319 -0.2446 -0.9477
   26MOL   C15331202   4.888   7.749   0.993 -0.1785  0.1771 -0.6049
   26MOL   O15431203   4.906   0.063   1.109  0.2503 -0.3450  0.1253
   26MOL   C15531204   4.924   0.199   1.096  0.0139 -0.4664  0.3620
   26MOL   O15631205   4.939   0.259   0.991 -0.6293  0.0034 -0.0214
   26MOL   C15731206   4.916   0.277   1.231 -0.9116 -0.4014 -0.1192
   26MOL   C15831207   4.883   0.423   1.208  0.0198 -0.0437 -0.4115
   26MOL   C15931208   4.861   0.489   1.341  0.4614 -0.2756 -0.4633
   26MOL   C16031209   4.783   0.624   1.338  0.7233 -0.0278 -0.0228
   26MOL   C16131210   4.754   0.709   1.459  0.4035 -0.3462 -0.1549
   26MOL   C16231211   4.673   0.642   1.572 -0.2827 -0.5443  0.8189
   26MOL   C16331212   4.686   0.735   1.694  0.0470  0.1709 -0.0530
   26MOL   C16431213   4.577   0.709   1.798  0.0233 -0.0584  0.3765
   26MOL   C16531214   4.594   0.569   1.854  0.2279  0.0660 -0.1696
   26MOL   O16631215   4.702   0.523   1.883 -0.0738  1.0469 -0.3458
   26MOL   H16731216   5.543   7.258   1.067  0.1991  0.0859 -0.7034
   26MOL   H16831217   5.373   7.201   1.065  2.8781  0.0828  2.8954
   26MOL   H16931218   5.531   7.258   0.813 -0.1992 -0.2230  0.4299
   26MOL   H17031219   5.497   7.110   0.878 -0.2521 -0.5376 -0.0873
   26MOL   H17131220   5.277   7.320   0.804  0.6708  0.1413  1.5524
   26MOL   H17231221   5.313   7.186   0.707 -0.7368  0.6795 -0.6544
   26MOL   H17331222   5.230   7.043   0.903  0.1105  0.9533  2.0637
   26MOL   H17431223   5.178   7.182   0.987 -0.5400 -3.3424  1.5434
   26MOL   H17531224   4.989   7.076   0.862 -0.6473  0.0992 -0.9074
   26MOL   H17631225   5.067   7.105   0.713 -0.3020  0.4283  0.1513
   26MOL   H17731226   4.899   7.295   0.751 -0.2756 -0.8354  1.5867
   26MOL   H17831227   5.051   7.348   0.723  2.3191 -0.4453  1.1276
   26MOL   H17931228   5.083   7.412   0.960 -1.3403  2.1952  1.3521
   26MOL   H18031229   4.938   7.324   1.011  1.1651 -1.1870 -0.6752
   26MOL   H18131230   4.799   7.466   0.893  0.6311 -0.6046 -1.0968
   26MOL   H18231231   4.930   7.549   0.813 -0.8494  1.2051  0.3184
   26MOL   H18331232   4.841   7.578   1.101 -0.3726 -0.9153 -1.3190
   26MOL   H18431233   5.019   7.605   1.067  0.1096 -2.6008 -1.6171
   26MOL   H18531234   4.942   0.033   0.907  0.0263 -2.4391 -1.7713
   26MOL   H18631235   4.785   7.754   0.957 -1.0264  0.9290  1.8757
   26MOL   H18731236   5.006   0.262   1.291 -2.8771 -1.2100  2.7389
   26MOL   H18831237   4.833   0.233   1.286  1.8538 -3.0764  2.0428
   26MOL   H18931238   4.785   0.414   1.160 -0.9413  1.9711  1.1125
   26MOL   H19031239   4.948   0.471   1.135 -0.5756  2.4049  0.6326
   26MOL   H19131240   4.962   0.522   1.367  0.0295  0.1966  0.6806
   26MOL   H19231241   4.838   0.426   1.427 -4.7259  0.5017 -1.1184
   26MOL   H19331242   4.694   0.610   1.278 -0.3790  0.8526  1.3591
   26MOL   H19431243   4.840   0.690   1.273 -2.6613  1.6231 -1.4272
   26MOL   H19531244   4.848   0.747   1.498  0.2413  1.1913 -1.2339
   26MOL   H19631245   4.694   0.796   1.432  1.5186  0.9291  1.3914
   26MOL   H19731246   4.572   0.642   1.531 -0.1790 -0.4769  0.5616
   26MOL   H19831247   4.709   0.541   1.589  3.1974  0.5174  0.1981
   26MOL   H19931248   4.688   0.841   1.668  1.1432  0.1881  0.0983
   26MOL   H20031249   4.780   0.734   1.750 -0.8223 -1.7113  1.4420
   26MOL   H20131250   4.577   0.792   1.868  1.1328 -1.1401  1.6879
   26MOL   H20231251   4.481   0.693   1.749  0.3744  0.4838 -0.5108
   26MOL   H20331252   4.503   0.510   1.870 -0.3052  1.3240  1.6626
   27MOL     O131253   5.143   6.619   2.076  0.3480 -0.3758  0.2739
   27MOL     C231254   5.173   6.728   2.155 -0.1984 -0.0632 -0.5973
   27MOL     C331255   5.320   6.711   2.202  0.4018 -0.1510  0.2358
   27MOL     C431256   5.378   6.836   2.267  0.4443 -0.3316  0.0298
   27MOL     C531257   5.510   6.808   2.346 -0.4815  0.1410 -0.0919
   27MOL     C631258   5.641   6.853   2.275  0.4034  0.6427 -0.0046
   27MOL     C731259   5.691   6.748   2.178 -0.1653 -0.0567 -0.0697
   27MOL     C831260   5.818   6.784   2.108 -0.3317 -0.4009 -0.1469
   27MOL     C931261   5.815   6.897   2.010 -0.5628  0.3254  0.4724
   27MOL    C1031262   5.951   6.924   1.934  0.0759 -0.5787  0.5902
   27MOL    C1131263   5.942   7.003   1.801 -0.3366 -0.5410 -0.4158
   27MOL    O1231264   5.919   7.137   1.831  0.4028 -0.2004 -0.5450
   27MOL    C1331265   5.795   7.188   1.827  0.5454 -0.5278 -0.1500
   27MOL    O1431266   5.696   7.136   1.778  0.3121  0.0799 -1.1681
   27MOL    C1531267   5.800   7.328   1.890  0.2005 -0.2372  0.3222
   27MOL    C1631268   5.668   7.379   1.937  0.7455  0.5159  0.9319
   27MOL    C1731269   5.629   7.317   2.068  0.1229 -0.0919  0.2612
   27MOL    C1831270   5.656   7.402   2.192  0.4856  0.0634 -0.5419
   27MOL    C1931271   5.616   7.333   2.316 -0.3661  0.1085 -0.2551
   27MOL    C2031272   5.464   7.334   2.351  0.2638 -0.6303  0.1269
   27MOL    C2131273   5.423   7.240   2.473  0.4764 -0.0784  0.6860
   27MOL    C2231274   5.271   7.246   2.500 -0.3094  0.0762 -0.0487
   27MOL    C2331275   5.184   7.159   2.405  0.5791  0.4037 -0.5453
   27MOL    O2431276   5.227   7.121   2.302  0.0122  0.0565 -0.1788
   27MOL    H2531277   5.152   6.821   2.102 -0.2318  0.8031  0.9168
   27MOL    H2631278   5.117   6.752   2.246  1.2843  0.9173  0.0702
   27MOL    H2731279   5.313   6.637   2.282  0.4283  2.3316  2.6091
   27MOL    H2831280   5.389   6.665   2.130  1.7725 -0.1391  1.5207
   27MOL    H2931281   5.397   6.916   2.195  0.0375 -0.9455 -0.7657
   27MOL    H3031282   5.312   6.881   2.342  1.4908  3.2212 -1.0782
   27MOL    H3131283   5.504   6.872   2.434 -0.0086  2.1631 -1.4940
   27MOL    H3231284   5.506   6.706   2.383 -0.1702  0.2034  0.1206
   27MOL    H3331285   5.719   6.862   2.349  0.0170 -0.4485  0.5470
   27MOL    H3431286   5.621   6.951   2.233  2.8047  1.1872  0.0755
   27MOL    H3531287   5.616   6.721   2.104  0.1117 -0.5887 -0.1521
   27MOL    H3631288   5.713   6.654   2.229  2.2398 -0.6348 -2.0502
   27MOL    H3731289   5.854   6.702   2.046  0.2923 -2.3659  2.6706
   27MOL    H3831290   5.903   6.804   2.174  0.6369  1.1387 -1.8336
   27MOL    H3931291   5.773   6.988   2.053 -0.3789 -0.7514  2.9709
   27MOL    H4031292   5.739   6.868   1.937  0.9982 -0.3057 -0.9221
   27MOL    H4131293   6.024   6.965   2.004 -0.6367  1.3551  0.2147
   27MOL    H4231294   5.991   6.826   1.908  1.0512  0.4486 -1.9240
   27MOL    H4331295   6.038   6.991   1.751  0.9831  1.6835  1.4464
   27MOL    H4431296   5.868   6.944   1.747  0.5843  0.8353 -3.2669
   27MOL    H4531297   5.825   7.395   1.808 -2.0753  0.5344  0.2132
   27MOL    H4631298   5.878   7.331   1.966  1.3667 -2.3213 -0.7658
   27MOL    H4731299   5.593   7.360   1.859  1.9238 -2.4850  0.4627
   27MOL    H4831300   5.684   7.486   1.951 -0.1967  0.6287  1.1743
   27MOL    H4931301   5.671   7.217   2.078 -0.0679 -0.1479  0.4935
   27MOL    H5031302   5.522   7.298   2.065 -0.2237  1.5584  1.5408
   27MOL    H5131303   5.615   7.502   2.178 -1.4662 -0.8407 -1.4184
   27MOL    H5231304   5.764   7.415   2.190  0.6785 -1.5635 -2.1621
   27MOL    H5331305   5.662   7.235   2.325  0.1341  0.4694  1.2248
   27MOL    H5431306   5.660   7.396   2.393  0.3929 -0.8459  0.0950
   27MOL    H5531307   5.427   7.436   2.363 -0.8482 -0.9319 -0.6600
   27MOL    H5631308   5.420   7.290   2.261 -0.4732 -1.8819  1.0833
   27MOL    H5731309   5.481   7.267   2.561 -1.0650  0.5696  1.5221
   27MOL    H5831310   5.449   7.137   2.449 -1.2856 -0.4376  0.2046
   27MOL    H5931311   5.258   7.215   2.603 -1.6323  0.3045 -0.1456
   27MOL    H6031312   5.237   7.350   2.503  0.6166  0.4692 -2.0348
   27MOL    H6131313   5.050   6.612   2.066  0.3673 -1.4615  0.7869
   27MOL    O6231314   5.062   7.129   2.447  0.5264 -0.4168 -0.5972
   27MOL    C6331315   4.974   7.033   2.382  0.2429 -0.3804  0.5293
   27MOL    C6431316   4.867   6.974   2.476 -0.6235 -0.4059 -0.1795
   27MOL    C6531317   4.916   6.878   2.582  0.6527  0.2400 -0.4251
   27MOL    C6631318   4.792   6.813   2.657  0.0116  0.0815  0.0563
   27MOL    C6731319   4.830   6.759   2.797 -0.5628  0.5388  0.1477
   27MOL    C6831320   4.721   6.679   2.862 -0.8405  0.0944 -0.0557
   27MOL    C6931321   4.750   6.639   3.003 -0.3708  1.0094  0.0764
   27MOL    C7031322   4.862   6.540   3.022  0.6133 -0.3147 -0.3159
   27MOL    C7131323   4.888   6.496   3.169 -0.3352 -0.5260  0.5092
   27MOL    C7231324   4.995   6.393   3.184  0.0892 -0.0927  0.2505
   27MOL    O7331325   4.954   6.287   3.094  0.0256 -0.9224 -0.2955
   27MOL    C7431326   4.896   6.180   3.144  0.1857  0.7147 -0.4155
   27MOL    O7531327   4.864   6.156   3.261 -0.2376  0.0906 -0.3610
   27MOL    C7631328   4.831   6.088   3.031  0.0940 -0.3104  0.9523
   27MOL    C7731329   4.738   6.164   2.931  0.4856  0.6222 -0.4087
   27MOL    C7831330   4.616   6.226   3.001  0.5035 -0.4138 -0.7079
   27MOL    C7931331   4.541   6.328   2.924  0.5462  0.7959  0.0820
   27MOL    C8031332   4.441   6.405   3.005 -0.2222 -0.0976 -0.0144
   27MOL    C8131333   4.365   6.518   2.934 -0.0438 -0.4078  0.6792
   27MOL    C8231334   4.245   6.574   3.012 -0.0334  0.1485 -0.3180
   27MOL    C8331335   4.186   6.696   2.944  0.4051  0.1756  0.0122
   27MOL    C8431336   4.253   6.824   2.991 -0.3245 -0.3952 -0.0743
   27MOL    O8531337   4.360   6.855   2.938  0.2177  0.4591 -0.1201
   27MOL    H8631338   4.908   7.081   2.310  0.5238 -3.0154 -1.5459
   27MOL    H8731339   5.025   6.959   2.319 -2.7229 -1.8429 -0.2540
   27MOL    H8831340   4.822   7.065   2.516  3.7613  1.3066  1.1362
   27MOL    H8931341   4.789   6.929   2.414  0.1441 -1.9709 -0.0294
   27MOL    H9031342   4.986   6.808   2.536 -0.9155 -0.5296 -1.6843
   27MOL    H9131343   4.972   6.928   2.661  0.6953  2.1429 -1.6313
   27MOL    H9231344   4.726   6.900   2.666  0.2926  0.3098 -0.0979
   27MOL    H9331345   4.744   6.740   2.591  1.2746  0.5083 -1.3470
   27MOL    H9431346   4.849   6.838   2.869 -1.1103  0.9143 -0.1064
   27MOL    H9531347   4.919   6.698   2.784 -0.6439  0.5027 -0.2364
   27MOL    H9631348   4.689   6.597   2.798  0.5521  0.2424 -0.9881
   27MOL    H9731349   4.630   6.738   2.863 -0.3664  0.8330  0.4236
   27MOL    H9831350   4.663   6.600   3.056  0.6618 -0.1892  0.9409
   27MOL    H9931351   4.792   6.724   3.058 -0.6076  1.3848 -0.3206
   27MOL   H10031352   4.947   6.589   2.974 -0.5004  0.2103 -1.7976
   27MOL   H10131353   4.847   6.452   2.960  1.5309 -0.8972  0.2742
   27MOL   H10231354   4.905   6.588   3.225 -2.3101  0.6490 -0.7282
   27MOL   H10331355   4.793   6.454   3.203  0.1418 -0.5220  1.8370
   27MOL   H10431356   5.090   6.424   3.140 -0.0268 -0.8492 -0.5401
   27MOL   H10531357   5.010   6.361   3.287  0.1847  3.4718  1.4115
   27MOL   H10631358   4.774   6.012   3.083 -0.8615  0.2086  0.6898
   27MOL   H10731359   4.907   6.043   2.968 -0.4456 -0.1244  0.1531
   27MOL   H10831360   4.706   6.100   2.849  0.3684  0.2899 -0.1044
   27MOL   H10931361   4.797   6.243   2.885 -1.8464  2.0723 -0.9593
   27MOL   H11031362   4.650   6.274   3.093  1.0117 -0.7862 -0.6999
   27MOL   H11131363   4.550   6.144   3.028 -0.5738  0.5644 -0.3505
   27MOL   H11231364   4.507   6.293   2.826 -0.2030  1.6923  0.0157
   27MOL   H11331365   4.622   6.397   2.900  1.4982 -1.0919 -2.3805
   27MOL   H11431366   4.368   6.340   3.054 -0.4686  0.9501  1.0349
   27MOL   H11531367   4.494   6.450   3.089  0.5341 -0.3541 -0.3487
   27MOL   H11631368   4.442   6.591   2.909  0.8178 -1.3291  0.6066
   27MOL   H11731369   4.328   6.466   2.846  1.0739 -0.5533  0.2772
   27MOL   H11831370   4.269   6.599   3.116 -0.5193  1.1105 -0.4294
   27MOL   H11931371   4.170   6.495   3.012  0.1648 -0.0376 -0.0282
   27MOL   H12031372   4.213   6.696   2.838 -0.9925  1.3979 -0.3610
   27MOL   H12131373   4.079   6.700   2.960  0.0681  0.8176 -2.2236
   27MOL   O12231374   4.192   6.890   3.090 -0.1303  0.1287  0.4163
   27MOL   C12331375   4.250   7.004   3.150  0.4341 -0.3815  0.8431
   27MOL   C12431376   4.142   7.101   3.206 -0.1887  0.1672  0.0460
   27MOL   C12531377   4.078   7.178   3.094  0.1416  0.0469 -0.4136
   27MOL   C12631378   3.994   7.295   3.157 -0.2105  0.1175 -0.1584
   27MOL   C12731379   3.868   7.254   3.233 -0.1811  0.2409 -0.0926
   27MOL   C12831380   3.787   7.371   3.285 -0.1598 -0.1100  0.3702
   27MOL   C12931381   3.642   7.346   3.314  0.1082  0.7335 -0.7719
   27MOL   C13031382   3.570   7.441   3.416  0.0186  0.5311  0.5544
   27MOL   C13131383   3.501   7.567   3.345  0.1308 -0.6075  0.4685
   27MOL   C13231384   3.412   7.641   3.443  0.4676 -0.2018  0.9574
   27MOL   O13331385   3.371   7.753   3.362 -0.2688 -0.0422  0.3595
   27MOL   C13431386   3.253   0.063   3.384  0.7637  0.0539 -0.6033
   27MOL   O13531387   3.171   0.037   3.468  0.6749  0.0026 -0.2382
   27MOL   C13631388   3.231   0.171   3.282  0.1151 -0.0974  0.0661
   27MOL   C13731389   3.300   0.303   3.326 -0.4116  0.1489  0.0051
   27MOL   C13831390   3.453   0.300   3.319  0.0940  0.1841 -0.4970
   27MOL   C13931391   3.510   0.444   3.309 -0.3596 -0.1004 -0.3911
   27MOL   C14031392   3.659   0.436   3.267  0.0197 -0.4257 -0.3822
   27MOL   C14131393   3.718   0.573   3.253 -1.0154  0.5346 -0.3150
   27MOL   C14231394   3.858   0.572   3.190  0.4081  0.1578 -0.1537
   27MOL   C14331395   3.902   0.724   3.172 -0.0318  0.4061  0.5796
   27MOL   C14431396   3.985   0.747   3.044 -0.1598 -0.1168 -0.4611
   27MOL   O14531397   4.029   0.652   2.979  0.3678  0.1090 -0.1398
   27MOL   H14631398   4.318   6.979   3.231  1.2236  1.5001  0.7859
   27MOL   H14731399   4.309   7.057   3.076 -0.6005  0.8555  0.8949
   27MOL   H14831400   4.075   7.038   3.264  0.2402 -1.0212 -0.7128
   27MOL   H14931401   4.204   7.162   3.271 -1.5009  0.4263  1.0670
   27MOL   H15031402   4.150   7.215   3.022  3.0451 -2.5932  1.0181
   27MOL   H15131403   4.013   7.118   3.031  2.2853 -1.7435 -0.9745
   27MOL   H15231404   4.053   7.354   3.228 -0.0671  0.1508 -0.3047
   27MOL   H15331405   3.974   7.366   3.076  1.9683 -0.6513 -1.4130
   27MOL   H15431406   3.895   7.188   3.315  1.0396  1.8009  0.7813
   27MOL   H15531407   3.817   7.185   3.165 -1.5157  0.5349  0.5959
   27MOL   H15631408   3.792   7.454   3.216 -1.1685 -1.1894 -1.0197
   27MOL   H15731409   3.839   7.406   3.375  0.4337  2.1923 -0.8272
   27MOL   H15831410   3.649   7.247   3.360  3.4310  1.3965  0.2430
   27MOL   H15931411   3.577   7.331   3.227  0.5866 -2.6758 -0.6433
   27MOL   H16031412   3.644   7.476   3.488 -0.6087  1.7377  0.6240
   27MOL   H16131413   3.491   7.393   3.473 -0.2420 -2.2663 -2.0374
   27MOL   H16231414   3.568   7.637   3.296 -2.0898  1.4340  0.2375
   27MOL   H16331415   3.434   7.529   3.268  2.8460 -3.1656 -0.7271
   27MOL   H16431416   3.326   7.586   3.479  1.2814 -2.5397 -0.5661
   27MOL   H16531417   3.486   7.666   3.519  1.7018 -2.2245  0.4474
   27MOL   H16631418   3.127   0.199   3.266  0.1656  0.1666  0.2018
   27MOL   H16731419   3.270   0.123   3.192  0.3578  0.9034 -0.3670
   27MOL   H16831420   3.276   0.334   3.427  1.8824 -1.5277  1.1083
   27MOL   H16931421   3.252   0.370   3.254 -0.2206 -0.2647 -0.5132
   27MOL   H17031422   3.486   0.251   3.227 -0.1671  0.0025 -0.4931
   27MOL   H17131423   3.495   0.257   3.411  0.4133  3.0032  0.7031
   27MOL   H17231424   3.484   0.505   3.395  0.4851 -0.0043 -0.2029
   27MOL   H17331425   3.464   0.506   3.232 -0.2291  0.7857  0.2405
   27MOL   H17431426   3.715   0.383   3.344 -0.2322  1.7732  1.3838
   27MOL   H17531427   3.664   0.387   3.170  0.6258  1.7902 -1.5199
   27MOL   H17631428   3.656   0.631   3.184 -1.8732 -1.8962 -1.6519
   27MOL   H17731429   3.712   0.627   3.348  0.6976  0.1975 -0.0072
   27MOL   H17831430   3.848   0.528   3.091  0.5248 -0.0465 -0.0767
   27MOL   H17931431   3.926   0.503   3.239  1.3592  2.4394  1.8252
   27MOL   H18031432   3.816   0.789   3.154 -0.1859  0.6175  2.0803
   27MOL   H18131433   3.944   0.771   3.260 -0.1603  1.5663  0.0295
   27MOL   O18231434   4.010   0.873   3.028 -0.4670 -0.3036  0.6792
   27MOL   C18331435   4.062   0.916   2.903  0.2467 -0.2669 -0.2833
   27MOL   C18431436   4.022   1.066   2.880  0.4037  0.3929  0.3971
   27MOL   C18531437   4.068   1.133   2.745  0.3438 -0.3665  0.1368
   27MOL   C18631438   4.055   1.284   2.727  0.2614 -0.1614 -0.1573
   27MOL   C18731439   4.080   1.332   2.581 -0.4291  0.1434 -0.0190
   27MOL   C18831440   4.056   1.485   2.568 -0.1557  0.1586  0.0689
   27MOL   C18931441   4.174   1.572   2.595 -0.0866 -0.5339  0.3604
   27MOL   C19031442   4.142   1.721   2.579 -0.0602  0.4289  0.1184
   27MOL   C19131443   4.008   1.775   2.640 -0.5428  0.6895  0.7254
   27MOL   C19231444   3.987   1.921   2.644  0.7313 -0.6619 -0.0275
   27MOL   O19331445   3.983   1.972   2.510 -0.3543  0.6073 -0.0099
   27MOL   C19431446   4.091   2.013   2.445  0.4376 -0.6231  0.1787
   27MOL   O19531447   4.201   2.024   2.499 -0.3871  1.0469 -0.6362
   27MOL   C19631448   4.070   2.061   2.293 -0.1143 -0.4123  0.0677
   27MOL   C19731449   3.990   1.959   2.199  0.8229  0.0322  0.1072
   27MOL   C19831450   4.058   1.826   2.189 -0.2387 -0.4270  0.6144
   27MOL   C19931451   3.998   1.723   2.093 -0.6667 -0.1987 -0.3348
   27MOL   C20031452   4.064   1.585   2.085 -0.5657  0.0548  0.0008
   27MOL   C20131453   3.997   1.495   1.987  0.5798  0.2802 -0.6595
   27MOL   C20231454   4.083   1.370   1.969 -0.0327 -0.2426  0.6147
   27MOL   C20331455   4.026   1.267   1.872  0.2433 -0.1449  0.4045
   27MOL   C20431456   3.911   1.184   1.914 -0.0376  0.2421  0.0037
   27MOL   O20531457   3.912   1.124   2.022  0.4949 -0.4543  0.2845
   27MOL   H20631458   4.171   0.914   2.907  0.4304  1.2556 -3.3565
   27MOL   H20731459   4.040   0.856   2.815  2.8171 -1.7933  0.0540
   27MOL   H20831460   3.914   1.075   2.887  0.2766 -1.3524  0.6963
   27MOL   H20931461   4.055   1.135   2.958 -0.7055 -0.1990  1.4024
   27MOL   H21031462   4.174   1.109   2.732  0.3239 -0.1279 -0.4808
   27MOL   H21131463   4.025   1.094   2.653  1.2834  1.5402 -1.1189
   27MOL   H21231464   3.954   1.301   2.762 -0.0183 -0.0216 -1.0203
   27MOL   H21331465   4.128   1.328   2.795 -1.8513  1.1094  1.3098
   27MOL   H21431466   4.014   1.282   2.511 -0.4720  0.6229 -0.3224
   27MOL   H21531467   4.182   1.309   2.549  0.2848  0.9410  1.6333
   27MOL   H21631468   3.963   1.501   2.623 -0.7995 -0.2717 -0.8837
   27MOL   H21731469   4.023   1.503   2.466 -0.2197 -1.8739 -0.2837
   27MOL   H21831470   4.251   1.551   2.520 -0.0414  0.6422  0.0593
   27MOL   H21931471   4.214   1.552   2.694 -0.8089  0.8312  0.9439
   27MOL   H22031472   4.139   1.743   2.473  0.4358  0.6156  0.1395
   27MOL   H22131473   4.226   1.785   2.605 -0.8652  1.0344  1.3197
   27MOL   H22231474   3.920   1.739   2.585  1.0026 -0.9642 -0.7383
   27MOL   H22331475   4.003   1.748   2.745 -0.7225  1.5036  0.9274
   27MOL   H22431476   3.890   1.940   2.690  1.4089  0.3049  1.0246
   27MOL   H22531477   4.068   1.968   2.700  1.5573 -1.6920 -0.3368
   27MOL   H22631478   4.166   2.089   2.249  0.1224  1.1011  1.4896
   27MOL   H22731479   4.014   2.155   2.290 -0.0205 -0.3676 -0.3760
   27MOL   H22831480   3.973   2.004   2.101 -0.5434  1.2652  0.8884
   27MOL   H22931481   3.891   1.943   2.242  0.5970 -0.7461 -0.6604
   27MOL   H23031482   4.079   1.777   2.284 -2.0069 -0.0759  1.2048
   27MOL   H23131483   4.157   1.847   2.148 -1.2063 -0.4710 -1.8093
   27MOL   H23231484   3.995   1.767   1.993 -0.4547  0.2534 -0.1448
   27MOL   H23331485   3.896   1.694   2.118 -0.2986 -1.4730 -0.2777
   27MOL   H23431486   4.172   1.593   2.070 -0.7544  0.5405 -1.2000
   27MOL   H23531487   4.058   1.542   2.184  2.0724  0.6086  0.4364
   27MOL   H23631488   3.896   1.473   2.023  0.9840  1.1680  1.0401
   27MOL   H23731489   4.006   1.552   1.894 -0.1733  0.7701 -0.4428
   27MOL   H23831490   4.110   1.327   2.065  0.4319  0.5413  0.8304
   27MOL   H23931491   4.168   1.401   1.908 -1.6842  3.6999  0.1692
   27MOL   H24031492   3.991   1.327   1.788 -0.0349  0.1221  0.7117
   27MOL   H24131493   4.101   1.197   1.832 -0.6518 -1.6336  1.2858
   27MOL   O24231494   3.815   1.183   1.829  0.3597  0.6642 -0.6425
   27MOL   C24331495   3.704   1.094   1.856  0.3012 -0.1234 -0.5419
   27MOL   C24431496   3.599   1.140   1.759 -1.2864 -0.5494  0.6632
   27MOL   C24531497   3.462   1.075   1.777 -1.4402  0.0618 -0.0944
   27MOL   C24631498   3.369   1.100   1.656  0.3833  0.4139 -0.4893
   27MOL   C24731499   3.234   1.032   1.660  0.5499  0.1704  0.3206
   27MOL   C24831500   3.138   1.064   1.550  0.1236  0.1871 -0.2223
   27MOL   C24931501   3.004   0.984   1.542 -1.1910  0.6862  0.0743
   27MOL   C25031502   2.902   1.001   1.654  0.4035 -0.2784  0.6006
   27MOL   C25131503   2.772   0.919   1.639  0.5592  0.4906  0.5218
   27MOL   C25231504   2.663   0.933   1.752 -0.2927 -0.0857  0.0885
   27MOL   O25331505   2.606   1.064   1.763 -0.0303  0.7699 -0.4595
   27MOL   C25431506   2.538   1.097   1.872  0.1921  0.1381 -0.4370
   27MOL   O25531507   2.550   1.039   1.983 -0.4985 -0.5132 -0.0175
   27MOL   C25631508   2.459   1.233   1.870 -0.1540  0.4109  0.1761
   27MOL   C25731509   2.325   1.228   1.946  0.3249  0.1137 -0.3360
   27MOL   C25831510   2.340   1.256   2.097  0.1773 -0.1884  0.4778
   27MOL   C25931511   2.204   1.243   2.168  0.3099 -0.9135 -0.4363
   27MOL   C26031512   2.199   1.319   2.307 -0.0661  0.0587 -0.8227
   27MOL   C26131513   2.191   1.470   2.290 -0.3843 -0.3743 -0.5580
   27MOL   C26231514   2.165   1.542   2.426  0.2600 -1.0555  0.2563
   27MOL   C26331515   2.124   1.693   2.416 -0.5924 -1.0985 -0.3211
   27MOL   C26431516   2.243   1.787   2.421  0.1290 -0.1323  0.0318
   27MOL   O26531517   2.231   1.891   2.489  0.3836 -0.3531 -0.0523
   27MOL   H26631518   3.732   0.991   1.832 -2.5296 -0.3422 -3.1907
   27MOL   H26731519   3.666   1.097   1.958  1.5008  1.2185 -0.1273
   27MOL   H26831520   3.585   1.248   1.768 -1.7590 -0.5987  0.5103
   27MOL   H26931521   3.639   1.118   1.660  0.8953  0.3824  1.3029
   27MOL   H27031522   3.469   0.966   1.771 -0.5003  0.0500  0.9585
   27MOL   H27131523   3.417   1.100   1.872  0.1873  2.9140 -0.0113
   27MOL   H27231524   3.354   1.207   1.644 -3.0790  0.2532  1.7509
   27MOL   H27331525   3.420   1.074   1.563  2.4999 -0.7737  0.9637
   27MOL   H27431526   3.187   1.050   1.756  0.0099  1.2832 -0.1337
   27MOL   H27531527   3.255   0.925   1.653  1.6426  0.4882 -1.6511
   27MOL   H27631528   3.175   1.065   1.447 -2.9026  0.1393 -1.3476
   27MOL   H27731529   3.116   1.170   1.561  2.3650  0.7016 -0.3270
   27MOL   H27831530   3.013   0.878   1.518  0.1235  0.4343  1.6208
   27MOL   H27931531   2.963   1.009   1.444 -0.4373 -1.1170 -0.7121
   27MOL   H28031532   2.877   1.107   1.646 -2.0909 -1.0509 -3.0216
   27MOL   H28131533   2.939   0.986   1.755 -0.3181  0.2692  0.9553
   27MOL   H28231534   2.729   0.959   1.547 -0.4609 -1.2685  0.2212
   27MOL   H28331535   2.790   0.812   1.629  1.2127  0.6097  0.3438
   27MOL   H28431536   2.593   0.852   1.736  1.0399 -1.2766  0.1240
   27MOL   H28531537   2.711   0.898   1.844 -1.6374 -1.4112  0.3102
   27MOL   H28631538   2.450   1.278   1.771  0.9308  0.3450  0.0423
   27MOL   H28731539   2.527   1.306   1.915 -0.3061  1.1511 -0.7976
   27MOL   H28831540   2.276   1.134   1.923  0.3891 -0.0061  0.0069
   27MOL   H28931541   2.263   1.303   1.897  0.5825 -0.7963 -2.0856
   27MOL   H29031542   2.381   1.356   2.110 -0.7252  0.2992 -0.4049
   27MOL   H29131543   2.416   1.190   2.140  1.0249 -1.0096 -2.2148
   27MOL   H29231544   2.196   1.136   2.191  0.1859 -0.7275  0.4089
   27MOL   H29331545   2.118   1.271   2.106 -0.4723 -0.4807  0.8170
   27MOL   H29431546   2.105   1.286   2.352 -0.7667  1.9545 -0.8292
   27MOL   H29531547   2.285   1.276   2.358 -2.0876 -1.7856  1.1713
   27MOL   H29631548   2.279   1.510   2.240 -0.2092 -1.5122 -1.1752
   27MOL   H29731549   2.106   1.493   2.224 -0.2837  0.8129 -0.2982
   27MOL   H29831550   2.248   1.532   2.497 -0.9917  0.6909  2.0480
   27MOL   H29931551   2.089   1.491   2.485 -1.9472  0.7369 -0.9938
   27MOL   H30031552   2.076   1.716   2.321  0.8427 -0.9442 -1.0232
   27MOL   H30131553   2.050   1.709   2.494  0.0527  0.4351 -0.0145
   27MOL   O30231554   2.356   1.749   2.360  0.1179  0.1812 -0.5573
   27MOL   C30331555   2.464   1.837   2.354 -0.1351 -0.3242 -0.4718
   27MOL   C30431556   2.555   1.788   2.241 -0.0887  0.2390  0.6056
   27MOL   C30531557   2.606   1.650   2.246 -0.1986 -0.6207 -0.5780
   27MOL   C30631558   2.715   1.617   2.146 -0.3017 -0.0825  0.0416
   27MOL   C30731559   2.763   1.472   2.138  0.3253 -0.1081  0.5646
   27MOL   C30831560   2.896   1.447   2.055 -0.1481  0.8144 -0.7876
   27MOL   C30931561   2.950   1.304   2.059 -0.2016  0.1124  0.7159
   27MOL   C31031562   3.042   1.267   1.947 -0.3043 -0.5945 -0.3990
   27MOL   C31131563   3.176   1.344   1.944 -0.5540  0.5147 -0.7029
   27MOL   C31231564   3.248   1.349   2.084 -0.5868 -0.2053  0.0323
   27MOL   O31331565   3.381   1.394   2.063 -0.4427  0.8193  0.3390
   27MOL   C31431566   3.481   1.330   2.130 -0.0522 -0.5503  0.6021
   27MOL   O31531567   3.459   1.247   2.220 -0.2361 -0.0588 -0.0879
   27MOL   C31631568   3.614   1.390   2.108  0.1999 -0.4725 -0.9017
   27MOL   C31731569   3.636   1.517   2.194  0.0117  0.3026  0.4345
   27MOL   C31831570   3.678   1.493   2.343  0.3226  0.7132 -0.8406
   27MOL   C31931571   3.710   1.619   2.429 -0.6003  0.2947 -0.2106
   27MOL   C32031572   3.589   1.707   2.467 -0.4909  0.3245 -0.0141
   27MOL   C32131573   3.634   1.846   2.526  0.6294  0.1956  0.2807
   27MOL   C32231574   3.523   1.949   2.549  0.6441 -0.0359 -0.0394
   27MOL   C32331575   3.399   1.890   2.627  0.0432 -0.0118  0.4378
   27MOL   C32431576   3.409   1.921   2.773  0.1087  0.2884  0.0690
   27MOL   O32531577   3.515   1.914   2.840  0.2718  0.2787 -0.4354
   27MOL   H32631578   2.433   1.940   2.338  1.8709  0.3079 -0.4639
   27MOL   H32731579   2.510   1.833   2.453 -0.4536  0.3998 -0.2989
   27MOL   H32831580   2.505   1.812   2.147  1.4136  2.5780  0.3718
   27MOL   H32931581   2.644   1.850   2.231 -0.4103  0.7232  0.7221
   27MOL   H33031582   2.636   1.615   2.344  0.6806  1.3567 -0.1213
   27MOL   H33131583   2.520   1.584   2.236 -0.7670  0.0946 -0.3854
   27MOL   H33231584   2.680   1.635   2.044  0.1151 -0.5569 -0.1902
   27MOL   H33331585   2.794   1.686   2.174 -0.0042 -0.1458 -0.6324
   27MOL   H33431586   2.679   1.409   2.108  2.4746 -2.8570  0.1006
   27MOL   H33531587   2.789   1.458   2.243  0.4466 -0.1187  0.5337
   27MOL   H33631588   2.969   1.519   2.091 -0.3962  1.1236 -0.8988
   27MOL   H33731589   2.864   1.462   1.951 -0.5826 -1.9664 -1.1022
   27MOL   H33831590   2.863   1.243   2.035  0.6211  0.0583 -2.3321
   27MOL   H33931591   2.995   1.278   2.154  0.7833 -0.3881  0.1220
   27MOL   H34031592   2.986   1.294   1.857  0.2940 -0.0067 -0.5959
   27MOL   H34131593   3.069   1.161   1.946  1.6699 -0.1045 -0.6958
   27MOL   H34231594   3.237   1.304   1.864  0.9982  1.1115  0.1511
   27MOL   H34331595   3.154   1.446   1.913  0.7369  0.4279 -1.9502
   27MOL   H34431596   3.191   1.415   2.149  0.2832 -0.0265  0.6172
   27MOL   H34531597   3.251   1.247   2.121  3.6595 -0.4541 -0.7870
   27MOL   H34631598   3.619   1.415   2.002 -0.0042 -1.0544 -1.0504
   27MOL   H34731599   3.689   1.311   2.120  0.9351  0.4109  0.5191
   27MOL   H34831600   3.551   1.586   2.194  0.3839  0.8330 -2.4237
   27MOL   H34931601   3.705   1.583   2.143  2.2029 -3.4447 -1.5893
   27MOL   H35031602   3.765   1.429   2.354 -0.6862 -0.7226 -1.0948
   27MOL   H35131603   3.600   1.438   2.396  1.0705  0.3951 -0.0479
   27MOL   H35231604   3.777   1.674   2.363  0.9623 -1.7805 -0.4192
   27MOL   H35331605   3.767   1.594   2.519  0.5413  1.9380 -0.4458
   27MOL   H35431606   3.516   1.716   2.386 -0.7891  1.1430  0.3352
   27MOL   H35531607   3.534   1.643   2.535  0.8708 -0.1874  0.6217
   27MOL   H35631608   3.673   1.827   2.626  0.1554  1.5000  0.7237
   27MOL   H35731609   3.712   1.898   2.469  0.6537  1.0606  1.1019
   27MOL   H35831610   3.488   1.964   2.447  0.9130 -1.7299 -0.3838
   27MOL   H35931611   3.566   2.043   2.584 -2.5737  1.3690  0.3125
   27MOL   H36031612   3.310   1.927   2.575  1.0940  0.7590 -0.8444
   27MOL   H36131613   3.398   1.781   2.620 -0.2357 -0.0083  0.3944
   27MOL   O36231614   3.293   1.970   2.825  0.2229  0.0153  0.3474
   27MOL   C36331615   3.278   2.001   2.956  0.2196 -0.0141  0.0114
   27MOL   C36431616   3.129   2.021   2.987 -0.1889  0.2204 -0.0252
   27MOL   C36531617   3.071   2.147   2.915  0.3410 -0.6555  0.1098
   27MOL   C36631618   2.931   2.188   2.970  0.1541  0.1518 -0.4351
   27MOL   C36731619   2.878   2.313   2.897  0.2026  0.2852 -0.3795
   27MOL   C36831620   2.741   2.367   2.957  0.7400 -0.2576 -0.2896
   27MOL   C36931621   2.672   2.468   2.856  0.2638 -0.5961 -0.7892
   27MOL   C37031622   2.763   2.583   2.819 -0.9612 -0.3452 -0.1606
   27MOL   C37131623   2.687   2.686   2.724  0.0383 -0.3249  0.2899
   27MOL   C37231624   2.773   2.807   2.680  0.2331  0.5637  0.3866
   27MOL   O37331625   2.817   2.873   2.797 -0.3084  0.5562 -0.5936
   27MOL   C37431626   2.923   2.950   2.792  0.2040 -0.7177 -0.1771
   27MOL   O37531627   2.994   2.977   2.694 -0.1716  0.0984 -0.2964
   27MOL   C37631628   2.963   2.992   2.931 -0.3201  0.3838  0.3734
   27MOL   C37731629   3.089   2.927   2.990 -0.0228  0.6151 -0.2445
   27MOL   C37831630   3.124   2.779   2.956  0.0570 -0.0901 -0.0012
   27MOL   C37931631   3.259   2.734   3.004  0.7555 -0.3436 -0.4224
   27MOL   C38031632   3.299   2.590   2.971  0.6035  0.6045  1.2725
   27MOL   C38131633   3.436   2.547   3.010 -0.1358 -0.3863  0.8031
   27MOL   C38231634   3.454   2.393   3.007  0.1171 -0.6370  0.0235
   27MOL   C38331635   3.596   2.347   3.043  0.8295 -0.4253  1.1652
   27MOL   C38431636   3.616   2.193   3.046 -0.3224 -0.4428  0.6683
   27MOL   O38531637   3.702   2.140   2.981  0.2380 -0.2602 -0.0604
   27MOL   H38631638   3.324   1.927   3.021 -0.9234 -0.1003  0.7302
   27MOL   H38731639   3.333   2.093   2.972 -0.6193  0.7040 -1.1245
   27MOL   H38831640   3.073   1.932   2.959  1.4576 -1.1975  1.1459
   27MOL   H38931641   3.128   2.029   3.096  1.1066 -0.3442  0.0340
   27MOL   H39031642   3.138   2.231   2.935 -2.4460  1.7143 -0.2883
   27MOL   H39131643   3.070   2.125   2.809  1.2651  0.0361 -0.0445
   27MOL   H39231644   2.869   2.098   2.966  0.9630 -0.3867 -1.0153
   27MOL   H39331645   2.937   2.209   3.077  0.2608 -2.7762  0.1770
   27MOL   H39431646   2.858   2.290   2.792  0.4817  0.2964 -0.4345
   27MOL   H39531647   2.951   2.394   2.899  0.9960 -0.4410  2.0035
   27MOL   H39631648   2.773   2.412   3.051 -1.7520 -1.6723  1.3239
   27MOL   H39731649   2.671   2.287   2.983  1.8790 -1.4984 -1.0198
   27MOL   H39831650   2.587   2.507   2.911  0.6981 -1.1211  0.2746
   27MOL   H39931651   2.636   2.420   2.765 -1.6964 -0.0531 -0.3078
   27MOL   H40031652   2.858   2.548   2.779  0.1388  0.0282  2.0421
   27MOL   H40131653   2.792   2.631   2.913  0.4577 -2.9979  0.8124
   27MOL   H40231654   2.632   2.638   2.643  0.1282 -0.1444  0.1227
   27MOL   H40331655   2.612   2.730   2.790  2.0201  0.6948  1.9216
   27MOL   H40431656   2.859   2.769   2.625  0.4686  0.0927  1.0811
   27MOL   H40531657   2.721   2.865   2.604 -0.8416 -1.6173 -0.6064
   27MOL   H40631658   2.872   2.981   2.990 -0.3955  0.5167  0.2842
   27MOL   H40731659   2.971   3.101   2.938  2.1001  0.1498  1.5647
   27MOL   H40831660   3.093   2.939   3.098 -0.5501 -1.8720  0.0696
   27MOL   H40931661   3.177   2.986   2.961  1.3283 -2.5055 -2.7392
   27MOL   H41031662   3.117   2.766   2.848  1.9657  1.1326 -0.2944
   27MOL   H41131663   3.042   2.716   2.989  0.8921 -1.5429 -0.6648
   27MOL   H41231664   3.258   2.746   3.113  0.8478 -2.8348 -0.1226
   27MOL   H41331665   3.335   2.807   2.977  0.4442 -0.3203 -1.2369
   27MOL   H41431666   3.229   2.523   3.021 -1.9156  1.7709 -0.5820
   27MOL   H41531667   3.293   2.572   2.863  1.6415  1.8212  1.0093
   27MOL   H41631668   3.514   2.588   2.947  0.0072 -0.5235  0.8921
   27MOL   H41731669   3.453   2.582   3.112 -1.1830  1.9250  0.2171
   27MOL   H41831670   3.421   2.341   2.917 -2.3855  2.6546 -1.0419
   27MOL   H41931671   3.389   2.359   3.088 -0.3785 -0.9308 -0.4979
   27MOL   H42031672   3.664   2.385   2.967  0.5063 -1.6229  0.2691
   27MOL   H42131673   3.633   2.389   3.136  0.3706  2.2101  0.1754
   27MOL   O42231674   3.532   2.131   3.134  0.2478  0.2451 -0.0252
   27MOL   C42331675   3.569   2.003   3.200 -0.3329 -0.0594  0.1155
   27MOL   C42431676   3.502   2.000   3.339 -0.1017 -0.2507 -0.2796
   27MOL   C42531677   3.537   1.879   3.425  0.2046 -0.8314  0.0462
   27MOL   C42631678   3.471   1.756   3.371  0.3804 -0.4205 -0.6009
   27MOL   C42731679   3.496   1.636   3.466 -0.4792  0.0006 -0.4791
   27MOL   C42831680   3.430   1.514   3.411  0.2981 -0.2740 -0.1364
   27MOL   C42931681   3.462   1.379   3.495  0.3581 -0.4077 -0.7140
   27MOL   C43031682   3.417   1.247   3.429  0.4523  0.6122  0.3826
   27MOL   C43131683   3.442   1.125   3.520 -0.3063 -0.6911  0.2224
   27MOL   C43231684   3.414   0.992   3.455  0.0365  0.0686  0.6316
   27MOL   O43331685   3.277   0.959   3.456 -0.0583  0.1495  0.1055
   27MOL   C43431686   3.239   0.844   3.412 -0.2032  0.4039  0.2600
   27MOL   O43531687   3.315   0.760   3.362 -0.0325 -0.0493 -0.4197
   27MOL   C43631688   3.090   0.801   3.440 -0.0459  0.0452  0.2055
   27MOL   C43731689   3.040   0.809   3.582 -0.7667  0.5063 -0.1327
   27MOL   C43831690   2.889   0.786   3.614  0.4319 -0.0851 -0.3135
   27MOL   C43931691   2.800   0.883   3.541  0.3973  0.4919  0.3484
   27MOL   C44031692   2.655   0.895   3.590  0.1846  0.1887  0.1523
   27MOL   C44131693   2.574   1.014   3.528  0.1529 -0.0906 -0.7555
   27MOL   C44231694   2.436   1.033   3.591  0.4501  0.6227 -0.0275
   27MOL   C44331695   2.345   0.909   3.596 -0.1625 -0.1824 -0.0347
   27MOL   C44431696   2.307   0.859   3.456  0.2014 -0.0087 -0.5125
   27MOL   O44531697   2.301   0.926   3.351 -0.4817 -0.6578 -0.0545
   27MOL   H44631698   3.528   1.926   3.136  0.0100 -0.9281  0.9307
   27MOL   H44731699   3.677   1.988   3.192 -0.2794  0.5804 -0.4344
   27MOL   H44831700   3.508   2.093   3.396  0.9605  0.0382 -0.8473
   27MOL   H44931701   3.398   1.996   3.308 -0.0893  0.5903 -0.4474
   27MOL   H45031702   3.645   1.868   3.436  0.3141  0.3009  0.2355
   27MOL   H45131703   3.509   1.911   3.525 -0.2784 -0.5796 -0.1671
   27MOL   H45231704   3.364   1.772   3.363  0.8048  3.5393  0.2229
   27MOL   H45331705   3.491   1.737   3.266  2.0171  0.9338 -0.5756
   27MOL   H45431706   3.462   1.658   3.568  2.3885 -0.6450  0.6750
   27MOL   H45531707   3.602   1.613   3.469 -0.1653  1.2111 -2.0289
   27MOL   H45631708   3.468   1.498   3.310  1.0035  1.3460 -0.1290
   27MOL   H45731709   3.322   1.530   3.409  0.4188  0.7498  1.0928
   27MOL   H45831710   3.428   1.392   3.598  1.1391 -0.6680 -0.4195
   27MOL   H45931711   3.570   1.382   3.503  0.1317  2.4046  2.2051
   27MOL   H46031712   3.459   1.235   3.329  2.1551 -1.1219  1.2660
   27MOL   H46131713   3.310   1.253   3.414  0.8416 -0.6687 -3.4410
   27MOL   H46231714   3.550   1.131   3.528 -0.2300  0.2240 -1.1829
   27MOL   H46331715   3.405   1.141   3.621  1.9330 -2.4089  1.3448
   27MOL   H46431716   3.431   0.996   3.347 -2.0047 -1.1195  0.2448
   27MOL   H46531717   3.476   0.917   3.503 -0.4209  0.0798  1.2553
   27MOL   H46631718   3.100   0.696   3.411  2.0735  0.4144 -0.4836
   27MOL   H46731719   3.021   0.844   3.367  1.0149  1.5350  0.0697
   27MOL   H46831720   3.080   0.907   3.611  4.1384 -1.0952 -1.0285
   27MOL   H46931721   3.100   0.735   3.636 -1.6107 -0.2088 -0.1672
   27MOL   H47031722   2.879   0.808   3.720  1.5609  1.2959 -0.4742
   27MOL   H47131723   2.868   0.683   3.584 -0.9803  0.4169 -1.1076
   27MOL   H47231724   2.801   0.855   3.435 -1.4574  0.5593  0.3021
   27MOL   H47331725   2.845   0.982   3.549 -0.7546  1.0049  0.4510
   27MOL   H47431726   2.603   0.803   3.565 -1.4860  1.0821  0.2826
   27MOL   H47531727   2.653   0.897   3.699 -0.3484  2.2405  0.1191
   27MOL   H47631728   2.645   1.097   3.529 -0.7393  0.6835  0.5219
   27MOL   H47731729   2.569   0.999   3.420 -1.7259  1.8657 -0.9614
   27MOL   H47831730   2.383   1.111   3.538 -1.7906 -1.4413 -0.9036
   27MOL   H47931731   2.444   1.081   3.689  4.1392 -1.0618  0.5822
   27MOL   H48031732   2.396   0.830   3.653 -1.1336 -0.2352  0.7777
   27MOL   H48131733   2.263   0.946   3.658  2.6874  1.5933  2.8641
   27MOL   O48231734   2.261   0.725   3.463 -0.0254 -0.5285  0.7171
   27MOL   C48331735   2.231   0.650   3.339 -0.4567 -0.0000  0.6912
   27MOL   C48431736   2.228   0.496   3.364 -0.1676 -0.1798  0.3376
   27MOL   C48531737   2.240   0.409   3.238 -0.0537 -0.7203 -0.3172
   27MOL   C48631738   2.198   0.265   3.261  0.2197  0.7695 -0.1996
   27MOL   C48731739   2.201   0.178   3.136  0.3026  0.3677 -0.3247
   27MOL   C48831740   2.171   0.027   3.157  0.0918  0.2159  0.4384
   27MOL   C48931741   2.025   7.749   3.180 -0.2960 -0.5434 -0.4082
   27MOL   C49031742   1.939   0.004   3.061  0.1903 -0.4479  0.4415
   27MOL   C49131743   1.788   7.745   3.100  0.2691 -0.3010  0.2726
   27MOL   C49231744   1.762   7.597   3.150 -0.3606  0.9175 -0.1539
   27MOL   O49331745   1.624   7.556   3.132  0.5122  0.0902 -0.7645
   27MOL   C49431746   1.534   7.578   3.234 -0.4518  1.1219 -0.0972
   27MOL   O49531747   1.560   7.622   3.347  0.5362  0.4476  0.1678
   27MOL   C49631748   1.395   7.547   3.195 -0.1971  0.2441  0.2780
   27MOL   C49731749   1.281   7.574   3.297  0.1445 -0.0624 -0.2243
   27MOL   C49831750   1.142   7.595   3.237 -0.1821 -0.0817 -0.2418
   27MOL   C49931751   1.028   7.563   3.332 -0.1232 -0.2394 -0.7428
   27MOL   C50031752   0.989   7.418   3.359  0.4015 -1.1158 -0.1727
   27MOL   C50131753   0.855   7.400   3.436  0.2670 -0.0689  0.0750
   27MOL   C50231754   0.736   7.414   3.350 -0.1556 -0.0590 -0.0041
   27MOL   C50331755   0.600   7.381   3.418 -0.3618 -0.3206  0.1341
   27MOL   C50431756   0.574   7.490   3.528 -0.3708 -0.4949 -1.1005
   27MOL   O50531757   0.568   7.466   3.645  0.7901  1.1553  0.1137
   27MOL   H50631758   2.133   0.685   3.306 -0.5405  0.1821  1.1343
   27MOL   H50731759   2.301   0.669   3.258  1.3187 -1.3911  1.8741
   27MOL   H50831760   2.312   0.461   3.425 -0.4646  1.4381  1.7304
   27MOL   H50931761   2.136   0.473   3.418 -1.2824  0.5905 -1.2295
   27MOL   H51031762   2.189   0.447   3.149  0.2260 -0.3590 -0.3206
   27MOL   H51131763   2.343   0.415   3.203 -0.0921 -2.7452 -0.8687
   27MOL   H51231764   2.266   0.228   3.338 -1.7105 -1.9250  0.2810
   27MOL   H51331765   2.101   0.256   3.311  0.4692  1.9748  0.5233
   27MOL   H51431766   2.305   0.180   3.104  0.8803 -0.6637  1.3986
   27MOL   H51531767   2.142   0.221   3.055 -0.6285  1.7603  1.0623
   27MOL   H51631768   2.238   7.752   3.237  2.1728 -1.6235 -1.9520
   27MOL   H51731769   2.204   7.731   3.068  1.3604  0.0170  1.0199
   27MOL   H51831770   1.978   0.047   3.262 -0.6582  0.7088 -1.4328
   27MOL   H51931771   2.028   7.645   3.212  1.6139 -0.4258 -0.1710
   27MOL   H52031772   1.963   7.694   2.978 -0.5354 -2.7765  2.0357
   27MOL   H52131773   1.954   0.104   3.022  1.7994 -0.6380  0.5636
   27MOL   H52231774   1.777   0.050   3.189  0.2831 -0.4318  0.3663
   27MOL   H52331775   1.723   0.020   3.018 -0.0182  1.4887  1.1752
   27MOL   H52431776   1.813   7.523   3.088 -0.1545  0.8468  0.1010
   27MOL   H52531777   1.795   7.578   3.252  0.7495  0.1233 -0.6564
   27MOL   H52631778   1.387   7.440   3.178  1.0405  0.1421  0.3025
   27MOL   H52731779   1.371   7.598   3.101  1.4824  0.9759  0.2377
   27MOL   H52831780   1.304   7.664   3.353 -1.4505 -1.0143  2.0055
   27MOL   H52931781   1.293   7.499   3.376 -1.6848 -0.6403 -0.4725
   27MOL   H53031782   1.131   7.523   3.156 -0.5062 -0.3131  0.0034
   27MOL   H53131783   1.135   7.693   3.191 -1.9710 -0.9316 -1.8051
   27MOL   H53231784   0.947   7.617   3.284 -1.5272 -2.1490 -0.5877
   27MOL   H53331785   1.037   7.621   3.424  0.5108  0.5607 -1.2984
   27MOL   H53431786   0.979   7.365   3.264  1.0741 -2.9266  0.7480
   27MOL   H53531787   1.073   7.367   3.407  0.6194 -0.0850  0.5649
   27MOL   H53631788   0.838   7.301   3.479 -2.2074  1.2787  2.3134
   27MOL   H53731789   0.847   7.473   3.516  1.5911 -0.7239  0.8226
   27MOL   H53831790   0.749   7.347   3.265  3.7899 -0.1033  0.5614
   27MOL   H53931791   0.746   7.512   3.304 -0.0285  0.7940  1.8005
   27MOL   H54031792   0.522   7.390   3.341  1.3448  0.6321 -1.5307
   27MOL   H54131793   0.602   7.286   3.470 -4.7412 -0.2605  0.6203
   27MOL   O54231794   0.549   7.610   3.462 -0.0943 -0.4608 -0.3864
   27MOL   C54331795   0.526   7.726   3.542 -0.1229  0.4672  0.1421
   27MOL   C54431796   0.588   0.094   3.475 -0.7000 -0.0084  0.5246
   27MOL   C54531797   0.737   0.076   3.459 -0.6060 -0.2644  1.3844
   27MOL   C54631798   0.807   0.196   3.387 -0.7803  0.0159 -0.0502
   27MOL   C54731799   0.965   0.173   3.375 -0.1470 -0.0545 -0.2456
   27MOL   C54831800   1.030   0.289   3.291  0.0432  0.3084  0.1545
   27MOL   C54931801   1.176   0.263   3.264 -0.4029  0.4773  0.5647
   27MOL   C55031802   1.226   0.341   3.142  0.5277 -0.3040 -0.0155
   27MOL   C55131803   1.236   0.490   3.166 -0.4336 -0.2252  0.0190
   27MOL   C55231804   1.232   0.580   3.046 -0.0767  0.3510 -0.4325
   27MOL   O55331805   1.119   0.542   2.961  0.0961 -0.9714 -0.5375
   27MOL   C55431806   1.047   0.634   2.893 -0.7792 -0.4203 -0.0843
   27MOL   O55531807   1.058   0.756   2.901 -0.5420  0.0014  0.1327
   27MOL   C55631808   0.941   0.575   2.795  0.0751 -0.1783 -0.0200
   27MOL   C55731809   0.918   0.426   2.775  0.1764  0.3802 -0.0185
   27MOL   C55831810   0.860   0.357   2.902 -0.3888  0.4062 -0.0522
   27MOL   C55931811   0.702   0.338   2.898 -0.7460  0.6663 -0.6199
   27MOL   C56031812   0.644   0.293   3.029 -0.2464  0.2534 -0.2747
   27MOL   C56131813   0.491   0.295   3.050  0.4830 -0.7935  0.5441
   27MOL   C56231814   0.419   0.184   2.976 -0.3974  0.2723 -0.0791
   27MOL   C56331815   0.278   0.218   2.935 -0.4625  0.1710  0.3092
   27MOL   C56431816   0.206   0.110   2.856  0.6047  0.0756  0.1535
   27MOL   O56531817   0.266   0.044   2.766  0.6962 -0.1455 -0.3589
   27MOL   H56631818   0.419   7.733   3.564 -0.0228 -2.9497  2.0360
   27MOL   H56731819   0.571   7.730   3.641 -1.2471 -0.3888  0.7088
   27MOL   H56831820   0.537   0.107   3.380  1.5343 -1.2874 -0.8892
   27MOL   H56931821   0.568   0.175   3.546  0.2110  0.7925 -0.1063
   27MOL   H57031822   0.770   0.057   3.560  1.5316 -1.6290  0.4638
   27MOL   H57131823   0.758   7.744   3.398 -1.9687  1.2996 -1.4984
   27MOL   H57231824   0.766   0.237   3.295  0.8227  3.8478  0.8411
   27MOL   H57331825   0.804   0.278   3.458 -0.2088 -0.0288  0.0270
   27MOL   H57431826   0.980   0.082   3.317  0.3836 -0.3684  0.3834
   27MOL   H57531827   1.021   0.158   3.467  2.1910 -1.6078 -1.8642
   27MOL   H57631828   1.020   0.382   3.347 -0.3817  0.7850 -0.7084
   27MOL   H57731829   0.967   0.299   3.202 -1.5089  0.2501  1.2237
   27MOL   H57831830   1.179   0.155   3.252 -1.7425  0.4690  0.2354
   27MOL   H57931831   1.242   0.275   3.350  0.6392  0.1593 -0.1790
   27MOL   H58031832   1.173   0.312   3.051  0.0955 -1.3811  0.5669
   27MOL   H58131833   1.328   0.309   3.117 -0.1536 -1.3425 -1.6041
   27MOL   H58231834   1.146   0.521   3.219 -1.3111 -1.8338 -0.4855
   27MOL   H58331835   1.318   0.509   3.236 -0.7700 -0.5318  0.4980
   27MOL   H58431836   1.232   0.684   3.082 -0.3727  0.2651 -0.1801
   27MOL   H58531837   1.326   0.580   2.991  0.3734  3.0654  0.2254
   27MOL   H58631838   0.966   0.604   2.693 -2.7274  1.8929 -0.1664
   27MOL   H58731839   0.849   0.633   2.796  0.9438  1.2907 -1.4419
   27MOL   H58831840   1.015   0.382   2.753  0.6268  0.7824  1.1622
   27MOL   H58931841   0.851   0.420   2.689 -0.0933  3.2076 -0.0476
   27MOL   H59031842   0.880   0.407   2.996 -0.3816 -0.4316  0.3932
   27MOL   H59131843   0.915   0.268   2.930  1.3382  0.9376 -1.6510
   27MOL   H59231844   0.675   0.273   2.815  0.9447  0.5055 -1.0736
   27MOL   H59331845   0.658   0.435   2.876 -0.1229  0.7539 -1.5088
   27MOL   H59431846   0.683   0.194   3.050 -0.1387  0.7165  1.8125
   27MOL   H59531847   0.686   0.352   3.111  1.1897 -1.3074  0.1298
   27MOL   H59631848   0.461   0.280   3.154  0.6781 -2.2817  0.4060
   27MOL   H59731849   0.449   0.391   3.021 -0.6556 -1.7008 -0.8481
   27MOL   H59831850   0.406   0.091   3.030  0.2584  1.4653  2.1751
   27MOL   H59931851   0.474   0.173   2.882 -2.9202 -1.4803 -1.4362
   27MOL   H60031852   0.220   0.242   3.025 -0.0814  1.4722  0.2134
   27MOL   H60131853   0.284   0.308   2.873  3.9068 -1.2720 -1.4729
   27MOL   O60231854   0.078   0.105   2.887  0.7887 -0.1532  0.0362
   27MOL   C60331855   7.748   0.005   2.839  0.3540  0.0517 -0.2108
   27MOL   C60431856   7.616   0.014   2.922  0.3692 -0.7627 -0.3257
   27MOL   C60531857   7.515   7.650   2.908  0.1585  0.2365  0.3129
   27MOL   C60631858   7.409   7.626   3.023 -0.4988  0.1581 -0.3926
   27MOL   C60731859   7.464   7.602   3.166 -0.2891  0.2770 -0.8057
   27MOL   C60831860   7.563   7.485   3.184 -0.3594  0.6373  0.3137
   27MOL   C60931861   7.606   7.467   3.333 -0.0291  0.4984  0.5407
   27MOL   C61031862   7.703   7.345   3.358  0.2400 -0.2343 -0.1882
   27MOL   C61131863   7.620   7.215   3.376 -0.6566  0.4954 -0.1976
   27MOL   C61231864   7.710   7.104   3.427  0.2719 -0.0471 -1.2586
   27MOL   O61331865   7.621   6.994   3.470 -0.1873  0.0345 -0.2628
   27MOL   C61431866   7.684   6.883   3.512 -0.2323  0.1217 -0.3145
   27MOL   O61531867   0.048   6.865   3.508 -0.5614  0.3713 -0.1004
   27MOL   C61631868   7.586   6.786   3.575 -0.0016 -0.8162  0.0813
   27MOL   C61731869   7.588   6.800   3.722 -0.1901 -0.0043 -0.5751
   27MOL   C61831870   7.701   6.720   3.788 -0.3342  0.1888  0.5034
   27MOL   C61931871   7.715   6.738   3.942 -0.5721  0.4436  0.3700
   27MOL   C62031872   0.039   6.624   4.006 -0.3492  0.1275  0.1417
   27MOL   C62131873   0.067   6.658   4.148 -0.0394  0.1352 -0.2047
   27MOL   C62231874   0.158   6.557   4.208  0.0647 -0.1691  0.0521
   27MOL   C62331875   0.207   6.577   4.356 -0.0226 -0.4613  0.2914
   27MOL   C62431876   0.279   6.710   4.393  0.3743  0.1410  0.2945
   27MOL   O62531877   0.232   6.819   4.354  0.1704 -0.1105  0.0730
   27MOL   H62631878   7.730   0.024   2.733 -0.2087  1.1228  0.0676
   27MOL   H62731879   0.025   7.658   2.834  2.4585  0.5778  2.4172
   27MOL   H62831880   7.633   0.029   3.028  1.1645  1.1681 -0.6991
   27MOL   H62931881   7.568   0.109   2.899  1.3387  0.2103  1.6234
   27MOL   H63031882   7.460   7.674   2.817 -0.5430 -0.8083  0.4510
   27MOL   H63131883   7.573   7.562   2.879  0.5458  0.4790  0.3501
   27MOL   H63231884   7.342   7.712   3.028 -1.2955 -0.5577  2.4826
   27MOL   H63331885   7.363   7.533   2.990  0.3288 -0.5332  0.3674
   27MOL   H63431886   7.379   7.576   3.228 -0.3237  1.0642 -0.5172
   27MOL   H63531887   7.513   7.690   3.208  1.0375 -1.1739  0.7537
   27MOL   H63631888   7.653   7.485   3.122 -0.0433 -0.5343  0.7615
   27MOL   H63731889   7.505   7.397   3.157  2.1898 -1.6106  1.8093
   27MOL   H63831890   7.517   7.451   3.393 -2.0530  2.1489 -1.8945
   27MOL   H63931891   7.637   7.562   3.377  3.1160 -0.8882  1.4801
   27MOL   H64031892   0.012   7.367   3.443 -1.8134 -0.8351  1.5939
   27MOL   H64131893   0.009   7.334   3.270  0.2394 -1.2713 -0.0636
   27MOL   H64231894   7.533   7.230   3.440 -0.6457  0.5576 -0.1981
   27MOL   H64331895   7.585   7.184   3.277 -2.3042  0.3545  0.4127
   27MOL   H64431896   0.041   7.083   3.365 -0.3104 -1.9328 -1.4821
   27MOL   H64531897   7.748   7.147   3.519 -0.0504  2.9276 -2.4551
   27MOL   H64631898   7.606   6.685   3.538 -1.3912 -1.2990  0.6036
   27MOL   H64731899   7.488   6.813   3.535  0.7042  1.0544 -0.4074
   27MOL   H64831900   7.495   6.761   3.762  0.6960 -1.2180  0.3329
   27MOL   H64931901   7.597   6.904   3.755 -1.1980  0.1310 -0.7220
   27MOL   H65031902   0.038   6.749   3.740 -2.3401 -0.1116 -3.8379
   27MOL   H65131903   7.667   6.623   3.753 -0.5076  0.1081  0.8978
   27MOL   H65231904   7.612   6.747   3.977 -0.4876  0.9038  0.5098
   27MOL   H65331905   7.756   6.839   3.949 -1.6597  1.2002 -3.1344
   27MOL   H65431906   0.000   6.525   3.981  0.5982  0.2545 -1.9233
   27MOL   H65531907   0.134   6.626   3.954 -0.8199  1.3289 -0.6776
   27MOL   H65631908   0.123   6.751   4.157 -1.2611  0.8393  0.3631
   27MOL   H65731909   7.733   6.649   4.209 -0.1688 -3.2890 -0.7729
   27MOL   H65831910   0.243   6.540   4.142  0.8870  1.4016  0.6770
   27MOL   H65931911   0.102   6.464   4.206 -0.0508 -0.1062 -2.9898
   27MOL   H66031912   0.120   6.590   4.420 -0.5655  1.5161 -0.8175
   27MOL   H66131913   0.260   6.486   4.386  1.3854 -0.3478 -1.6898
   27MOL   O66231914   0.395   6.690   4.458 -0.1305 -0.7992 -0.1931
   27MOL   C66331915   0.476   6.793   4.515 -0.8640  0.2960 -0.0188
   27MOL   C66431916   0.434   6.811   4.668 -0.3624  0.2743  0.3769
   27MOL   C66531917   0.297   6.876   4.689  0.1939 -0.1236  0.3684
   27MOL   C66631918   0.293   6.928   4.835  0.2173 -0.3978 -0.3697
   27MOL   C66731919   0.151   6.958   4.886  0.3186 -0.1300  0.4797
   27MOL   C66831920   0.057   6.841   4.871 -0.6902  0.1970  0.2348
   27MOL   C66931921   7.675   6.852   4.934  0.3620 -0.2574 -0.1897
   27MOL   C67031922   7.596   6.721   4.929 -0.5695  0.2982 -0.1409
   27MOL   C67131923   7.459   6.744   4.979  0.4123  0.0037  0.5269
   27MOL   C67231924   7.373   6.784   4.859  0.5745 -0.4250 -0.1068
   27MOL   O67331925   7.239   6.788   4.915 -0.0814 -0.0270  0.2665
   27MOL   C67431926   7.187   6.898   4.968 -0.1920  0.1132 -0.1164
   27MOL   O67531927   7.245   7.003   4.980  0.4028 -0.4399  0.7088
   27MOL   C67631928   7.053   6.873   5.032  0.0153 -0.4417 -0.0220
   27MOL   C67731929   7.051   6.858   5.182  0.0543 -0.2362  0.0051
   27MOL   C67831930   7.076   6.984   5.268  0.0022 -0.4727 -0.3327
   27MOL   C67931931   7.086   6.940   5.415 -0.0840 -0.5604  0.4492
   27MOL   C68031932   7.036   7.048   5.517 -0.1034 -0.0799 -0.6328
   27MOL   C68131933   7.033   6.991   5.655 -0.5518  0.4761 -0.5028
   27MOL   C68231934   6.992   7.092   5.765 -0.0365  0.4280 -0.2500
   27MOL   C68331935   6.844   7.107   5.803 -0.0973  0.6548 -0.4267
   27MOL   C68431936   6.743   7.164   5.700  0.2328 -0.3617 -0.2575
   27MOL   O68531937   6.645   7.103   5.657 -0.8998 -0.4918 -0.1352
   27MOL   H68631938   0.582   6.772   4.508 -0.9549 -0.8477  1.8204
   27MOL   H68731939   0.464   6.879   4.448  2.0592  0.7576 -0.0210
   27MOL   H68831940   0.447   6.721   4.728  2.2626 -0.0816 -0.6898
   27MOL   H68931941   0.510   6.877   4.709 -0.0999  0.3674 -0.2572
   27MOL   H69031942   0.296   6.958   4.618  0.7296 -1.4251 -1.1726
   27MOL   H69131943   0.225   6.798   4.665  0.9299 -0.8419  0.4827
   27MOL   H69231944   0.333   6.860   4.910 -1.7110 -1.2422 -0.0529
   27MOL   H69331945   0.354   7.018   4.837 -0.6339  0.2317 -1.6548
   27MOL   H69431946   0.108   7.043   4.833  2.6850 -0.5978 -2.3019
   27MOL   H69531947   0.159   6.985   4.992  2.0822 -3.1644  1.1753
   27MOL   H69631948   0.103   6.757   4.923 -0.5335 -1.1957 -2.1062
   27MOL   H69731949   0.046   6.800   4.771  1.6147  2.2104 -0.8804
   27MOL   H69831950   7.624   6.941   4.896 -0.2230 -1.8520 -3.2285
   27MOL   H69931951   7.695   6.871   5.040 -0.0723 -0.6407 -0.0366
   27MOL   H70031952   7.654   6.649   4.986 -1.2487 -0.3743 -0.2960
   27MOL   H70131953   7.588   6.689   4.825  1.3762 -0.2647 -0.1453
   27MOL   H70231954   7.414   6.660   5.032 -1.2768 -1.2011 -2.6976
   27MOL   H70331955   7.454   6.822   5.055 -2.0478  1.6447 -1.2430
   27MOL   H70431956   7.408   6.881   4.824 -0.6481  0.9903  2.4588
   27MOL   H70531957   7.369   6.713   4.777  1.5607  1.3840 -1.7668
   27MOL   H70631958   7.015   6.783   4.983  1.3914 -1.3999  0.6316
   27MOL   H70731959   6.990   6.951   4.988  0.8680  0.1607 -0.1965
   27MOL   H70831960   7.131   6.786   5.200  0.6382  0.6837  1.1448
   27MOL   H70931961   6.957   6.812   5.212  1.3629 -1.9229  1.6374
   27MOL   H71031962   6.982   7.037   5.255 -0.2986 -1.0128 -0.3967
   27MOL   H71131963   7.152   7.055   5.235 -1.4947  1.9197  1.2216
   27MOL   H71231964   7.192   6.928   5.434  0.1023 -0.7827 -0.7014
   27MOL   H71331965   7.035   6.846   5.436 -0.7963 -0.3199 -0.1404
   27MOL   H71431966   7.100   7.136   5.505 -0.0347 -0.1831 -1.0314
   27MOL   H71531967   6.939   7.083   5.483  1.6164  2.9227 -2.7978
   27MOL   H71631968   6.975   6.899   5.663 -1.2190  1.0489  1.6700
   27MOL   H71731969   7.139   6.977   5.680 -0.9084 -2.8763 -0.5747
   27MOL   H71831970   7.032   7.188   5.735 -0.9549  0.4287 -1.5362
   27MOL   H71931971   7.039   7.070   5.861 -0.9770 -2.2891 -0.3572
   27MOL   H72031972   6.804   7.010   5.830  3.7673 -1.7561 -2.8075
   27MOL   H72131973   6.841   7.177   5.887  0.3750  0.6050 -0.3633
   27MOL   O72231974   6.776   7.287   5.654  0.0789 -0.5469  0.5839
   27MOL   C72331975   6.739   7.337   5.526 -0.3259 -0.7038 -0.3878
   27MOL   C72431976   6.781   7.486   5.515  0.6277  0.4766  0.5265
   27MOL   C72531977   6.718   7.556   5.396  0.5931  0.3879  0.5917
   27MOL   C72631978   6.719   7.710   5.397  0.4169  0.6942  0.1857
   27MOL   C72731979   6.641   0.004   5.276 -0.4734 -0.9767  0.5010
   27MOL   C72831980   6.630   0.155   5.282 -0.1670  0.6097 -0.8411
   27MOL   C72931981   6.532   0.200   5.170 -0.5104 -0.2895  0.0108
   27MOL   C73031982   6.534   0.362   5.156 -0.1227  0.1626  0.1008
   27MOL   C73131983   6.408   0.412   5.074 -0.2927  0.1182 -0.6199
   27MOL   C73231984   6.400   0.562   5.053 -0.8915 -0.9508  0.1049
   27MOL   O73331985   6.402   0.638   5.176  0.3534  0.2510  0.1250
   27MOL   C73431986   6.455   0.767   5.178 -0.0770 -0.5053 -0.0586
   27MOL   O73531987   6.518   0.812   5.082  0.3265  0.9348 -0.4572
   27MOL   C73631988   6.443   0.838   5.311 -0.9243  0.5837 -0.3668
   27MOL   C73731989   6.301   0.895   5.330  0.1470  0.6184  0.5940
   27MOL   C73831990   6.286   0.969   5.471 -0.0479 -0.2035  0.5639
   27MOL   C73931991   6.176   1.072   5.490 -0.8849  0.0698  0.5798
   27MOL   C74031992   6.207   1.212   5.432  0.1063  0.0607 -0.4981
   27MOL   C74131993   6.099   1.322   5.459  0.2163 -0.3631 -0.4933
   27MOL   C74231994   6.136   1.465   5.401  0.6296 -0.4110  0.0877
   27MOL   C74331995   6.148   1.473   5.248 -0.5586  0.5825  0.2865
   27MOL   C74431996   6.180   1.610   5.194 -0.1199 -0.6199  0.2229
   27MOL   O74531997   6.276   1.627   5.116  0.2476 -0.1635  0.2515
   27MOL   H74631998   6.792   7.287   5.444  2.7690 -0.3161  1.2944
   27MOL   H74731999   6.632   7.319   5.528 -0.1903 -1.5187 -0.0217
   27MOL   H74832000   6.743   7.538   5.603 -2.4587  0.0623 -0.4984
   27MOL   H74932001   6.890   7.496   5.518  0.7506 -1.1793  1.6111
   27MOL   H75032002   6.768   7.527   5.304  1.2889 -1.1599  1.4373
   27MOL   H75132003   6.613   7.529   5.403 -0.1174  2.7000 -0.4494
   27MOL   H75232004   6.667   7.739   5.488 -1.3428  0.0292 -0.5877
   27MOL   H75332005   6.822   7.745   5.404  1.2246 -1.1217 -2.0574
   27MOL   H75432006   6.544   7.713   5.260 -0.1479 -0.6687 -2.8385
   27MOL   H75532007   6.681   7.732   5.178  0.9440 -0.0125  0.7835
   27MOL   H75632008   6.725   0.209   5.272 -0.1861  0.7529 -0.2584
   27MOL   H75732009   6.597   0.195   5.377  0.4461  2.4066 -1.3449
   27MOL   H75832010   6.432   0.170   5.201  0.0069 -2.4061 -0.3204
   27MOL   H75932011   6.562   0.151   5.078  1.4423 -0.2431  0.6009
   27MOL   H76032012   6.628   0.401   5.118 -0.8179  0.5974 -1.1891
   27MOL   H76132013   6.527   0.417   5.250 -0.5617 -0.0215  0.1776
   27MOL   H76232014   6.394   0.365   4.977 -1.2636 -1.4152  0.2385
   27MOL   H76332015   6.318   0.378   5.127 -0.1129 -1.9866 -1.6162
   27MOL   H76432016   6.482   0.597   4.990 -0.9656  0.5774  0.8518
   27MOL   H76532017   6.313   0.583   4.991 -0.8898 -1.1678  0.0298
   27MOL   H76632018   6.515   0.921   5.315 -1.2542  0.8558 -0.0288
   27MOL   H76732019   6.471   0.774   5.394 -0.3363  0.2105 -0.8447
   27MOL   H76832020   6.233   0.810   5.331  0.2234  0.5398 -0.1894
   27MOL   H76932021   6.268   0.960   5.249 -1.5087 -0.2604  0.5475
   27MOL   H77032022   6.378   1.025   5.491 -0.3062  1.0074 -1.5068
   27MOL   H77132023   6.278   0.886   5.542 -0.5270 -1.4839 -0.9556
   27MOL   H77232024   6.158   1.087   5.596  0.6947 -0.2377  0.9121
   27MOL   H77332025   6.084   1.035   5.444  0.5288 -0.4920 -1.9249
   27MOL   H77432026   6.301   1.246   5.475 -1.4053 -0.3443  3.3213
   27MOL   H77532027   6.214   1.209   5.323 -0.4290 -1.1747 -0.5121
   27MOL   H77632028   6.002   1.291   5.419 -0.5850 -0.7646  1.7166
   27MOL   H77732029   6.077   1.329   5.565  0.2082 -0.3026 -0.4992
   27MOL   H77832030   6.226   1.507   5.445  0.0026 -1.2636  2.2621
   27MOL   H77932031   6.066   1.543   5.431 -0.0298 -0.6071 -0.9103
   27MOL   H78032032   6.229   1.415   5.203 -3.2601 -0.9445 -2.8099
   27MOL   H78132033   6.059   1.443   5.193  1.8671 -1.0785 -2.9146
   27MOL   O78232034   6.102   1.709   5.223  0.2091  0.2930 -0.5261
   27MOL   C78332035   6.110   1.826   5.157  0.2786 -0.1375 -0.1886
   27MOL   C78432036   5.985   1.916   5.175 -0.6546  0.5655 -0.2347
   27MOL   C78532037   6.008   2.055   5.114 -0.2008 -0.8064  0.1738
   27MOL   C78632038   5.889   2.154   5.135 -0.0502  0.9074 -0.3453
   27MOL   C78732039   5.909   2.283   5.057  0.2339  0.5810 -0.5002
   27MOL   C78832040   5.799   2.388   5.068  0.5215 -0.4096 -0.2593
   27MOL   C78932041   5.804   2.459   5.199  0.5434  0.1350 -0.1901
   27MOL   C79032042   5.689   2.552   5.231  0.6007 -0.6090 -0.5702
   27MOL   C79132043   5.721   2.615   5.367  0.2006  0.4834  0.0866
   27MOL   C79232044   5.622   2.720   5.418  0.6533  0.4939 -0.6209
   27MOL   O79332045   5.640   2.839   5.343  0.3542  0.2373 -0.7109
   27MOL   C79432046   5.542   2.931   5.346 -0.4571 -0.1336  0.0646
   27MOL   O79532047   5.440   2.919   5.414 -0.5872 -0.2339  0.3150
   27MOL   C79632048   5.568   3.061   5.276 -0.3311 -0.6022  0.0984
   27MOL   C79732049   5.576   3.056   5.120 -0.3893 -0.6724 -0.2084
   27MOL   C79832050   5.446   3.007   5.055  0.6416 -0.8464 -0.0281
   27MOL   C79932051   5.328   3.091   5.104 -0.7584 -0.0776  0.5392
   27MOL   C80032052   5.200   3.066   5.020 -0.3951 -0.2459 -0.3602
   27MOL   C80132053   5.088   3.160   5.043  0.4128 -0.3802 -0.0206
   27MOL   C80232054   5.100   3.304   4.988 -0.2577  0.0265  0.0210
   27MOL   C80332055   4.971   3.391   5.009  0.3378 -0.0122 -0.0471
   27MOL   C80432056   4.952   3.441   5.150 -0.3295  0.2035 -0.0313
   27MOL   O80532057   5.020   3.403   5.244  0.4995  0.2042 -0.5037
   27MOL   H80632058   6.196   1.888   5.183  0.0460  1.3275 -2.7511
   27MOL   H80732059   6.122   1.794   5.054  1.7195 -0.6993  0.1369
   27MOL   H80832060   5.894   1.870   5.136  0.1467 -1.8968  0.6873
   27MOL   H80932061   5.973   1.922   5.283  0.1754  3.1585 -0.2569
   27MOL   H81032062   6.093   2.100   5.165  0.1179 -2.1275  0.8402
   27MOL   H81132063   6.041   2.040   5.011  0.7690 -0.1827  0.3871
   27MOL   H81232064   5.800   2.105   5.095 -0.1053  0.4765  0.2983
   27MOL   H81332065   5.866   2.178   5.238 -0.3653 -3.5754  0.7403
   27MOL   H81432066   5.928   2.269   4.950 -0.9631  1.8511 -0.8913
   27MOL   H81532067   6.005   2.328   5.083  1.1683 -1.2468 -0.7033
   27MOL   H81632068   5.702   2.339   5.056  0.8221 -0.8883 -0.7846
   27MOL   H81732069   5.818   2.463   4.991  0.4837  0.3967  0.5195
   27MOL   H81832070   5.894   2.520   5.206 -0.7505  2.2643 -1.5236
   27MOL   H81932071   5.817   2.387   5.279 -0.4694 -1.7210 -1.6547
   27MOL   H82032072   5.596   2.496   5.237 -0.4572  1.2615  0.8359
   27MOL   H82132073   5.686   2.625   5.150 -1.5194  0.0224  0.0650
   27MOL   H82232074   5.722   2.540   5.446 -1.0418  0.4602  0.1000
   27MOL   H82332075   5.819   2.662   5.359  0.9085 -1.1641 -1.2525
   27MOL   H82432076   5.524   2.674   5.406  0.7182  0.7344 -2.1473
   27MOL   H82532077   5.633   2.748   5.523  0.8099 -1.0818 -0.2060
   27MOL   H82632078   5.661   3.101   5.317  0.8968 -0.3072 -2.8756
   27MOL   H82732079   5.492   3.130   5.314 -0.6357 -1.4747  1.1097
   27MOL   H82832080   5.658   2.992   5.086 -0.5729  0.9552 -3.9863
   27MOL   H82932081   5.589   3.159   5.086 -0.2186 -1.2933 -2.0855
   27MOL   H83032082   5.423   2.907   5.090  1.0410 -0.7517  0.5196
   27MOL   H83132083   5.460   2.999   4.947  0.7020 -0.6878 -0.0331
   27MOL   H83232084   5.356   3.196   5.095  0.4737 -0.3395  1.1765
   27MOL   H83332085   5.311   3.067   5.209 -0.9883  0.0265  0.5258
   27MOL   H83432086   5.224   3.082   4.915 -1.3824 -1.3500 -0.7573
   27MOL   H83532087   5.161   2.964   5.018  0.4549 -0.5687 -2.8790
   27MOL   H83632088   5.000   3.118   4.995 -0.9168  1.2265  0.9520
   27MOL   H83732089   5.066   3.154   5.150 -3.4108  0.5627 -0.6829
   27MOL   H83832090   5.128   3.295   4.882 -1.4320 -1.2018 -0.1948
   27MOL   H83932091   5.177   3.362   5.039 -0.5695  0.2099  0.2795
   27MOL   H84032092   4.984   3.480   4.948 -0.7670 -0.0524 -0.3523
   27MOL   H84132093   4.890   3.330   4.967 -0.2599 -0.0422  1.1145
   27MOL   O84232094   4.852   3.535   5.157  0.1933 -0.1890  0.2752
   27MOL   C84332095   4.802   3.573   5.282  0.2788 -0.5384 -0.4991
   27MOL   C84432096   4.705   3.686   5.249  0.0543  0.4569  0.3836
   27MOL   C84532097   4.658   3.765   5.369  0.2866  0.2177 -0.8617
   27MOL   C84632098   4.578   3.680   5.474 -0.3704 -0.9613 -0.3961
   27MOL   C84732099   4.478   3.587   5.416 -0.0076 -0.7439 -0.5304
   27MOL   C84832100   4.367   3.531   5.506  0.1128  0.5519 -0.6613
   27MOL   C84932101   4.263   3.440   5.438  0.1795  0.3778  0.2051
   27MOL   C85032102   4.169   3.378   5.548  0.8213  0.3168 -0.6529
   27MOL   C85132103   4.080   3.269   5.495 -0.2057  0.0191 -0.2868
   27MOL   C85232104   3.981   3.220   5.597  0.4133 -0.8956  0.1255
   27MOL   O85332105   3.944   3.088   5.586  0.1558  0.3251 -0.0090
   27MOL   C85432106   3.853   3.041   5.498 -0.0709 -0.3450  0.0446
   27MOL   O85532107   3.789   3.115   5.427  0.4909 -0.1339 -0.0539
   27MOL   C85632108   3.833   2.891   5.507  0.8133 -0.0532 -0.5239
   27MOL   C85732109   3.959   2.811   5.500  0.1415 -0.7526  0.7369
   27MOL   C85832110   3.995   2.736   5.627  0.3786 -0.5512 -0.0151
   27MOL   C85932111   4.130   2.668   5.612 -0.1771  0.5926  0.7231
   27MOL   C86032112   4.169   2.592   5.734  0.1946  0.0804  0.0776
   27MOL   C86132113   4.276   2.481   5.700 -0.2876  0.7106 -0.0575
   27MOL   C86232114   4.336   2.413   5.816  0.2719  0.0250 -0.1451
   27MOL   C86332115   4.462   2.334   5.791  0.2616  0.0830  0.1596
   27MOL   C86432116   4.440   2.194   5.726  0.4017  0.4796  0.5553
   27MOL   O86532117   4.330   2.177   5.662 -0.5684  0.0628 -0.2705
   27MOL   H86632118   4.758   3.485   5.331  2.2641 -1.5029 -0.3918
   27MOL   H86732119   4.885   3.606   5.345  2.0223  2.2724 -4.1119
   27MOL   H86832120   4.764   3.746   5.180  0.6973  1.3873  1.7024
   27MOL   H86932121   4.619   3.649   5.194  1.7442 -0.9838 -1.3458
   27MOL   H87032122   4.734   3.830   5.412  0.2235  0.0526 -0.4960
   27MOL   H87132123   4.593   3.835   5.317  1.7018  0.0256 -2.9160
   27MOL   H87232124   4.651   3.627   5.536  1.1473  0.1367 -1.2099
   27MOL   H87332125   4.526   3.755   5.533  0.5306 -0.8781  0.3069
   27MOL   H87432126   4.529   3.507   5.362  0.9817 -1.9214  2.0507
   27MOL   H87532127   4.433   3.645   5.336  0.2758  1.9700  1.2314
   27MOL   H87632128   4.327   3.606   5.576  0.5233  0.8599 -0.7568
   27MOL   H87732129   4.426   3.465   5.569 -2.0192 -0.3756  0.4229
   27MOL   H87832130   4.317   3.363   5.384  0.8287  0.7366  0.3429
   27MOL   H87932131   4.202   3.498   5.369 -2.5206  0.1605  2.3269
   27MOL   H88032132   4.105   3.462   5.578 -0.9158 -0.9605 -0.7332
   27MOL   H88132133   4.217   3.344   5.640 -3.4460 -1.2816  1.0766
   27MOL   H88232134   4.022   3.292   5.406  1.7631 -0.7178 -1.7969
   27MOL   H88332135   4.152   3.191   5.470  0.8926  1.4075 -1.5278
   27MOL   H88432136   4.017   3.248   5.696 -1.3437  0.9183  0.2728
   27MOL   H88532137   3.889   3.276   5.584  1.6791  1.1514 -0.1625
   27MOL   H88632138   3.765   2.862   5.427  2.3993 -1.7350 -1.3008
   27MOL   H88732139   3.781   2.872   5.601  1.6631  0.5412  0.0792
   27MOL   H88832140   4.046   2.875   5.480 -0.8866  1.0571  1.9550
   27MOL   H88932141   3.933   2.736   5.425  1.3729  0.5022 -1.0125
   27MOL   H89032142   3.919   2.667   5.662  0.1803 -1.3816 -1.9926
   27MOL   H89132143   4.000   2.809   5.708  0.3181 -1.5140  0.8594
   27MOL   H89232144   4.206   2.742   5.586  1.9084 -1.2106  1.5299
   27MOL   H89332145   4.128   2.595   5.532  0.6415  0.7721  0.5336
   27MOL   H89432146   4.210   2.652   5.815  0.8669 -0.9139  0.4837
   27MOL   H89532147   4.079   2.547   5.777 -0.3307 -0.1690 -1.2638
   27MOL   H89632148   4.237   2.411   5.627 -0.2462  1.9128 -1.2576
   27MOL   H89732149   4.358   2.539   5.657  1.4354 -1.1346  0.6585
   27MOL   H89832150   4.260   2.350   5.862  0.1128  0.3968  0.1028
   27MOL   H89932151   4.355   2.494   5.887  2.6719 -0.5403 -0.1078
   27MOL   H90032152   4.525   2.400   5.731 -0.9117 -0.9309 -2.2787
   27MOL   H90132153   4.508   2.317   5.888 -0.0322  1.2793  0.5071
   27MOL   O90232154   4.546   2.110   5.735 -0.0950 -0.2429 -0.5288
   27MOL   C90332155   4.528   1.971   5.699  0.8132  0.0223  0.1255
   27MOL   C90432156   4.486   1.893   5.824 -0.0660  0.0476 -0.1784
   27MOL   C90532157   4.436   1.749   5.797  0.1226 -0.4056 -0.2780
   27MOL   C90632158   4.312   1.747   5.709 -0.2714 -0.2017  0.1119
   27MOL   C90732159   4.239   1.612   5.702  0.0362 -0.3226 -0.7266
   27MOL   C90832160   4.126   1.621   5.596 -0.1833 -0.0107 -0.3563
   27MOL   C90932161   4.055   1.484   5.583  0.1836  0.5129 -0.0698
   27MOL   C91032162   3.931   1.479   5.482  0.2206 -0.3483 -0.5513
   27MOL   C91132163   3.863   1.346   5.469 -0.4420 -0.1361  0.8028
   27MOL   C91232164   3.749   1.336   5.369 -0.7423 -0.2227  0.6640
   27MOL   O91332165   3.700   1.205   5.371  0.2213 -0.7725  0.2351
   27MOL   C91432166   3.578   1.183   5.325  0.0487 -0.2369 -0.7416
   27MOL   O91532167   3.515   1.256   5.255 -0.2833 -0.0533  0.2110
   27MOL   C91632168   3.535   1.042   5.355 -0.0404 -0.2855 -0.2812
   27MOL   C91732169   3.499   1.014   5.504  0.0438 -0.1613  0.4677
   27MOL   C91832170   3.368   1.080   5.542  0.2718 -0.2327 -0.2039
   27MOL   C91932171   3.337   1.078   5.690 -0.7813 -0.3592  0.9034
   27MOL   C92032172   3.312   0.942   5.749  0.8443  0.5873  0.4577
   27MOL   C92132173   3.183   0.872   5.701  0.4314 -0.3400  0.0825
   27MOL   C92232174   3.055   0.950   5.735 -0.5729 -0.1264 -0.0552
   27MOL   C92332175   2.927   0.867   5.755 -0.1635 -0.4152 -0.2578
   27MOL   C92432176   2.886   0.788   5.633  0.3456 -0.5880 -0.6786
   27MOL   O92532177   2.871   0.667   5.639  0.2850 -0.0601 -0.5290
   27MOL   H92632178   4.448   1.959   5.627  1.9202 -1.3751 -0.9010
   27MOL   H92732179   4.606   1.921   5.642 -0.0253 -0.2214 -0.8217
   27MOL   H92832180   4.562   1.887   5.902  1.3590  0.6756 -1.4934
   27MOL   H92932181   4.401   1.937   5.875  0.6794 -0.5886  1.6532
   27MOL   H93032182   4.516   1.690   5.754  0.2927  0.5132 -1.2598
   27MOL   H93132183   4.405   1.714   5.895 -0.4829  3.0588  0.8556
   27MOL   H93232184   4.241   1.824   5.740  0.0881  1.1669 -2.3905
   27MOL   H93332185   4.335   1.766   5.605 -1.0805 -1.5084 -0.3261
   27MOL   H93432186   4.204   1.588   5.802  2.2987 -2.5177 -0.3946
   27MOL   H93532187   4.315   1.539   5.674 -2.6814 -3.1125 -1.0478
   27MOL   H93632188   4.168   1.651   5.501  0.3636 -2.6448 -0.9879
   27MOL   H93732189   4.057   1.700   5.627 -0.0202  0.8669 -2.1912
   27MOL   H93832190   4.037   1.431   5.676  1.7067 -2.1637 -1.2348
   27MOL   H93932191   4.128   1.417   5.537  1.5506  0.0240  2.7316
   27MOL   H94032192   3.967   1.513   5.385 -0.0619  0.0716 -0.5123
   27MOL   H94132193   3.859   1.558   5.505  2.2642  0.3454  3.8380
   27MOL   H94232194   3.943   1.275   5.446  1.1818  0.6627  3.7274
   27MOL   H94332195   3.827   1.317   5.568 -1.8937 -1.6702 -0.1455
   27MOL   H94432196   3.675   1.411   5.397 -1.6601 -1.3714  1.3405
   27MOL   H94532197   3.782   1.360   5.268  0.1813 -1.7500  0.5832
   27MOL   H94632198   3.614   0.972   5.327  1.0611  0.5859  0.5977
   27MOL   H94732199   3.454   1.017   5.287  1.7207 -0.6372 -2.3130
   27MOL   H94832200   3.567   1.047   5.583 -0.1557  0.4135  0.4028
   27MOL   H94932201   3.487   0.907   5.521  0.1474 -0.4479 -1.1475
   27MOL   H95032202   3.280   1.044   5.489  0.8994  0.0538 -1.4430
   27MOL   H95132203   3.380   1.185   5.515 -1.2797 -0.5809 -2.4199
   27MOL   H95232204   3.248   1.135   5.717 -1.1469 -0.7789  0.5788
   27MOL   H95332205   3.422   1.122   5.743  0.7370 -1.4578 -0.5644
   27MOL   H95432206   3.400   0.878   5.743 -1.2737 -2.4928  1.4910
   27MOL   H95532207   3.302   0.973   5.853  0.1759  4.1169 -0.5802
   27MOL   H95632208   3.193   0.863   5.593 -0.2660  1.1979 -0.1122
   27MOL   H95732209   3.173   0.775   5.749  1.9577  0.9331  3.0823
   27MOL   H95832210   3.031   1.021   5.655  1.6874  0.3451 -0.3363
   27MOL   H95932211   3.072   1.017   5.819  0.7363  1.4365 -1.5203
   27MOL   H96032212   2.936   0.791   5.832 -2.7545  0.2129  0.7208
   27MOL   H96132213   2.839   0.924   5.785 -0.0476 -1.3096  1.8674
   27MOL   O96232214   2.890   0.858   5.521  0.0920  0.3811 -0.2018
   27MOL   C96332215   2.857   0.795   5.401  0.2218 -0.6831 -0.3334
   27MOL   C96432216   2.978   0.773   5.311  0.1689  0.6748  0.2787
   27MOL   C96532217   3.047   0.904   5.268  0.1515 -0.8432 -0.3043
   27MOL   C96632218   3.167   0.894   5.174 -0.5675 -0.3765  0.7577
   27MOL   C96732219   3.229   1.033   5.130  0.2965 -0.2153  0.1290
   27MOL   C96832220   3.352   1.019   5.038  0.0216  0.6972 -0.9205
   27MOL   C96932221   3.301   0.970   4.901  0.3883 -0.1028  0.6558
   27MOL   C97032222   3.411   0.980   4.796 -0.4080 -0.2841  0.6758
   27MOL   C97132223   3.348   0.951   4.659  0.7326 -0.3874 -0.1599
   27MOL   C97232224   3.445   0.944   4.542 -0.7149  1.1672 -0.1766
   27MOL   O97332225   3.537   0.834   4.576  0.3632 -0.1857 -0.2992
   27MOL   C97432226   3.511   0.706   4.538  0.7286  0.4098 -0.7331
   27MOL   O97532227   3.413   0.677   4.472  0.1084  0.6405 -0.8005
   27MOL   C97632228   3.611   0.594   4.577  0.1653 -0.4851  0.1596
   27MOL   C97732229   3.737   0.596   4.489  0.7788  0.3612  0.4567
   27MOL   C97832230   3.720   0.539   4.345  0.5938 -0.2351 -0.7868
   27MOL   C97932231   3.855   0.491   4.287 -0.0080 -0.7299 -0.8332
   27MOL   C98032232   3.831   0.464   4.134  0.0909 -0.7578  0.6304
   27MOL   C98132233   3.929   0.365   4.081  0.1553 -0.2349  0.6205
   27MOL   C98232234   4.071   0.412   4.114 -0.6735 -0.2797 -0.3008
   27MOL   C98332235   4.192   0.352   4.034 -0.6764  0.5243  0.4028
   27MOL   C98432236   4.334   0.392   4.084 -0.4546 -0.3205  0.2278
   27MOL   O98532237   4.409   0.473   4.032 -0.4528  0.3862 -0.2397
   27MOL   H98632238   2.814   0.695   5.402 -0.9113 -0.2251 -1.5799
   27MOL   H98732239   2.785   0.857   5.348 -1.6939 -2.2772  0.3398
   27MOL   H98832240   3.049   0.719   5.374  0.3787  0.2114 -0.3544
   27MOL   H98932241   2.956   0.716   5.221  0.2473  3.2361 -1.4423
   27MOL   H99032242   2.972   0.970   5.224  0.0150 -0.7132  0.1206
   27MOL   H99132243   3.086   0.948   5.360  0.2668 -1.9671  0.1853
   27MOL   H99232244   3.248   0.837   5.218  0.0704 -0.1112 -0.0645
   27MOL   H99332245   3.142   0.851   5.076 -3.2269 -0.5054  1.4505
   27MOL   H99432246   3.259   1.070   5.228 -0.6244  0.2937  0.2214
   27MOL   H99532247   3.161   1.102   5.081  1.4143 -0.3547 -1.6553
   27MOL   H99632248   3.423   0.946   5.077  0.7944  0.9341 -1.8632
   27MOL   H99732249   3.408   1.112   5.029 -0.2518  0.7969 -1.6006
   27MOL   H99832250   3.217   1.027   4.859  0.6454 -0.3776 -0.2360
   27MOL   H99932251   3.277   0.864   4.909 -0.2687 -0.1014 -1.0398
   27MOL     H132252   3.490   0.906   4.811 -0.7634 -1.4386 -2.6115
   27MOL     H232253   3.455   1.079   4.792  0.3817 -0.7034 -2.3967
   27MOL     H332254   3.294   0.856   4.660  0.9828 -0.5796 -2.7022
   27MOL     H432255   3.281   1.031   4.631  2.1374 -0.1754 -3.1537
   27MOL     H532256   3.396   0.916   4.448  2.2435 -2.5410 -0.7303
   27MOL     H632257   3.495   1.036   4.513 -0.2917 -0.2984 -4.4154
   27MOL     H732258   3.562   0.497   4.569  0.4252 -0.7024  1.1411
   27MOL     H832259   3.650   0.610   4.677  0.7347  1.7123 -0.3721
   27MOL     H932260   3.800   0.526   4.543 -0.0186  0.2155  1.2085
   27MOL    H1032261   3.783   0.695   4.486  2.2430 -0.3234 -0.1290
   27MOL    H1132262   3.680   0.615   4.278 -2.3629 -1.7720 -0.8435
   27MOL    H1232263   3.654   0.453   4.341  1.0318 -0.6716  0.7437
   27MOL    H1332264   3.897   0.410   4.345 -0.6702 -1.3415 -1.2009
   27MOL    H1432265   3.917   0.581   4.286  1.5466 -1.7069  1.6214
   27MOL    H1532266   3.730   0.425   4.123 -1.0174  1.6771  1.7591
   27MOL    H1632267   3.832   0.556   4.074 -3.9929  0.4823  2.2467
   27MOL    H1732268   3.906   0.275   4.139 -1.4878 -0.8658 -0.9527
   27MOL    H1832269   3.914   0.345   3.975 -1.7499 -0.0454  0.8285
   27MOL    H1932270   4.084   0.413   4.223  0.9516 -0.1479 -0.4902
   27MOL    H2032271   4.075   0.519   4.095 -0.6523 -0.2321 -0.0368
   27MOL    H2132272   4.185   0.244   4.028  0.2133  0.6062 -2.9924
   27MOL    H2232273   4.184   0.399   3.936 -0.9138  4.6787  2.2703
   27MOL    O2332274   4.368   0.311   4.183  0.2237 -0.0983 -0.0368
   27MOL    C2432275   4.493   0.322   4.231  0.5607 -0.5165  0.5277
   27MOL    C2532276   4.532   0.217   4.335 -0.1137 -0.6561 -0.2907
   27MOL    C2632277   4.546   0.076   4.274 -0.1460 -0.6055 -0.3822
   27MOL    C2732278   4.619   7.736   4.372 -0.2218  0.5421  0.2757
   27MOL    C2832279   4.627   7.589   4.328  0.2597 -0.1934 -0.7419
   27MOL    C2932280   4.492   7.526   4.303  0.4408 -0.5057 -0.2583
   27MOL    C3032281   4.494   7.377   4.296  0.0074  0.0431  0.0853
   27MOL    C3132282   4.355   7.308   4.278 -0.7036 -0.5575 -0.1184
   27MOL    C3232283   4.367   7.160   4.258 -0.4078  0.1986 -0.9431
   27MOL    C3332284   4.225   7.094   4.244 -0.0372  0.2720 -0.3249
   27MOL    O3432285   4.145   7.158   4.141 -0.6773 -0.5162  0.2649
   27MOL    C3532286   4.021   7.135   4.140 -0.1472 -0.1914  0.5250
   27MOL    O3632287   3.967   7.065   4.226 -0.2089 -0.3074 -0.0448
   27MOL    C3732288   3.949   7.179   4.014  0.2747  0.1083 -0.2229
   27MOL    C3832289   3.806   7.143   3.993  0.4536  0.3035  0.0160
   27MOL    C3932290   3.771   6.991   3.983  0.6465 -0.5725 -0.2844
   27MOL    C4032291   3.835   6.917   3.868  0.3107 -0.6910  0.1692
   27MOL    C4132292   3.776   6.955   3.729 -0.1676  0.5745  0.3650
   27MOL    C4232293   3.833   6.865   3.617  0.3326 -0.0062  0.0637
   27MOL    C4332294   3.771   6.902   3.475 -0.1537  0.0783 -0.5867
   27MOL    C4432295   3.850   6.847   3.359 -0.2940 -0.5740 -0.0870
   27MOL    C4532296   3.808   6.873   3.213 -0.0671 -0.2237  0.2672
   27MOL    O4632297   3.875   6.838   3.111  0.1772 -0.1394 -0.3768
   27MOL    H4732298   4.566   0.318   4.150  0.7071  2.9443  0.3973
   27MOL    H4832299   4.504   0.424   4.268 -2.3577  0.6916 -1.8356
   27MOL    H4932300   4.620   0.262   4.381  0.7545 -0.1231 -2.4059
   27MOL    H5032301   4.452   0.221   4.409 -2.4398 -1.7370 -2.6845
   27MOL    H5132302   4.445   0.039   4.256 -0.6351  1.0742 -1.1383
   27MOL    H5232303   4.576   0.082   4.170 -2.7741 -4.8742 -1.5159
   27MOL    H5332304   4.723   0.012   4.383 -0.2299 -0.3213  3.3335
   27MOL    H5432305   4.575   7.748   4.471 -0.7818  0.4174  0.0393
   27MOL    H5532306   4.666   7.530   4.411 -2.2606 -0.7053  0.1361
   27MOL    H5632307   4.685   7.578   4.236 -0.9806  1.0065 -1.6908
   27MOL    H5732308   4.451   7.562   4.208  0.8607 -1.0440 -0.6460
   27MOL    H5832309   4.425   7.559   4.383  0.7533 -0.1901 -0.1291
   27MOL    H5932310   4.550   7.327   4.375  3.0129  2.2210 -0.5654
   27MOL    H6032311   4.532   7.351   4.197 -3.4439 -0.8589 -1.0542
   27MOL    H6132312   4.310   7.348   4.187  0.3994  1.8088  0.3277
   27MOL    H6232313   4.288   7.328   4.362 -0.5489 -1.7204  0.2820
   27MOL    H6332314   4.434   7.128   4.178 -2.0047 -0.9934 -1.8368
   27MOL    H6432315   4.420   7.115   4.342 -2.0534 -2.0911 -1.0708
   27MOL    H6532316   4.242   6.989   4.218  2.0217 -0.0355  2.1524
   27MOL    H6632317   4.159   7.090   4.330  0.8439  0.0423  0.3540
   27MOL    H6732318   4.003   7.150   3.924  1.6013 -0.1019  0.6115
   27MOL    H6832319   3.964   7.286   4.002 -0.9594  0.1683 -1.2902
   27MOL    H6932320   3.787   7.188   3.896  0.8384 -0.2430 -0.3190
   27MOL    H7032321   3.748   7.197   4.067  2.3902 -0.4137  2.1187
   27MOL    H7132322   3.665   6.975   3.964  0.7011 -0.3262 -0.8060
   27MOL    H7232323   3.788   6.947   4.081  1.1800 -0.2182 -0.2134
   27MOL    H7332324   3.820   6.810   3.883  0.2831 -0.4239  2.1216
   27MOL    H7432325   3.940   6.945   3.864  0.5102 -1.4275  0.0325
   27MOL    H7532326   3.669   6.939   3.741  0.3969 -2.6474  1.7832
   27MOL    H7632327   3.780   7.062   3.710 -0.7572  0.4508 -0.5077
   27MOL    H7732328   3.942   6.860   3.616  0.3605  0.7247 -1.4244
   27MOL    H7832329   3.810   6.765   3.653  1.6001 -0.5630 -0.6239
   27MOL    H7932330   3.756   7.009   3.467  2.1740  0.3576 -1.4771
   27MOL    H8032331   3.669   6.866   3.489 -0.6721  1.9046  0.5542
   27MOL    H8132332   3.955   6.875   3.368 -0.3823 -0.5592  1.0770
   27MOL    H8232333   3.842   6.740   3.379  3.2470 -0.7118  1.0177
   27MOL    O8332334   3.687   6.930   3.203  0.2707  0.5744 -1.0928
   27MOL    C8432335   3.641   6.977   3.077 -0.0460 -0.2758 -0.1760
   27MOL    C8532336   3.499   7.027   3.092  0.9264 -0.6608 -0.0064
   27MOL    C8632337   3.403   6.914   3.136  0.3008  0.2085  0.0241
   27MOL    C8732338   3.252   6.967   3.130 -0.3520  0.1920  0.6384
   27MOL    C8832339   3.152   6.858   3.188 -0.4799 -0.1707 -0.1317
   27MOL    C8932340   3.013   6.918   3.207  0.0805  0.1875  0.5783
   27MOL    C9032341   2.911   6.819   3.255  0.3443 -0.1683  0.7260
   27MOL    C9132342   2.938   6.772   3.401 -0.6711  0.4208 -0.4409
   27MOL    C9232343   2.853   6.651   3.442 -0.5025  0.0514 -0.3118
   27MOL    C9332344   2.705   6.674   3.475  0.1959 -0.2124 -0.4005
   27MOL    O9432345   2.693   6.731   3.602  0.5704  0.0530 -0.2568
   27MOL    C9532346   2.576   6.726   3.673  0.1045  0.0936 -0.0440
   27MOL    O9632347   2.476   6.665   3.637 -0.4472  0.4693 -0.0195
   27MOL    C9732348   2.584   6.790   3.808 -0.0321 -0.2680 -0.9017
   27MOL    C9832349   2.567   6.682   3.922 -0.4190 -0.3200 -0.4627
   27MOL    C9932350   2.664   6.702   4.042  0.0798  0.1587  0.1249
   27MOL   C10032351   2.614   6.794   4.153  0.2510  0.0581 -0.2917
   27MOL   C10132352   2.719   6.810   4.265 -0.1200 -0.0976 -0.0053
   27MOL   C10232353   2.685   6.907   4.375 -0.5483 -1.0184 -0.0127
   27MOL   C10332354   2.814   6.942   4.459 -0.5801 -0.5326 -0.8910
   27MOL   C10432355   2.867   6.831   4.549 -0.4133 -0.0926  0.4538
   27MOL   C10532356   2.959   6.726   4.487 -0.4770 -0.2419  0.5148
   27MOL   O10632357   2.922   6.608   4.483  0.3482  0.1239  0.4285
   27MOL   H10732358   3.707   7.059   3.050 -2.0386  1.1351 -0.9187
   27MOL   H10832359   3.637   6.895   3.006  0.1881 -0.2648 -0.2006
   27MOL   H10932360   3.498   7.103   3.170  0.4931 -0.0335 -0.6181
   27MOL   H11032361   3.461   7.078   3.003 -3.1110 -0.1432  1.9084
   27MOL   H11132362   3.409   6.828   3.069  0.0856 -0.5834  1.0269
   27MOL   H11232363   3.419   6.882   3.239  0.5043  0.6230  0.1231
   27MOL   H11332364   3.242   7.054   3.194  0.0675 -0.6277  1.8510
   27MOL   H11432365   3.231   6.999   3.028 -0.9577  1.2493  1.0989
   27MOL   H11532366   3.199   6.821   3.279 -0.1514 -3.0263 -1.4175
   27MOL   H11632367   3.145   6.781   3.110 -1.0480  0.6860 -0.9437
   27MOL   H11732368   2.983   6.958   3.110  1.0960 -0.7747 -0.1420
   27MOL   H11832369   3.008   7.001   3.278 -0.1882  0.5014  0.1957
   27MOL   H11932370   2.918   6.730   3.193 -2.8539  0.2952 -0.3950
   27MOL   H12032371   2.805   6.848   3.253  0.3004 -0.2268  1.7556
   27MOL   H12132372   2.924   6.849   3.477 -1.6548  0.1481 -0.3412
   27MOL   H12232373   3.045   6.748   3.406 -1.2562 -1.8663  1.8249
   27MOL   H12332374   2.860   6.570   3.369  3.5416  0.0803 -0.0467
   27MOL   H12432375   2.894   6.609   3.533  0.7127  0.2654 -0.7540
   27MOL   H12532376   2.653   6.728   3.395 -2.6594 -2.1521  0.0616
   27MOL   H12632377   2.658   6.580   3.503 -2.7017  1.3382  0.1075
   27MOL   H12732378   2.503   6.863   3.811 -2.2670 -2.6679 -1.0133
   27MOL   H12832379   2.677   6.846   3.812 -2.0063  3.1881 -1.8394
   27MOL   H12932380   2.601   6.589   3.878 -0.9873 -0.4739 -0.5740
   27MOL   H13032381   2.462   6.673   3.951 -0.0630 -0.5598  0.8005
   27MOL   H13132382   2.755   6.747   4.001 -0.2701  0.7677  0.0107
   27MOL   H13232383   2.694   6.609   4.090  1.1064  0.1890 -0.4412
   27MOL   H13332384   2.513   6.766   4.179  0.1552  0.7468  0.0875
   27MOL   H13432385   2.599   6.897   4.120  3.8065  2.0375  3.7742
   27MOL   H13532386   2.731   6.711   4.310  0.1230  0.4992  1.2745
   27MOL   H13632387   2.810   6.840   4.212 -1.3332 -0.0453 -2.1075
   27MOL   H13732388   2.658   7.000   4.325  1.1223 -0.6474 -0.2417
   27MOL   H13832389   2.594   6.888   4.431  0.4676 -0.5634  1.8247
   27MOL   H13932390   2.785   7.022   4.527 -0.7621 -0.5758 -0.9175
   27MOL   H14032391   2.899   6.985   4.407 -0.0648  1.5950  1.6015
   27MOL   H14132392   2.931   6.866   4.630 -1.1461 -1.3223  1.5978
   27MOL   H14232393   2.782   6.781   4.595 -1.7206 -0.4499 -2.2460
   27MOL   O14332394   3.076   6.780   4.449  0.3075 -1.0818  0.4497
   27MOL   C14432395   3.172   6.696   4.394 -1.1028  0.2452 -0.1971
   27MOL   C14532396   3.260   6.762   4.282  1.0368  0.0786  0.2591
   27MOL   C14632397   3.364   6.665   4.221  0.7645  0.3529 -0.0033
   27MOL   C14732398   3.392   6.687   4.070 -0.1588 -0.2987 -0.6417
   27MOL   C14832399   3.524   6.616   4.027 -0.2530 -0.0234  0.2499
   27MOL   C14932400   3.546   6.594   3.877 -0.1969 -0.4748  0.2434
   27MOL   C15032401   3.677   6.530   3.838 -0.0150 -0.1478 -0.0717
   27MOL   C15132402   3.708   6.516   3.684 -0.2542  0.2237  1.6900
   27MOL   C15232403   3.855   6.495   3.648 -0.1649 -0.1184  0.2436
   27MOL   C15332404   3.874   6.477   3.497 -0.4323 -0.5138  0.1790
   27MOL   O15432405   4.019   6.478   3.473  0.1331  0.5269  0.1081
   27MOL   C15532406   4.078   6.415   3.369 -0.2553  0.1912 -0.3304
   27MOL   O15632407   4.030   6.347   3.281  0.4192 -0.5026  0.1912
   27MOL   C15732408   4.230   6.421   3.386 -0.8312 -0.6064  0.5651
   27MOL   C15832409   4.291   6.563   3.376  0.1440 -0.1926  0.3270
   27MOL   C15932410   4.311   6.637   3.512 -0.2968  0.0437 -0.1015
   27MOL   C16032411   4.364   6.783   3.486 -0.1107  0.3651  0.0698
   27MOL   C16132412   4.499   6.789   3.405 -0.5425 -0.0514  0.0575
   27MOL   C16232413   4.539   6.939   3.404  0.2129 -0.2987 -0.0407
   27MOL   C16332414   4.671   6.970   3.332  0.1137 -0.6505 -0.3952
   27MOL   C16432415   4.637   6.987   3.179  0.6456 -0.2023 -1.2569
   27MOL   C16532416   4.761   7.013   3.092  0.7946 -0.6544  0.0860
   27MOL   O16632417   4.866   7.061   3.136 -0.2679  0.4527 -0.6228
   27MOL   H16732418   3.230   6.677   4.484 -0.0741 -0.1653 -0.9357
   27MOL   H16832419   3.137   6.597   4.365  0.8537 -1.0463  1.7630
   27MOL   H16932420   3.190   6.789   4.203  0.7680  0.5177  0.6490
   27MOL   H17032421   3.304   6.854   4.318  0.2209  0.2579  0.8085
   27MOL   H17132422   3.459   6.672   4.273  0.4101 -0.1080  0.7072
   27MOL   H17232423   3.329   6.563   4.237  1.0589  0.3103  0.3595
   27MOL   H17332424   3.315   6.640   4.008 -1.0405  1.5957 -1.0034
   27MOL   H17432425   3.397   6.791   4.037  1.4424 -0.1168  0.1363
   27MOL   H17532426   3.516   6.518   4.073 -1.9105  0.0576  0.1580
   27MOL   H17632427   3.619   6.659   4.060 -0.1566  0.1727 -0.2711
   27MOL   H17732428   3.544   6.690   3.825 -3.7304 -0.3474  0.4494
   27MOL   H17832429   3.467   6.530   3.838 -0.7043 -0.3184  0.9889
   27MOL   H17932430   3.672   6.431   3.883  1.7301 -1.3268 -2.3982
   27MOL   H18032431   3.749   6.595   3.888  0.1254  0.5283 -1.1460
   27MOL   H18132432   3.675   6.611   3.643  0.9593 -0.0561  0.0293
   27MOL   H18232433   3.647   6.438   3.638  0.2750 -0.4634  2.1398
   27MOL   H18332434   3.914   6.581   3.681 -1.6447  0.2266  2.0919
   27MOL   H18432435   3.894   6.401   3.685 -0.7439  0.3342  2.0579
   27MOL   H18532436   3.833   6.382   3.462  0.1615 -0.7772  0.1893
   27MOL   H18632437   3.823   6.559   3.445 -1.7796 -2.0109 -0.9000
   27MOL   H18732438   4.274   6.356   3.310  1.3345  1.4154  0.0016
   27MOL   H18832439   4.252   6.385   3.487  0.9252  0.6668  0.6739
   27MOL   H18932440   4.217   6.621   3.321 -1.6388 -0.4888  2.2972
   27MOL   H19032441   4.380   6.560   3.313  0.4207  1.1799  0.6283
   27MOL   H19132442   4.389   6.588   3.570 -0.0005  0.3283 -0.2599
   27MOL   H19232443   4.217   6.633   3.567 -0.1210  2.3701  0.3876
   27MOL   H19332444   4.368   6.836   3.581  2.3475 -0.6898  0.5865
   27MOL   H19432445   4.288   6.825   3.420  0.6675  0.1471 -0.9838
   27MOL   H19532446   4.571   6.725   3.455 -0.5218 -0.6640 -0.7673
   27MOL   H19632447   4.489   6.744   3.307 -0.4463  0.3376 -0.1328
   27MOL   H19732448   4.461   7.011   3.377  0.7450  0.8749  1.4376
   27MOL   H19832449   4.560   6.964   3.508 -1.8947  1.3061  0.0317
   27MOL   H19932450   4.746   6.892   3.343  0.6717 -0.0120  0.3253
   27MOL   H20032451   4.721   7.058   3.372 -1.8319  0.9171 -1.3227
   27MOL   H20132452   4.604   6.888   3.147 -0.5964 -1.0788  2.4054
   27MOL   H20232453   4.560   7.061   3.162 -1.2706 -2.0341 -0.8144
   27MOL   H20332454   4.741   6.993   2.987 -1.0459 -2.4027  0.7331
   28MOL     O132455   5.587   0.905   4.255  0.1072  0.4346 -0.3480
   28MOL     C232456   5.589   1.043   4.239 -0.4968 -0.1063 -0.7058
   28MOL     C332457   5.495   1.083   4.123 -0.5054  0.1303 -0.2386
   28MOL     C432458   5.564   1.175   4.015  0.1301 -0.3158  0.3740
   28MOL     C532459   5.475   1.200   3.891 -0.9057 -0.2515 -0.5411
   28MOL     C632460   5.533   1.303   3.787 -0.4202 -0.4563 -0.4562
   28MOL     C732461   5.441   1.326   3.667  0.1562  0.0624  0.5079
   28MOL     C832462   5.520   1.362   3.542 -0.1722  0.1169  0.5841
   28MOL     C932463   5.429   1.419   3.432 -0.4069  0.5700  0.3163
   28MOL    C1032464   5.518   1.422   3.309  0.3911 -0.0771 -0.6992
   28MOL    C1132465   5.614   1.540   3.315 -0.3062  0.6907  0.5147
   28MOL    O1232466   5.641   1.578   3.179  0.0986  0.2866 -0.5665
   28MOL    C1332467   5.759   1.552   3.129 -0.6105 -0.2377  0.3231
   28MOL    O1432468   5.857   1.505   3.192 -0.3886 -0.1339 -0.3584
   28MOL    C1532469   5.764   1.576   2.975 -0.1939 -0.4116 -0.0261
   28MOL    C1632470   5.749   1.718   2.926 -0.5385  0.2655 -0.1116
   28MOL    C1732471   5.811   1.725   2.784  0.1179 -0.3454 -0.3958
   28MOL    C1832472   5.808   1.869   2.732  0.7379  0.1848  0.4568
   28MOL    C1932473   5.845   1.892   2.580  0.0716 -0.4904 -0.5602
   28MOL    C2032474   5.857   2.038   2.543 -0.0027 -0.0122 -0.2903
   28MOL    C2132475   5.884   2.063   2.391 -0.5599 -0.3684  0.3495
   28MOL    C2232476   5.923   2.216   2.369 -0.4183  0.6143 -0.2639
   28MOL    C2332477   6.057   2.240   2.425 -0.0639  0.3928  0.3128
   28MOL    O2432478   6.160   2.184   2.386  0.0937  0.6469 -0.6687
   28MOL    H2532479   5.576   1.076   4.342  0.4784 -2.9023  0.3635
   28MOL    H2632480   5.692   1.075   4.222 -0.5316  0.0120 -0.6923
   28MOL    H2732481   5.472   0.993   4.066  1.4044 -0.2706 -0.4171
   28MOL    H2832482   5.404   1.130   4.162 -0.0255  1.1072 -0.2844
   28MOL    H2932483   5.594   1.264   4.069 -1.9065  1.0644 -0.6542
   28MOL    H3032484   5.655   1.124   3.984 -0.5486 -0.6840 -1.1231
   28MOL    H3132485   5.446   1.104   3.849 -1.1548 -1.1023  1.5303
   28MOL    H3232486   5.373   1.233   3.911 -1.4177 -2.0444 -0.1400
   28MOL    H3332487   5.630   1.266   3.755 -0.2447  0.4173 -0.9370
   28MOL    H3432488   5.551   1.398   3.837 -0.5965 -0.6563 -0.0031
   28MOL    H3532489   5.368   1.406   3.679  1.0800  1.2610 -1.5395
   28MOL    H3632490   5.376   1.241   3.648 -0.0588  0.3688 -0.1589
   28MOL    H3732491   5.568   1.271   3.508  1.9959  2.3023 -2.4375
   28MOL    H3832492   5.606   1.424   3.566  1.2173 -2.7145  3.1509
   28MOL    H3932493   5.383   1.517   3.447 -2.3053 -0.3211  0.4671
   28MOL    H4032494   5.343   1.353   3.424 -0.0812  0.1740  0.0735
   28MOL    H4132495   5.568   1.331   3.275 -0.7870 -1.3282  0.8827
   28MOL    H4232496   5.454   1.442   3.222 -1.9798 -1.8610  0.5724
   28MOL    H4332497   5.556   1.618   3.364 -2.2490  0.7148 -1.7348
   28MOL    H4432498   5.710   1.523   3.364  0.1132  0.9443 -0.1987
   28MOL    H4532499   5.694   1.513   2.920  0.0993  1.7149 -2.9724
   28MOL    H4632500   5.862   1.535   2.951  0.6730  2.0078 -0.7194
   28MOL    H4732501   5.803   1.776   3.002 -0.5981 -0.1193  0.2257
   28MOL    H4832502   5.642   1.738   2.926 -1.4804 -4.2042 -1.5340
   28MOL    H4932503   5.755   1.671   2.708 -0.3192 -0.4250 -0.0154
   28MOL    H5032504   5.916   1.698   2.769  1.0401  0.4463  3.8441
   28MOL    H5132505   5.881   1.928   2.788  1.4372  0.7958 -1.0746
   28MOL    H5232506   5.711   1.912   2.758  0.2589  0.0720 -1.1150
   28MOL    H5332507   5.941   1.840   2.572 -0.2652 -0.9390 -1.7945
   28MOL    H5432508   5.775   1.854   2.506  0.5613  1.1680 -1.9405
   28MOL    H5532509   5.766   2.091   2.570 -1.6691 -1.6230 -2.4958
   28MOL    H5632510   5.931   2.075   2.613  2.8574 -4.4187 -0.7936
   28MOL    H5732511   5.798   2.036   2.329 -0.9538  2.1570 -0.2538
   28MOL    H5832512   5.970   2.003   2.362 -0.0856  0.2344  0.5246
   28MOL    H5932513   5.934   2.247   2.265 -0.0112  0.0759 -0.3870
   28MOL    H6032514   5.851   2.286   2.411 -0.5588  0.4107 -0.1617
   28MOL    H6132515   5.678   0.886   4.271  0.2443  0.4060 -1.1343
   28MOL    O6232516   6.048   2.328   2.515 -0.0596  0.1845 -0.4354
   28MOL    C6332517   6.148   2.376   2.598 -0.4531 -0.2490 -0.2785
   28MOL    C6432518   6.146   2.529   2.592  0.4300 -0.3200  0.3890
   28MOL    C6532519   6.257   2.605   2.660 -0.7172 -0.4886  0.5219
   28MOL    C6632520   6.270   2.755   2.610  1.0910  0.0174  0.1553
   28MOL    C6732521   6.369   2.846   2.687 -0.3224  0.7788  0.0207
   28MOL    C6832522   6.385   2.992   2.634  0.5460  0.5756  0.6086
   28MOL    C6932523   6.502   3.066   2.711 -0.9066 -0.6177 -0.3855
   28MOL    C7032524   6.538   3.209   2.651 -0.1241 -0.5317  0.5429
   28MOL    C7132525   6.616   3.212   2.516  0.6901  0.1490 -0.3052
   28MOL    C7232526   6.682   3.346   2.471 -0.2168 -0.0039  0.5688
   28MOL    O7332527   6.713   3.348   2.326 -0.7552  0.4786  0.2171
   28MOL    C7432528   6.618   3.367   2.233 -0.5485 -0.7633  0.3490
   28MOL    O7532529   6.499   3.387   2.253  0.1350 -0.2735 -0.4310
   28MOL    C7632530   6.681   3.391   2.093  0.4647 -0.0534  0.2406
   28MOL    C7732531   6.750   3.266   2.033  0.9242 -0.1299  0.5146
   28MOL    C7832532   6.666   3.140   2.033 -0.2558  0.1110  0.4527
   28MOL    C7932533   6.744   3.022   1.966 -0.0161 -0.4138  0.8729
   28MOL    C8032534   6.691   2.888   2.002  0.3262 -0.1183 -0.1188
   28MOL    C8132535   6.729   2.836   2.143 -0.1520  0.0260 -0.2381
   28MOL    C8232536   6.636   2.888   2.259 -0.0084  0.9812  0.5307
   28MOL    C8332537   6.618   2.794   2.372  0.0936  0.0050 -0.1145
   28MOL    C8432538   6.739   2.753   2.449 -0.6405 -0.5661  0.8072
   28MOL    O8532539   6.774   2.633   2.454  0.4076 -0.0267  0.0282
   28MOL    H8632540   6.131   2.349   2.703  0.9645 -3.2926 -0.7567
   28MOL    H8732541   6.247   2.336   2.574  0.3407 -0.6519  3.2602
   28MOL    H8832542   6.168   2.548   2.487 -0.2607  0.2579  0.3463
   28MOL    H8932543   6.049   2.564   2.626  1.2579  1.7347  0.7183
   28MOL    H9032544   6.246   2.621   2.767 -0.6460  1.2710  0.2900
   28MOL    H9132545   6.360   2.570   2.653 -0.6727 -0.1854 -0.4898
   28MOL    H9232546   6.272   2.755   2.501 -2.6191  1.7538 -0.0122
   28MOL    H9332547   6.172   2.801   2.630 -0.0180 -0.9740 -2.7795
   28MOL    H9432548   6.467   2.799   2.675 -0.3654  0.7096 -0.0660
   28MOL    H9532549   6.330   2.854   2.788 -1.6881  0.0001 -0.4319
   28MOL    H9632550   6.290   3.042   2.655 -0.3603  0.0302 -2.0162
   28MOL    H9732551   6.391   2.992   2.525  0.3324  0.1419  0.5955
   28MOL    H9832552   6.587   2.999   2.727 -0.6233 -0.2671 -0.4205
   28MOL    H9932553   6.463   3.070   2.813 -0.9336 -3.6378 -0.2437
   28MOL   H10032554   6.606   3.251   2.725  1.1305 -2.0007  0.2348
   28MOL   H10132555   6.452   3.276   2.646  1.7196  1.7246 -2.5758
   28MOL   H10232556   6.689   3.131   2.514 -0.7695 -1.1778 -0.3096
   28MOL   H10332557   6.543   3.189   2.439  0.3797 -3.0643  0.8797
   28MOL   H10432558   6.609   3.424   2.489  0.8631  1.4418 -1.0818
   28MOL   H10532559   6.770   3.371   2.530  0.8578 -1.4837 -0.3638
   28MOL   H10632560   6.761   3.465   2.094 -1.3307  1.9323  2.4680
   28MOL   H10732561   6.609   3.433   2.023  1.7170 -0.2710 -1.2025
   28MOL   H10832562   6.836   3.243   2.095  1.3548  2.2241  0.8589
   28MOL   H10932563   6.784   3.289   1.933 -1.8486  1.4631 -0.1320
   28MOL   H11032564   6.575   3.154   1.975 -1.3789  1.1730  2.4077
   28MOL   H11132565   6.643   3.118   2.138  2.7455 -2.1748  0.6781
   28MOL   H11232566   6.850   3.028   1.989  0.5426 -1.1539 -1.3750
   28MOL   H11332567   6.712   3.028   1.862 -0.8838 -1.3337  1.0710
   28MOL   H11432568   6.584   2.889   1.981  0.4927  1.7895 -0.9133
   28MOL   H11532569   6.726   2.819   1.925  1.3354 -1.2224  1.2900
   28MOL   H11632570   6.736   2.728   2.149 -0.5205  0.0038 -0.2034
   28MOL   H11732571   6.833   2.860   2.164  0.0706 -0.7901 -0.3901
   28MOL   H11832572   6.540   2.906   2.212  0.6199  0.7294 -0.8887
   28MOL   H11932573   6.683   2.980   2.293  0.3507  1.6405 -1.6412
   28MOL   H12032574   6.548   2.838   2.444 -0.1058  1.3042 -1.0939
   28MOL   H12132575   6.580   2.702   2.329 -2.1922  0.6705  0.4125
   28MOL   O12232576   6.804   2.859   2.504  0.2264 -0.1721 -0.3506
   28MOL   C12332577   6.927   2.841   2.577  0.1339 -0.3448 -0.0884
   28MOL   C12432578   7.039   2.935   2.526  0.7028  0.3686 -0.1586
   28MOL   C12532579   7.010   3.083   2.517 -0.7189 -0.0653 -0.5785
   28MOL   C12632580   7.121   3.159   2.441  0.4494 -0.2639 -0.6431
   28MOL   C12732581   7.098   3.305   2.421 -0.4468  0.1769  0.2651
   28MOL   C12832582   7.058   3.380   2.549 -0.1994 -0.6765 -0.1282
   28MOL   C12932583   7.023   3.523   2.518 -0.5297 -1.0243  0.4561
   28MOL   C13032584   6.982   3.610   2.636  0.2423  0.0094  0.2242
   28MOL   C13132585   6.879   3.721   2.604  0.2040 -0.3687 -0.5771
   28MOL   C13232586   6.845   3.802   2.728  0.1697 -0.2451  0.1778
   28MOL   O13332587   6.774   3.712   2.808 -0.0841  0.4818 -0.4540
   28MOL   C13432588   6.740   3.749   2.936  0.2375 -0.3402  0.0410
   28MOL   O13532589   6.758   3.856   2.998  0.3096 -0.9228  0.0248
   28MOL   C13632590   6.661   3.642   2.998 -0.0111 -0.3586  0.0147
   28MOL   C13732591   6.509   3.668   3.006 -0.1446 -0.3410 -0.0183
   28MOL   C13832592   6.419   3.554   3.061  0.5431  0.3988  0.0244
   28MOL   C13932593   6.278   3.591   3.078  0.0758 -0.5223 -0.9896
   28MOL   C14032594   6.196   3.493   3.162  0.4224 -0.0683  0.2869
   28MOL   C14132595   6.055   3.545   3.178  0.4312  0.7082  0.3691
   28MOL   C14232596   5.975   3.453   3.272 -0.5712  0.4387  0.3498
   28MOL   C14332597   5.822   3.484   3.273 -0.1015 -0.4917  0.4428
   28MOL   C14432598   5.757   3.581   3.371 -0.0871 -0.0322  0.0391
   28MOL   O14532599   5.814   3.641   3.463 -0.3426 -0.2978 -0.3801
   28MOL   H14632600   6.909   2.864   2.682 -0.4926 -0.4201 -0.1767
   28MOL   H14732601   6.959   2.737   2.574  1.4414 -0.0238  1.5104
   28MOL   H14832602   7.126   2.928   2.592 -0.0067 -1.6033  0.6128
   28MOL   H14932603   7.080   2.896   2.433  0.7746 -0.8871  0.3914
   28MOL   H15032604   6.938   3.088   2.436  0.5227  0.1289 -1.6909
   28MOL   H15132605   6.971   3.131   2.606 -0.9568  3.5590 -2.5403
   28MOL   H15232606   7.217   3.137   2.486  0.8968  0.7811 -1.0833
   28MOL   H15332607   7.128   3.111   2.343 -1.9811 -0.9334 -0.5324
   28MOL   H15432608   7.016   3.326   2.352  0.4191 -0.9816 -1.1415
   28MOL   H15532609   7.183   3.358   2.379 -1.2310  1.0899 -0.2065
   28MOL   H15632610   7.138   3.381   2.624 -0.6817  4.1632  0.4997
   28MOL   H15732611   6.969   3.344   2.600 -0.9152  0.3361 -0.6481
   28MOL   H15832612   6.935   3.517   2.455  0.7191  0.9989 -1.5829
   28MOL   H15932613   7.099   3.583   2.468 -1.5746  1.3809  1.6607
   28MOL   H16032614   7.072   3.653   2.681 -0.0077  1.0413 -0.2551
   28MOL   H16132615   6.945   3.542   2.713  0.5061  0.9693  1.2049
   28MOL   H16232616   6.924   3.799   2.542 -2.2343  1.7615  0.2114
   28MOL   H16332617   6.793   3.697   2.541  1.6551  1.9965 -3.5906
   28MOL   H16432618   6.935   3.834   2.779  0.7292 -1.5174  0.0057
   28MOL   H16532619   6.786   3.893   2.716  1.5327  0.5190 -0.8690
   28MOL   H16632620   6.702   3.638   3.099  0.6844 -1.4116 -0.2931
   28MOL   H16732621   6.696   3.545   2.962 -0.3553 -0.7414  0.7120
   28MOL   H16832622   6.475   3.688   2.904  0.0986 -0.9432 -0.2179
   28MOL   H16932623   6.484   3.759   3.061 -3.5312 -1.0478 -0.2911
   28MOL   H17032624   6.453   3.515   3.158 -1.7176 -0.2336  0.5775
   28MOL   H17132625   6.422   3.463   3.001 -0.2367  1.3202 -1.4359
   28MOL   H17232626   6.234   3.604   2.979 -0.1083  1.3979 -0.6712
   28MOL   H17332627   6.279   3.689   3.125  1.1372 -1.5335  1.1679
   28MOL   H17432628   6.202   3.395   3.115  2.2059 -0.1579  0.6708
   28MOL   H17532629   6.249   3.479   3.256  0.9332 -0.6077 -0.0802
   28MOL   H17632630   6.048   3.649   3.209  2.1149  1.0372 -0.3076
   28MOL   H17732631   6.008   3.528   3.081  2.3496 -0.7708 -0.3431
   28MOL   H17832632   6.029   3.462   3.366 -1.3620  0.1126  0.8353
   28MOL   H17932633   5.984   3.348   3.244 -0.1809  0.5097  0.2031
   28MOL   H18032634   5.785   3.508   3.173  0.6976  1.0074  0.4862
   28MOL   H18132635   5.783   3.386   3.301  1.0765 -1.2568 -0.5242
   28MOL   O18232636   5.618   3.598   3.342 -0.6730 -0.3566  0.0621
   28MOL   C18332637   5.536   3.677   3.432  0.4235  0.2680  0.2894
   28MOL   C18432638   5.406   3.694   3.360 -0.3492 -0.9426 -0.3767
   28MOL   C18532639   5.299   3.796   3.413  0.2959  0.0331 -0.7683
   28MOL   C18632640   5.169   3.805   3.338 -0.0101  0.1242  0.1248
   28MOL   C18732641   5.064   3.892   3.410  0.3900 -0.0963 -0.0780
   28MOL   C18832642   4.923   3.886   3.346  0.4013 -0.2588 -0.2904
   28MOL   C18932643   4.808   3.896   3.437 -0.1934 -0.1740 -0.3868
   28MOL   C19032644   4.673   3.890   3.366  0.8322  0.7049 -0.3297
   28MOL   C19132645   4.561   3.890   3.473  0.4436 -0.6714  0.1355
   28MOL   C19232646   4.431   3.824   3.435  0.1633 -0.6684  0.7166
   28MOL   O19332647   4.360   3.891   3.336 -0.4415  0.5930 -0.2362
   28MOL   C19432648   4.275   3.994   3.366 -0.1223  1.1767  1.2126
   28MOL   O19532649   4.235   4.021   3.477  0.3185 -0.0285  0.2825
   28MOL   C19632650   4.234   4.070   3.240 -0.5174  0.3320  0.3178
   28MOL   C19732651   4.359   4.142   3.180  0.1199 -0.1336  0.0195
   28MOL   C19832652   4.308   4.223   3.063  1.0085  0.1599 -0.3344
   28MOL   C19932653   4.256   4.139   2.946  0.3023  0.0721 -0.0562
   28MOL   C20032654   4.233   4.220   2.816  0.3717 -0.2115 -0.3779
   28MOL   C20132655   4.168   4.126   2.724 -0.4799 -0.2286 -0.7531
   28MOL   C20232656   4.030   4.070   2.765  0.0652  0.2044  0.3247
   28MOL   C20332657   3.962   4.008   2.642  0.3218  0.9348 -0.2902
   28MOL   C20432658   3.825   3.950   2.662 -0.6378 -0.2975 -0.0872
   28MOL   O20532659   3.767   3.957   2.774 -0.1588 -0.4249  0.0791
   28MOL   H20632660   5.511   3.638   3.531  1.4812 -2.2384 -0.4050
   28MOL   H20732661   5.589   3.771   3.449  2.0476 -0.6012  0.0692
   28MOL   H20832662   5.403   3.713   3.252 -2.6297  1.3052  0.0167
   28MOL   H20932663   5.357   3.597   3.368  2.6544 -2.5402 -0.5608
   28MOL   H21032664   5.278   3.769   3.516  1.1008  0.7113 -0.4217
   28MOL   H21132665   5.351   3.889   3.434 -1.2574  0.7409 -0.0268
   28MOL   H21232666   5.179   3.822   3.231 -0.1599  1.0627  0.2566
   28MOL   H21332667   5.139   3.701   3.352  1.2081 -0.3640 -0.8426
   28MOL   H21432668   5.101   3.994   3.398 -1.8603  0.8133  0.5148
   28MOL   H21532669   5.059   3.866   3.515 -1.0009  0.5619  0.0189
   28MOL   H21632670   4.920   3.790   3.295 -2.0253 -0.0325 -0.6405
   28MOL   H21732671   4.906   3.954   3.262 -0.8643 -0.9940 -0.6490
   28MOL   H21832672   4.802   3.989   3.492 -0.1253 -0.7913  0.6760
   28MOL   H21932673   4.814   3.815   3.510  1.3212  0.5842  0.3577
   28MOL   H22032674   4.670   3.805   3.298  0.3847  1.1347 -0.8500
   28MOL   H22132675   4.654   3.978   3.305 -0.0234 -0.1269 -1.2722
   28MOL   H22232676   4.597   3.838   3.562  0.7228  0.3012  0.5891
   28MOL   H22332677   4.543   3.994   3.498  1.7316 -0.9333  2.2817
   28MOL   H22432678   4.462   3.724   3.405  4.1557  0.5392  0.5938
   28MOL   H22532679   4.373   3.822   3.527  0.3168 -2.0176  0.7947
   28MOL   H22632680   4.153   4.134   3.276  0.0826  0.4024  1.5757
   28MOL   H22732681   4.198   3.993   3.172  0.4814 -0.3514  0.5507
   28MOL   H22832682   4.443   4.075   3.159 -1.6742 -2.3981 -0.1602
   28MOL   H22932683   4.395   4.215   3.253  0.8338  0.5984 -1.0602
   28MOL   H23032684   4.383   4.289   3.019  1.4356 -0.1382 -0.0527
   28MOL   H23132685   4.222   4.286   3.088 -0.5646 -1.5930 -1.2230
   28MOL   H23232686   4.157   4.102   2.973  0.2030 -0.1250 -0.6756
   28MOL   H23332687   4.309   4.047   2.917 -0.6087 -0.0452 -1.3888
   28MOL   H23432688   4.172   4.309   2.832 -1.1106 -1.1214 -0.7730
   28MOL   H23532689   4.328   4.256   2.778  0.5986  1.1049  1.4078
   28MOL   H23632690   4.168   4.175   2.627 -1.2288  1.4179  0.0602
   28MOL   H23732691   4.237   4.044   2.706 -0.6266 -0.1122 -1.8948
   28MOL   H23832692   3.973   4.150   2.812  0.3312 -0.2543  1.4290
   28MOL   H23932693   4.055   3.990   2.834 -2.4280 -2.6912 -2.0003
   28MOL   H24032694   3.961   4.081   2.560  1.9468  0.0679 -1.1048
   28MOL   H24132695   4.026   3.936   2.591  1.1733  1.1394  0.4820
   28MOL   O24232696   3.783   3.875   2.565  0.0393  0.0647 -0.1237
   28MOL   C24332697   3.651   3.812   2.570 -0.0574  0.6906 -0.0865
   28MOL   C24432698   3.618   3.772   2.424 -0.1227 -0.1542  0.3578
   28MOL   C24532699   3.700   3.659   2.363 -0.7346 -0.2092 -0.3416
   28MOL   C24632700   3.661   3.625   2.223 -0.5640 -0.1205 -0.2194
   28MOL   C24732701   3.517   3.578   2.204 -0.2611 -0.3011 -0.3657
   28MOL   C24832702   3.477   3.446   2.272 -0.5948  0.5489 -0.5474
   28MOL   C24932703   3.339   3.393   2.218 -0.3943  0.2019 -0.0366
   28MOL   C25032704   3.216   3.476   2.269 -0.3152  0.2610 -0.1680
   28MOL   C25132705   3.082   3.402   2.290  0.1552 -0.0552  0.0904
   28MOL   C25232706   3.101   3.269   2.351  0.2024  0.3766 -0.7934
   28MOL   O25332707   2.984   3.219   2.416  0.2748  0.0674  0.6516
   28MOL   C25432708   2.880   3.181   2.339  0.0162  0.4097 -0.3173
   28MOL   O25532709   2.854   3.202   2.223 -0.0380  0.0484  0.4934
   28MOL   C25632710   2.772   3.120   2.433  0.5044  0.1193  0.0157
   28MOL   C25732711   2.644   3.075   2.361  0.0012  0.1265 -0.0771
   28MOL   C25832712   2.656   2.957   2.258  0.0743 -0.1500 -0.5911
   28MOL   C25932713   2.552   2.959   2.146 -0.6178 -0.3926 -0.7630
   28MOL   C26032714   2.566   2.839   2.046 -0.2253 -0.4023 -0.0921
   28MOL   C26132715   2.460   2.817   1.943 -0.3602 -0.4465 -0.7805
   28MOL   C26232716   2.473   2.694   1.860  0.1943  0.5559  0.4961
   28MOL   C26332717   2.369   2.692   1.749  0.4277  0.4000  0.9040
   28MOL   C26432718   2.414   2.768   1.630 -0.1289 -0.2292 -0.3257
   28MOL   O26532719   2.514   2.747   1.568 -0.3977  0.0829 -0.0869
   28MOL   H26632720   3.651   3.726   2.637 -0.5776  0.1428 -0.7924
   28MOL   H26732721   3.570   3.870   2.614  1.4072  0.6230  2.8407
   28MOL   H26832722   3.511   3.752   2.420 -0.6197  2.0949  1.6730
   28MOL   H26932723   3.625   3.858   2.358  1.4362  0.4000  1.1995
   28MOL   H27032724   3.809   3.668   2.368 -0.7074  0.4672 -1.7462
   28MOL   H27132725   3.693   3.569   2.424  1.6222  0.5021  1.0522
   28MOL   H27232726   3.679   3.715   2.165  2.2235 -1.2495 -1.1720
   28MOL   H27332727   3.730   3.561   2.169  0.2520  1.0343 -0.5589
   28MOL   H27432728   3.494   3.578   2.098 -0.0715 -1.7440 -0.4146
   28MOL   H27532729   3.449   3.653   2.245 -2.7166 -0.6856 -3.5534
   28MOL   H27632730   3.468   3.452   2.380  0.6690  3.7596 -0.5777
   28MOL   H27732731   3.535   3.358   2.243 -0.6196 -0.0084  1.0632
   28MOL   H27832732   3.322   3.290   2.250  0.0218  0.3012  0.5115
   28MOL   H27932733   3.331   3.390   2.109  0.8562  0.3964 -0.1355
   28MOL   H28032734   3.201   3.567   2.210 -1.7804  0.0019 -0.2222
   28MOL   H28132735   3.245   3.506   2.370  0.9527 -2.6549  0.3801
   28MOL   H28232736   3.018   3.462   2.355 -0.1522  0.2717 -0.5091
   28MOL   H28332737   3.022   3.399   2.198 -2.3638  2.6935  1.5570
   28MOL   H28432738   3.130   3.191   2.281  0.7257  0.4714 -0.6837
   28MOL   H28532739   3.183   3.269   2.423  0.4489  1.1224 -1.0727
   28MOL   H28632740   2.754   3.204   2.500  3.5602  0.7082  0.1845
   28MOL   H28732741   2.804   3.044   2.505  0.8792 -0.1091 -0.3875
   28MOL   H28832742   2.612   3.157   2.297  1.2527  1.3151  0.7948
   28MOL   H28932743   2.560   3.056   2.427  0.0730  2.1087  0.6253
   28MOL   H29032744   2.653   2.863   2.314  0.4960  0.6709  0.8417
   28MOL   H29132745   2.752   2.959   2.206 -0.0269  2.6014 -0.7192
   28MOL   H29232746   2.555   3.050   2.086 -1.1330 -1.2039 -2.0457
   28MOL   H29332747   2.454   2.957   2.193 -1.1614 -0.3584 -1.8806
   28MOL   H29432748   2.659   2.854   1.991  0.7378  0.5877  1.7940
   28MOL   H29532749   2.577   2.745   2.100 -1.7519  0.7604  2.3194
   28MOL   H29632750   2.367   2.798   1.996 -0.5707 -1.1983 -1.4034
   28MOL   H29732751   2.456   2.910   1.887  0.8081  2.0099  3.0259
   28MOL   H29832752   2.460   2.599   1.912  1.7285  1.0839  1.9070
   28MOL   H29932753   2.571   2.683   1.812 -0.0283  0.3598  0.0904
   28MOL   H30032754   2.340   2.589   1.728 -0.7508  0.7270  0.8796
   28MOL   H30132755   2.278   2.734   1.791 -0.9996  1.0220 -2.6138
   28MOL   O30232756   2.341   2.875   1.618  0.4343  0.6010 -0.4311
   28MOL   C30332757   2.357   2.957   1.500 -0.3716  0.1982  0.0434
   28MOL   C30432758   2.300   2.895   1.373  0.2262  0.6640 -0.5906
   28MOL   C30532759   2.362   2.965   1.248 -0.1138  0.2279  0.1053
   28MOL   C30632760   2.297   2.918   1.117 -0.1228  1.0886 -0.3907
   28MOL   C30732761   2.361   2.985   0.992  0.4076 -0.5181 -0.7214
   28MOL   C30832762   2.292   2.949   0.860 -0.0231  0.2763  0.1909
   28MOL   C30932763   2.154   3.021   0.843 -0.0000  0.5533  0.0761
   28MOL   C31032764   2.072   2.940   0.737 -1.1281  0.1992 -0.3938
   28MOL   C31132765   1.929   3.003   0.719  0.6164 -0.4668 -0.1922
   28MOL   C31232766   1.856   2.945   0.600 -1.0653 -0.0850 -1.0429
   28MOL   O31332767   1.721   2.981   0.612  0.4590 -0.4317 -0.5831
   28MOL   C31432768   1.636   2.910   0.695 -0.0687  0.1725  0.6910
   28MOL   O31532769   1.676   2.833   0.783  0.2245 -0.4206  0.3490
   28MOL   C31632770   1.491   2.945   0.679 -0.1820 -0.4195 -0.1769
   28MOL   C31732771   1.386   2.845   0.741 -1.1228 -0.1860  0.0179
   28MOL   C31832772   1.359   2.881   0.893  0.6036 -0.5148 -0.0826
   28MOL   C31932773   1.276   2.771   0.962  0.1490 -0.3749  0.2733
   28MOL   C32032774   1.233   2.810   1.107  0.6382  0.5262 -0.6160
   28MOL   C32132775   1.356   2.831   1.203  0.3809  0.5920 -0.4860
   28MOL   C32232776   1.318   2.895   1.342  0.2252  0.0698 -0.3370
   28MOL   C32332777   1.437   2.912   1.437 -0.1758 -0.1406 -0.8543
   28MOL   C32432778   1.404   2.998   1.557 -0.1375 -0.7769 -0.2990
   28MOL   O32532779   1.452   3.117   1.569  0.2919 -0.9704 -0.0918
   28MOL   H32632780   2.288   3.040   1.515  0.7257  0.7438  2.3981
   28MOL   H32732781   2.460   2.990   1.490  0.6668 -2.2881  1.9154
   28MOL   H32832782   2.303   2.786   1.364  1.0918  0.6500 -0.1332
   28MOL   H32932783   2.194   2.917   1.356  0.2784 -0.5598 -2.6636
   28MOL   H33032784   2.339   3.071   1.248  0.6165  0.3920 -1.0965
   28MOL   H33132785   2.469   2.951   1.259 -0.1538  0.7070  1.0917
   28MOL   H33232786   2.303   2.809   1.108  0.3416  0.8883  2.0244
   28MOL   H33332787   2.191   2.945   1.119 -0.8007 -1.4543  0.7720
   28MOL   H33432788   2.457   2.936   0.975 -0.0428 -1.8306  0.4081
   28MOL   H33532789   2.383   3.091   1.006 -1.5809 -0.1961  0.1285
   28MOL   H33632790   2.268   2.843   0.858 -0.5185  0.3522  1.4690
   28MOL   H33732791   2.353   2.960   0.771 -0.6230  0.4098 -0.2017
   28MOL   H33832792   2.167   3.124   0.812 -0.2600  0.2779 -0.9511
   28MOL   H33932793   2.087   3.012   0.929 -0.9899 -0.6453 -0.8072
   28MOL   H34032794   2.072   2.835   0.767 -1.0923  0.4266  0.3968
   28MOL   H34132795   2.106   2.946   0.633  0.4258  0.7071  0.1342
   28MOL   H34232796   1.872   3.009   0.813  1.2528  1.2066  0.1123
   28MOL   H34332797   1.949   3.108   0.698  0.8080 -0.2142  1.2006
   28MOL   H34432798   1.902   2.956   0.502 -1.1286  1.5214 -0.8918
   28MOL   H34532799   1.882   2.841   0.620  0.1065 -0.0041 -2.0766
   28MOL   H34632800   1.467   2.968   0.575 -1.2761 -0.8543 -0.0261
   28MOL   H34732801   1.485   3.042   0.729 -0.2512  0.4202 -1.7743
   28MOL   H34832802   1.431   2.746   0.736  0.7286  0.7606 -3.7843
   28MOL   H34932803   1.288   2.859   0.695 -0.2759 -1.1152 -2.1072
   28MOL   H35032804   1.304   2.975   0.891  2.7812  0.7559 -1.1785
   28MOL   H35132805   1.456   2.892   0.942  0.6003  0.4038 -0.2775
   28MOL   H35232806   1.338   2.682   0.959  0.3531 -0.2006 -1.3216
   28MOL   H35332807   1.184   2.743   0.912  0.7073 -2.2145  0.2657
   28MOL   H35432808   1.163   2.893   1.106 -0.2597 -0.1815  0.9387
   28MOL   H35532809   1.168   2.734   1.151 -0.6611  1.7512 -0.3700
   28MOL   H35632810   1.392   2.729   1.215  1.1786  0.9067 -0.2381
   28MOL   H35732811   1.439   2.885   1.158  1.3202 -0.5370 -0.1412
   28MOL   H35832812   1.229   2.855   1.390 -0.2827 -0.5485 -1.7607
   28MOL   H35932813   1.279   2.994   1.323  1.2306  0.4731 -0.3196
   28MOL   H36032814   1.483   2.822   1.479  1.2967  1.3882  0.8744
   28MOL   H36132815   1.515   2.958   1.377  0.5153  0.8690  0.7953
   28MOL   O36232816   1.329   2.930   1.655 -0.6563  0.3244  0.1107
   28MOL   C36332817   1.287   3.002   1.776  0.5244 -0.3739 -0.1073
   28MOL   C36432818   1.138   2.965   1.810  0.4055 -1.0444  0.5269
   28MOL   C36532819   1.078   3.053   1.931 -0.0106  0.0381 -0.1605
   28MOL   C36632820   0.934   3.016   1.945  0.1315  0.4724  0.0757
   28MOL   C36732821   0.862   3.083   2.069  0.1364 -0.0822 -0.4254
   28MOL   C36832822   0.726   3.021   2.069  0.0432 -0.5902 -1.0081
   28MOL   C36932823   0.652   3.049   2.198 -0.7050 -0.1398 -0.1971
   28MOL   C37032824   0.535   2.950   2.234 -0.0354  0.5234 -0.4933
   28MOL   C37132825   0.434   2.937   2.117 -0.4609 -0.2127 -0.7136
   28MOL   C37232826   0.302   2.876   2.157 -0.9080 -0.0530 -0.8999
   28MOL   O37332827   0.226   2.960   2.237 -0.1286  0.4923  0.0818
   28MOL   C37432828   0.117   2.907   2.292 -0.0326  0.2930  0.4752
   28MOL   O37532829   0.054   2.803   2.267 -0.6293 -0.1597 -0.1205
   28MOL   C37632830   0.075   3.004   2.403  0.4301  0.6372 -0.2525
   28MOL   C37732831   0.177   3.008   2.516  0.0783  0.1229  0.1277
   28MOL   C37832832   0.131   3.089   2.635 -0.4450 -0.1048 -0.1750
   28MOL   C37932833   0.240   3.095   2.744 -0.3837  0.3958  0.4991
   28MOL   C38032834   0.207   3.168   2.869 -0.9209  0.7372  0.4364
   28MOL   C38132835   0.325   3.171   2.965 -0.4877  0.3652  0.6013
   28MOL   C38232836   0.297   3.246   3.092 -0.1409 -0.3551 -0.8063
   28MOL   C38332837   0.411   3.229   3.201 -0.4201 -0.1953  0.3478
   28MOL   C38432838   0.540   3.299   3.172  0.1107 -0.3059  0.3737
   28MOL   O38532839   0.640   3.240   3.129 -0.6905  0.1537 -0.3431
   28MOL   H38632840   1.336   2.981   1.871  1.2832  1.6053 -0.0281
   28MOL   H38732841   1.297   3.108   1.752 -0.6195 -0.6335 -1.8363
   28MOL   H38832842   1.081   2.995   1.723 -2.1746 -2.4425  1.6910
   28MOL   H38932843   1.132   2.860   1.839  3.8382 -1.1782  1.0053
   28MOL   H39032844   1.131   3.047   2.026 -0.6600  0.0732  0.2054
   28MOL   H39132845   1.081   3.158   1.900 -0.1093  0.8674  2.4895
   28MOL   H39232846   0.880   3.048   1.856  0.6977 -1.7254 -1.0932
   28MOL   H39332847   0.923   2.907   1.943 -0.0416  0.4652  1.0557
   28MOL   H39432848   0.871   3.192   2.078 -2.0892  0.0674  0.4170
   28MOL   H39532849   0.902   3.043   2.162 -3.2960 -2.1631  0.2534
   28MOL   H39632850   0.742   2.914   2.055  1.9275 -0.4350 -0.2058
   28MOL   H39732851   0.659   3.042   1.986 -1.8968  0.3603  0.7681
   28MOL   H39832852   0.613   3.150   2.183 -0.8772 -0.3301 -1.0589
   28MOL   H39932853   0.715   3.064   2.286 -1.3833  2.9767 -0.1697
   28MOL   H40032854   0.480   2.955   2.327 -1.3920 -1.1657 -1.1688
   28MOL   H40132855   0.577   2.849   2.237 -0.2648  0.3831 -1.6244
   28MOL   H40232856   0.410   3.037   2.081  0.0191 -0.1194 -0.7822
   28MOL   H40332857   0.478   2.889   2.030 -1.8517 -1.0860 -0.9351
   28MOL   H40432858   0.243   2.861   2.067 -2.2154 -1.2376  0.1227
   28MOL   H40532859   0.321   2.784   2.213 -2.5196 -0.7149 -1.3861
   28MOL   H40632860   7.735   2.982   2.449  0.7407  1.8892  1.0032
   28MOL   H40732861   0.058   3.103   2.360 -0.7327  0.6066  0.1157
   28MOL   H40832862   0.270   3.047   2.475 -0.9844  1.6659 -0.8717
   28MOL   H40932863   0.199   2.909   2.557 -1.2263  0.1335  0.8777
   28MOL   H41032864   0.032   3.055   2.667  0.6228 -1.5774  1.6755
   28MOL   H41132865   0.110   3.192   2.605 -0.7933  0.1774  0.9745
   28MOL   H41232866   0.333   3.143   2.713 -1.1954  2.6129  1.3774
   28MOL   H41332867   0.265   2.992   2.772  1.7987  0.8164  0.2414
   28MOL   H41432868   0.177   3.263   2.825 -0.6635  0.0637 -1.2519
   28MOL   H41532869   0.122   3.110   2.906  0.5579 -1.9012 -0.1499
   28MOL   H41632870   0.335   3.064   2.985  0.1022  0.2692 -0.1793
   28MOL   H41732871   0.415   3.206   2.915 -0.4110  0.8086  1.0573
   28MOL   H41832872   0.198   3.215   3.124 -1.5870  2.1987 -2.5967
   28MOL   H41932873   0.286   3.352   3.067 -0.5758  0.3823  2.3469
   28MOL   H42032874   0.369   3.268   3.293  0.3058 -0.0215  0.6058
   28MOL   H42132875   0.432   3.124   3.219  0.5814 -0.3906 -1.7715
   28MOL   O42232876   0.532   3.434   3.183  0.8280  0.3749 -0.5073
   28MOL   C42332877   0.656   3.508   3.184  0.7557  0.2817 -0.3211
   28MOL   C42432878   0.637   3.638   3.269  0.4559 -0.7415 -0.4765
   28MOL   C42532879   0.621   3.615   3.418 -0.0856 -0.2139  0.2445
   28MOL   C42632880   0.749   3.574   3.491  0.1112  0.0939 -0.0261
   28MOL   C42732881   0.728   3.558   3.643  0.1936  0.2742  0.3413
   28MOL   C42832882   0.845   3.487   3.710  0.1953  0.7349  0.2285
   28MOL   C42932883   0.823   3.466   3.862 -0.5411  0.1132 -0.5005
   28MOL   C43032884   0.924   3.360   3.912  0.9076  0.5873 -0.5140
   28MOL   C43132885   0.925   3.352   4.065 -1.2188  0.8984  0.7042
   28MOL   C43232886   1.008   3.235   4.118  0.1708  0.5686 -0.9820
   28MOL   O43332887   1.140   3.268   4.084  0.5790 -0.6866 -0.1189
   28MOL   C43432888   1.225   3.175   4.077  0.8929 -0.2704  0.4432
   28MOL   O43532889   1.207   3.058   4.100  0.7148 -0.5718  0.1058
   28MOL   C43632890   1.357   3.222   4.027 -0.5880  0.0161  0.1891
   28MOL   C43732891   1.362   3.252   3.868 -0.7671  0.7454  0.1477
   28MOL   C43832892   1.314   3.121   3.787 -0.2890  0.7029 -0.5296
   28MOL   C43932893   1.362   3.106   3.646  0.2564 -0.0683 -0.0678
   28MOL   C44032894   1.322   2.973   3.587 -0.8325 -0.6181  0.3702
   28MOL   C44132895   1.354   2.981   3.436  0.6989  0.1475 -0.3002
   28MOL   C44232896   1.302   2.853   3.366  0.2318 -0.1999 -0.4064
   28MOL   C44332897   1.362   2.816   3.229  0.4338 -0.1352 -0.1026
   28MOL   C44432898   1.362   2.928   3.125  0.2559 -0.4373 -0.2816
   28MOL   O44532899   1.465   2.985   3.085  0.2741  0.1083  1.0407
   28MOL   H44632900   0.735   3.441   3.218  0.4697 -0.4380 -1.0413
   28MOL   H44732901   0.689   3.550   3.088  0.0518 -0.4697 -0.9035
   28MOL   H44832902   0.722   3.699   3.240 -0.8226  0.0737 -2.6576
   28MOL   H44932903   0.550   3.687   3.225  0.8712  2.5905  2.2590
   28MOL   H45032904   0.582   3.708   3.458 -1.9116 -0.1305 -1.6480
   28MOL   H45132905   0.543   3.541   3.437  1.1960 -1.8364 -0.6555
   28MOL   H45232906   0.798   3.486   3.448 -1.7303 -0.8911 -0.1985
   28MOL   H45332907   0.818   3.655   3.471  0.1330  0.5497  1.8588
   28MOL   H45432908   0.631   3.513   3.665 -0.9622  3.0461  1.1490
   28MOL   H45532909   0.721   3.659   3.685  0.8793  0.4970 -0.0769
   28MOL   H45632910   0.941   3.534   3.687  0.3530  0.2047 -0.1925
   28MOL   H45732911   0.852   3.389   3.664  2.9204  0.3189  1.4473
   28MOL   H45832912   0.718   3.443   3.877 -0.1205 -0.6981  1.2367
   28MOL   H45932913   0.837   3.566   3.903  0.3537 -0.2792  0.1554
   28MOL   H46032914   1.026   3.385   3.880  0.1550  2.8066 -1.2852
   28MOL   H46132915   0.898   3.264   3.868  1.1786 -0.0387  0.6518
   28MOL   H46232916   0.957   3.439   4.122  0.5836 -2.0201  4.4173
   28MOL   H46332917   0.821   3.340   4.097 -1.2595  1.7131  0.8797
   28MOL   H46432918   1.004   3.240   4.227  4.3429  1.4769 -0.8132
   28MOL   H46532919   0.966   3.138   4.091  3.6153 -1.4408  0.4960
   28MOL   H46632920   1.424   3.139   4.049 -1.4959 -0.2339  2.1387
   28MOL   H46732921   1.389   3.314   4.076 -1.1157  1.5357 -2.2448
   28MOL   H46832922   1.465   3.286   3.855 -1.9135  4.3591  0.1176
   28MOL   H46932923   1.292   3.331   3.843  0.3540  1.1578 -1.7030
   28MOL   H47032924   1.206   3.117   3.791 -0.2067  0.4191  1.6653
   28MOL   H47132925   1.347   3.029   3.833 -1.7199 -0.1291 -1.1552
   28MOL   H47232926   1.471   3.100   3.647  0.2625 -0.4373 -1.6149
   28MOL   H47332927   1.337   3.193   3.585  0.0394 -0.1476 -0.0926
   28MOL   H47432928   1.367   2.887   3.636  1.2003 -0.1509 -0.5981
   28MOL   H47532929   1.215   2.956   3.595 -0.9088  0.2834  1.2838
   28MOL   H47632930   1.306   3.072   3.399  2.3181  1.5111  0.8803
   28MOL   H47732931   1.461   2.999   3.424  0.2062  1.7853 -2.6667
   28MOL   H47832932   1.193   2.852   3.375  0.3699 -0.5708  1.6160
   28MOL   H47932933   1.327   2.777   3.440 -2.0832 -1.7454 -1.1541
   28MOL   H48032934   1.467   2.789   3.237  0.1357 -1.4866 -0.6847
   28MOL   H48132935   1.308   2.728   3.195 -0.9803 -0.3561  2.6041
   28MOL   O48232936   1.237   2.958   3.084  0.1599 -0.5046  0.1221
   28MOL   C48332937   1.213   3.063   2.990  0.6995  0.0369  0.4219
   28MOL   C48432938   1.067   3.132   3.010 -0.3078 -0.2606  0.1105
   28MOL   C48532939   1.063   3.265   2.940 -0.1751 -0.9301  0.1803
   28MOL   C48632940   0.932   3.342   2.973 -0.0939  0.6605  0.3535
   28MOL   C48732941   0.941   3.482   2.920 -0.0062 -0.6796  0.2165
   28MOL   C48832942   1.025   3.572   3.012  0.0566 -0.0416  0.0985
   28MOL   C48932943   1.030   3.715   2.948 -0.4839  0.7076 -0.2959
   28MOL   C49032944   1.130   3.810   3.007 -0.0935  0.8367  0.2323
   28MOL   C49132945   1.092   3.862   3.148 -0.1359 -0.0261  0.1933
   28MOL   C49232946   1.168   3.983   3.201  0.0269 -0.0603  0.0692
   28MOL   O49332947   1.104   4.104   3.164 -0.1411  0.2741 -0.5512
   28MOL   C49432948   1.183   4.216   3.182 -0.6781  0.3545  0.1521
   28MOL   O49532949   1.301   4.219   3.216 -0.6813  0.0054 -0.5429
   28MOL   C49632950   1.109   4.336   3.132 -0.4642 -0.1756  0.4627
   28MOL   C49732951   1.014   4.399   3.239 -0.2834 -0.5465 -0.0130
   28MOL   C49832952   0.888   4.456   3.169 -0.6031  0.6108  0.3185
   28MOL   C49932953   0.805   4.529   3.270 -0.5164  0.2779 -0.7651
   28MOL   C50032954   0.704   4.631   3.212 -0.9151  0.0433 -0.4097
   28MOL   C50132955   0.593   4.561   3.126 -0.4821 -0.0562  0.2910
   28MOL   C50232956   0.481   4.644   3.092  0.3114 -0.3215  0.1280
   28MOL   C50332957   0.396   4.596   2.979  0.0952  0.6969 -0.2109
   28MOL   C50432958   0.260   4.661   2.989  0.0608 -0.0858  0.0587
   28MOL   O50532959   0.165   4.604   3.042  0.1659 -0.1465 -0.0600
   28MOL   H50632960   1.301   3.125   3.003  1.3252 -0.8688  0.5898
   28MOL   H50732961   1.229   3.033   2.886  2.2102  2.7041 -0.1577
   28MOL   H50832962   0.983   3.071   2.976 -1.1738  0.4239  0.9782
   28MOL   H50932963   1.060   3.147   3.117 -0.3730  2.7654 -0.2634
   28MOL   H51032964   1.152   3.321   2.969 -1.0433  0.3611  0.4154
   28MOL   H51132965   1.065   3.237   2.835  0.2523  1.9776 -0.6288
   28MOL   H51232966   0.850   3.280   2.937  0.5366 -0.8253  1.4589
   28MOL   H51332967   0.916   3.347   3.081 -0.2798 -2.5421  0.5229
   28MOL   H51432968   0.836   3.514   2.917 -0.5545 -2.2597  1.5907
   28MOL   H51532969   0.986   3.483   2.821  1.5767 -0.7212  0.9290
   28MOL   H51632970   1.124   3.530   3.030 -0.6397 -2.0491 -0.6215
   28MOL   H51732971   0.983   3.571   3.112  0.5460  2.5570  0.3475
   28MOL   H51832972   0.932   3.764   2.953 -0.3188  1.1808 -1.5940
   28MOL   H51932973   1.049   3.708   2.841  3.8031  1.0999  0.3745
   28MOL   H52032974   1.125   3.904   2.951 -0.0337 -0.5533 -2.1554
   28MOL   H52132975   1.231   3.774   2.990  0.9358  3.2752  0.9083
   28MOL   H52232976   0.986   3.890   3.152 -0.1827 -0.1495 -0.1510
   28MOL   H52332977   1.111   3.785   3.223 -1.8194 -0.4868  0.1867
   28MOL   H52432978   1.159   3.976   3.310  0.2168  0.7353  0.1382
   28MOL   H52532979   1.275   3.983   3.184 -0.1321  1.6334 -1.0233
   28MOL   H52632980   1.048   4.310   3.046  0.4077  1.4336 -0.6709
   28MOL   H52732981   1.184   4.407   3.097 -0.9701  1.2434  2.1830
   28MOL   H52832982   1.071   4.477   3.290  1.5056 -2.4234  0.9277
   28MOL   H52932983   0.991   4.324   3.314 -0.0461 -0.6276 -0.0199
   28MOL   H53032984   0.824   4.378   3.129  2.5742 -1.6669 -0.4926
   28MOL   H53132985   0.913   4.515   3.081 -1.5924 -0.4602 -0.6792
   28MOL   H53232986   0.865   4.584   3.343  0.2059  0.4292 -1.4708
   28MOL   H53332987   0.747   4.463   3.335  0.4600  1.3108  1.2069
   28MOL   H53432988   0.657   4.685   3.294  0.3802  0.8714 -0.1955
   28MOL   H53532989   0.754   4.708   3.154  0.2505  1.1744  1.9777
   28MOL   H53632990   0.631   4.526   3.030  2.4182  2.1060  0.5816
   28MOL   H53732991   0.561   4.475   3.183  0.3408  0.0552  0.9257
   28MOL   H53832992   0.517   4.743   3.062 -1.1436  0.3843  0.6534
   28MOL   H53932993   0.427   4.665   3.184  0.3135  0.3890 -0.0307
   28MOL   H54032994   0.434   4.627   2.881  0.5863  0.4910 -0.0846
   28MOL   H54132995   0.365   4.492   2.980  0.2848  0.5507 -3.2530
   28MOL   O54232996   0.253   4.780   2.924 -0.6675 -0.0515 -0.2683
   28MOL   C54332997   0.135   4.849   2.919 -0.1056  0.2022 -0.5460
   28MOL   C54432998   0.103   4.920   3.050  0.5781  1.2583 -0.6083
   28MOL   C54532999   0.210   5.027   3.075  1.1024 -0.3071 -0.2292
   28MOL   C54633000   0.174   5.146   3.165  0.2787 -0.0717  0.0073
   28MOL   C54733001   0.196   5.120   3.324 -0.1404 -0.0211  0.4287
   28MOL   C54833002   0.201   5.254   3.408 -0.0794  0.2307  0.6866
   28MOL   C54933003   0.307   5.259   3.522  0.0674 -0.4314 -0.1473
   28MOL   C55033004   0.458   5.271   3.467  0.0921  0.3276 -0.1110
   28MOL   C55133005   0.562   5.264   3.568  0.0035 -0.3421  0.2900
   28MOL   C55233006   0.699   5.306   3.521  0.2552 -0.2610 -0.0242
   28MOL   O55333007   0.772   5.301   3.647 -0.0992  0.3022 -0.1268
   28MOL   C55433008   0.893   5.345   3.658  0.2316  0.2352 -0.2297
   28MOL   O55533009   0.953   5.386   3.558  0.0680 -0.8825 -0.2491
   28MOL   C55633010   0.945   5.351   3.804  0.5715 -0.6580  0.7017
   28MOL   C55733011   0.923   5.223   3.878  0.8878  0.2059  0.4903
   28MOL   C55833012   1.005   5.203   4.004  0.8821  0.6145 -0.1395
   28MOL   C55933013   0.987   5.061   4.063 -0.4627 -0.6890 -0.1738
   28MOL   C56033014   1.066   5.040   4.196 -0.1158 -1.0573 -0.0789
   28MOL   C56133015   1.032   4.909   4.265 -0.9783 -0.1863 -0.1854
   28MOL   C56233016   1.033   4.789   4.168 -1.2602  0.2145 -0.8937
   28MOL   C56333017   1.038   4.648   4.230 -0.4689  0.2042 -0.1096
   28MOL   C56433018   1.175   4.582   4.236  0.4402  0.5489 -0.0707
   28MOL   O56533019   1.267   4.602   4.155  0.0601  0.1805 -0.0736
   28MOL   H56633020   0.126   4.916   2.833 -2.6614  0.8388  0.1804
   28MOL   H56733021   0.056   4.778   2.894  1.4922 -1.5718 -0.6957
   28MOL   H56833022   7.756   4.954   3.037 -0.9875 -3.3109 -0.8451
   28MOL   H56933023   0.110   4.848   3.131  0.1335 -0.2154 -1.8636
   28MOL   H57033024   0.303   4.978   3.104  0.6045 -2.4782 -2.1743
   28MOL   H57133025   0.240   5.065   2.977  0.7319 -2.0408 -1.0307
   28MOL   H57233026   0.245   5.218   3.126 -0.8493  0.0304 -1.9236
   28MOL   H57333027   0.073   5.184   3.148  0.3988  0.5647  0.7027
   28MOL   H57433028   0.282   5.056   3.346 -0.8214 -1.1252 -0.0737
   28MOL   H57533029   0.116   5.061   3.367 -1.8124  1.1411 -1.0064
   28MOL   H57633030   0.098   5.278   3.433  0.5217  1.8373  1.7260
   28MOL   H57733031   0.220   5.339   3.342  1.4804  1.4550  2.6419
   28MOL   H57833032   0.305   5.166   3.578 -1.5032 -0.5056 -0.3237
   28MOL   H57933033   0.281   5.333   3.597 -1.4538 -0.7351 -0.3612
   28MOL   H58033034   0.457   5.371   3.422 -0.1367 -0.1355 -1.1532
   28MOL   H58133035   0.464   5.201   3.384  0.1457 -2.3604  2.0960
   28MOL   H58233036   0.525   5.325   3.650  0.0998 -0.1698  0.2052
   28MOL   H58333037   0.561   5.164   3.609 -0.6366 -0.2901  0.4119
   28MOL   H58433038   0.730   5.229   3.450  1.6305 -0.5716  0.8772
   28MOL   H58533039   0.714   5.406   3.480  1.3791 -0.9727 -1.3986
   28MOL   H58633040   0.889   5.428   3.856  0.0440 -0.6553  0.1412
   28MOL   H58733041   1.052   5.371   3.801  0.2242  1.2139 -1.5352
   28MOL   H58833042   0.941   5.139   3.811 -1.9288 -0.0079 -0.0787
   28MOL   H58933043   0.816   5.204   3.893  1.3627 -2.6280  0.4181
   28MOL   H59033044   0.957   5.272   4.074 -3.0885 -1.8787 -0.2238
   28MOL   H59133045   1.111   5.222   3.988  0.1981  3.7025 -1.2970
   28MOL   H59233046   1.024   4.988   3.991 -0.2941 -0.9173  0.1437
   28MOL   H59333047   0.882   5.037   4.080 -0.5530 -2.3809 -2.8166
   28MOL   H59433048   1.163   5.049   4.148 -0.6057 -2.8625 -1.4643
   28MOL   H59533049   1.040   5.125   4.260 -0.0510  0.1790 -1.6506
   28MOL   H59633050   1.101   4.901   4.349 -0.2641  0.9372 -0.6526
   28MOL   H59733051   0.933   4.918   4.310 -0.9526 -0.1827 -0.1300
   28MOL   H59833052   1.115   4.800   4.097 -1.2778  1.0469 -0.7949
   28MOL   H59933053   0.939   4.782   4.112 -1.8287  2.1632 -0.2346
   28MOL   H60033054   0.996   4.642   4.331 -1.5635 -1.2039 -0.6330
   28MOL   H60133055   0.980   4.592   4.157 -0.3286  0.6101 -0.5363
   28MOL   O60233056   1.194   4.503   4.340  0.6743  0.1700 -0.3506
   28MOL   C60333057   1.308   4.432   4.360  0.0186  0.0079  0.8266
   28MOL   C60433058   1.320   4.358   4.498  0.4031  1.0506 -0.8676
   28MOL   C60533059   1.457   4.316   4.537  0.3159 -0.9341  0.0831
   28MOL   C60633060   1.515   4.194   4.466  0.1732  0.1050 -0.0154
   28MOL   C60733061   1.653   4.154   4.526  0.3581  0.1963  0.2431
   28MOL   C60833062   1.714   4.044   4.444 -0.2957  0.7337  0.1333
   28MOL   C60933063   1.840   3.975   4.508 -0.0414  0.4610 -0.5961
   28MOL   C61033064   1.902   3.869   4.417  0.4878  0.1798  0.1045
   28MOL   C61133065   2.042   3.824   4.464  0.4625  0.9867 -0.0498
   28MOL   C61233066   2.087   3.679   4.403 -0.5155 -0.0628  0.2133
   28MOL   O61333067   2.097   3.680   4.267 -0.0050  0.2376  0.6202
   28MOL   C61433068   2.119   3.568   4.199 -0.0839  0.2602 -0.0467
   28MOL   O61533069   2.121   3.453   4.247  0.2357 -0.3330 -0.1546
   28MOL   C61633070   2.152   3.591   4.046  0.1205  0.0482 -0.8430
   28MOL   C61733071   2.279   3.678   4.027 -0.1787 -0.1723 -0.2915
   28MOL   C61833072   2.251   3.829   4.040  0.5419 -0.7373  0.1304
   28MOL   C61933073   2.166   3.887   3.929 -0.5813  0.4129  0.1349
   28MOL   C62033074   2.092   4.017   3.958  0.4875 -0.2979  0.0023
   28MOL   C62133075   2.194   4.129   4.008  0.0900 -0.6894 -0.7420
   28MOL   C62233076   2.123   4.263   4.035 -0.2008 -0.1926 -0.4454
   28MOL   C62333077   2.096   4.354   3.915  0.0257  0.4351  0.3099
   28MOL   C62433078   2.222   4.416   3.860 -0.5078 -0.0826  0.0581
   28MOL   O62533079   2.259   4.388   3.743 -0.1233  0.3776  0.2352
   28MOL   H62633080   1.309   4.359   4.280 -0.1209 -0.3499  1.1465
   28MOL   H62733081   1.392   4.501   4.348 -1.3341  1.6357  0.4099
   28MOL   H62833082   1.300   4.437   4.570  0.3777  1.0457 -0.8696
   28MOL   H62933083   1.242   4.284   4.513  0.5707  0.8124 -1.1717
   28MOL   H63033084   1.526   4.398   4.514 -0.6904  0.0559  0.5543
   28MOL   H63133085   1.450   4.295   4.643 -1.7025  0.9287  0.3588
   28MOL   H63233086   1.446   4.111   4.473 -0.8178  0.8449 -0.8773
   28MOL   H63333087   1.536   4.214   4.361  2.6541  1.5163  0.7042
   28MOL   H63433088   1.633   4.112   4.624  2.0159 -2.1039 -0.3662
   28MOL   H63533089   1.726   4.233   4.544  0.3336  0.2954 -0.0930
   28MOL   H63633090   1.736   4.081   4.344  0.7239  0.1942  0.1509
   28MOL   H63733091   1.638   3.967   4.432 -1.4643  1.8204  0.5577
   28MOL   H63833092   1.813   3.937   4.607 -0.4065 -1.2062 -1.3318
   28MOL   H63933093   1.926   4.039   4.532 -0.0361  0.4430 -0.5659
   28MOL   H64033094   1.902   3.898   4.312  1.7105 -0.6498 -0.1447
   28MOL   H64133095   1.829   3.787   4.420 -1.0596  1.5725  2.0269
   28MOL   H64233096   2.124   3.891   4.440  2.1462 -0.9690  0.0617
   28MOL   H64333097   2.042   3.825   4.573 -0.9029 -0.5883 -0.0065
   28MOL   H64433098   2.183   3.651   4.446 -0.7251 -1.7804 -0.4062
   28MOL   H64533099   2.018   3.596   4.419 -1.3939  0.4130 -0.9613
   28MOL   H64633100   2.058   3.622   4.001 -0.8794  0.2098  1.2882
   28MOL   H64733101   2.179   3.489   4.017  0.9539  0.5170 -1.7615
   28MOL   H64833102   2.325   3.665   3.929 -0.1306 -1.9614 -0.0337
   28MOL   H64933103   2.356   3.643   4.094 -1.9778  1.1009  2.5251
   28MOL   H65033104   2.347   3.878   4.025  1.1522 -1.4126  1.7743
   28MOL   H65133105   2.218   3.860   4.139  2.9485  2.0570  0.1459
   28MOL   H65233106   2.085   3.815   3.913 -0.3608  0.6676 -2.2956
   28MOL   H65333107   2.217   3.892   3.833  0.1667  1.6391  0.5897
   28MOL   H65433108   2.030   4.045   3.873 -2.5824  0.4587  2.3947
   28MOL   H65533109   2.025   4.005   4.044  0.5515  0.3307  0.1373
   28MOL   H65633110   2.247   4.101   4.099  0.5003 -0.4362 -0.9040
   28MOL   H65733111   2.264   4.145   3.926  1.2460  0.3553  0.4216
   28MOL   H65833112   2.172   4.323   4.112 -0.3899  1.7056 -1.7593
   28MOL   H65933113   2.029   4.236   4.083  0.6485 -0.0510  1.3328
   28MOL   H66033114   2.043   4.295   3.841  2.9133 -1.0623 -0.6501
   28MOL   H66133115   2.033   4.437   3.949 -2.2313 -0.9278 -0.5033
   28MOL   O66233116   2.296   4.495   3.940  0.1234  0.2940  0.2586
   28MOL   C66333117   2.421   4.547   3.891  0.2744  0.3950  0.0423
   28MOL   C66433118   2.495   4.635   3.993 -0.7422  0.5871 -0.2254
   28MOL   C66533119   2.643   4.656   3.982 -0.3314  0.2571  0.1109
   28MOL   C66633120   2.691   4.757   3.873 -0.4653 -0.0156 -0.5041
   28MOL   C66733121   2.844   4.757   3.867  0.2598  0.3200 -0.0968
   28MOL   C66833122   2.896   4.840   3.746  0.0633 -0.4094 -0.0376
   28MOL   C66933123   3.047   4.874   3.759 -0.6629 -0.1546  0.0622
   28MOL   C67033124   3.105   4.975   3.655  0.0355  0.1943 -0.3382
   28MOL   C67133125   3.259   4.996   3.666 -0.3760  0.3933 -0.4961
   28MOL   C67233126   3.321   5.084   3.559 -0.8608  0.7473 -0.1710
   28MOL   O67333127   3.261   5.213   3.567  0.3349  0.6849 -0.0351
   28MOL   C67433128   3.347   5.311   3.531  0.1748 -0.3731 -0.7868
   28MOL   O67533129   3.462   5.300   3.484 -0.5714  0.1978  0.7668
   28MOL   C67633130   3.290   5.452   3.539 -0.7119  0.0603 -0.0958
   28MOL   C67733131   3.300   5.521   3.676 -0.3985  0.0314 -0.1946
   28MOL   C67833132   3.448   5.561   3.717 -0.3419  0.0090 -0.6271
   28MOL   C67933133   3.452   5.651   3.838 -1.0520 -0.5510  0.1193
   28MOL   C68033134   3.592   5.709   3.874  0.7368 -0.1281 -0.2250
   28MOL   C68133135   3.584   5.790   4.005  0.2811  0.1881  0.5452
   28MOL   C68233136   3.716   5.867   4.040  0.1996  0.1816 -0.6241
   28MOL   C68333137   3.718   5.944   4.168  0.1158 -0.1592 -0.3481
   28MOL   C68433138   3.622   6.062   4.164  0.2885 -0.7637  0.0794
   28MOL   O68533139   3.562   6.096   4.266  0.3940 -0.2023 -0.1845
   28MOL   H68633140   2.481   4.460   3.861 -0.4231  0.3608 -1.2675
   28MOL   H68733141   2.410   4.588   3.791  2.5008  0.3260 -0.2641
   28MOL   H68833142   2.436   4.726   4.000 -1.5818 -0.0086  0.7173
   28MOL   H68933143   2.481   4.578   4.086  1.1908  2.2512  1.1209
   28MOL   H69033144   2.667   4.702   4.078 -1.0599  1.6637 -0.3654
   28MOL   H69133145   2.689   4.557   3.978  1.2764  0.8089  3.3076
   28MOL   H69233146   2.653   4.733   3.774  0.1484 -3.0884 -0.0397
   28MOL   H69333147   2.662   4.853   3.917  1.3261  0.2653  0.1228
   28MOL   H69433148   2.886   4.658   3.847 -0.4025 -0.2889  1.4770
   28MOL   H69533149   2.894   4.795   3.956 -0.1968  0.5983  0.0437
   28MOL   H69633150   2.846   4.937   3.745 -1.1454 -1.0029  1.3231
   28MOL   H69733151   2.864   4.798   3.651 -1.1791  1.0783 -0.2975
   28MOL   H69833152   3.106   4.782   3.763 -1.3371 -0.4848  3.2671
   28MOL   H69933153   3.055   4.920   3.857 -2.9798  0.3869  0.0363
   28MOL   H70033154   3.050   5.069   3.662 -1.5715 -0.6020 -1.9176
   28MOL   H70133155   3.083   4.935   3.556 -1.1514 -3.9083  1.4848
   28MOL   H70233156   3.292   5.013   3.768 -1.7939 -2.3254  0.4381
   28MOL   H70333157   3.300   4.898   3.640  0.4241  0.8335 -0.9189
   28MOL   H70433158   3.429   5.083   3.576 -0.7202 -1.2368 -1.0359
   28MOL   H70533159   3.299   5.055   3.456 -0.5865  0.3418 -0.1150
   28MOL   H70633160   3.185   5.449   3.508 -0.3306 -0.3680 -1.3537
   28MOL   H70733161   3.341   5.508   3.461  0.2644  0.6138  0.9192
   28MOL   H70833162   3.259   5.456   3.753  0.2265 -0.5903 -0.3873
   28MOL   H70933163   3.241   5.610   3.656  0.8609  1.2462  1.3844
   28MOL   H71033164   3.499   5.609   3.633  0.1327 -0.4146 -0.5812
   28MOL   H71133165   3.506   5.473   3.742  0.1767 -0.2132 -2.5335
   28MOL   H71233166   3.419   5.615   3.935 -1.3748  1.6013  0.8409
   28MOL   H71333167   3.382   5.733   3.822  0.7323  1.3412  1.6881
   28MOL   H71433168   3.663   5.628   3.886  2.0507  0.8511 -1.3427
   28MOL   H71533169   3.634   5.769   3.793 -2.5255  2.0680 -0.4233
   28MOL   H71633170   3.499   5.858   4.003 -1.1847 -1.6160  0.0623
   28MOL   H71733171   3.561   5.720   4.086  0.3169  0.1148  0.4911
   28MOL   H71833172   3.748   5.925   3.954  1.2487  0.4991 -0.0264
   28MOL   H71933173   3.792   5.789   4.051  1.6361  1.8506  1.7045
   28MOL   H72033174   3.692   5.884   4.256 -0.1029 -1.7016 -1.4366
   28MOL   H72133175   3.817   5.985   4.184 -0.6567  2.2076 -1.3877
   28MOL   O72233176   3.599   6.122   4.049 -0.8794 -0.2412 -0.1578
   28MOL   C72333177   3.493   6.213   4.017 -0.9601  0.6476 -0.4296
   28MOL   C72433178   3.360   6.128   4.007 -0.4011  0.2693 -0.8603
   28MOL   C72533179   3.321   6.064   3.873 -0.2321 -1.0242 -0.5128
   28MOL   C72633180   3.183   6.000   3.878 -0.0034  0.5740  0.3812
   28MOL   C72733181   3.121   5.954   3.743 -0.6568 -0.0995 -0.0758
   28MOL   C72833182   2.974   5.918   3.764 -0.3696  0.1553  0.5038
   28MOL   C72933183   2.902   5.904   3.632 -0.0656 -0.5987 -0.0691
   28MOL   C73033184   2.938   5.781   3.554  0.5960 -0.6232 -0.3233
   28MOL   C73133185   2.857   5.769   3.433 -0.1805 -0.6242  0.2039
   28MOL   C73233186   2.872   5.629   3.359  0.2576  0.1012 -0.5283
   28MOL   O73333187   2.849   5.518   3.451 -0.2492  0.0649  0.9461
   28MOL   C73433188   2.895   5.402   3.413  0.3004  0.3206  0.7891
   28MOL   O73533189   2.920   5.369   3.299 -0.2948 -0.2836  0.3033
   28MOL   C73633190   2.921   5.297   3.520  0.5842  0.5857  0.6595
   28MOL   C73733191   2.809   5.207   3.561  0.9587  0.4355 -0.6328
   28MOL   C73833192   2.760   5.100   3.459 -0.5330  0.0002 -0.2164
   28MOL   C73933193   2.650   4.987   3.507 -0.4839  0.4166 -0.5151
   28MOL   C74033194   2.643   4.858   3.427 -0.5475 -0.6883  0.3962
   28MOL   C74133195   2.502   4.802   3.412  0.4407  0.5790  0.2249
   28MOL   C74233196   2.441   4.754   3.547 -0.0843  0.0278  0.0318
   28MOL   C74333197   2.301   4.698   3.555  0.1098 -0.4597 -0.3498
   28MOL   C74433198   2.200   4.781   3.639 -0.4246  0.0693  0.5097
   28MOL   O74533199   2.106   4.733   3.700 -0.0194  0.1320  0.0878
   28MOL   H74633200   3.482   6.285   4.099 -0.8416 -0.6508  0.7529
   28MOL   H74733201   3.524   6.263   3.926 -1.1953  1.4631 -0.0714
   28MOL   H74833202   3.356   6.067   4.097 -0.0456 -0.1430 -1.1247
   28MOL   H74933203   3.276   6.198   4.017  0.2033  0.8746  0.0637
   28MOL   H75033204   3.308   6.142   3.798  3.4805  0.9021  0.7261
   28MOL   H75133205   3.393   5.988   3.846  0.6052 -1.0052  1.5768
   28MOL   H75233206   3.174   5.915   3.945  0.5479  0.6465  0.5509
   28MOL   H75333207   3.120   6.073   3.928  2.9755  2.7242  1.1106
   28MOL   H75433208   3.176   5.869   3.703  2.6964  1.0365  1.9798
   28MOL   H75533209   3.121   6.030   3.666  0.7364  2.2050  2.1190
   28MOL   H75633210   2.923   5.996   3.820 -0.3629  0.5140  0.0013
   28MOL   H75733211   2.962   5.832   3.830  2.6854 -0.6186  0.1403
   28MOL   H75833212   2.912   5.997   3.576  0.8492  0.0252  1.1072
   28MOL   H75933213   2.796   5.891   3.656  0.4340 -0.0533  2.5683
   28MOL   H76033214   2.928   5.689   3.611  4.1290 -0.3642  0.8696
   28MOL   H76133215   3.038   5.784   3.511  0.9777 -0.5185  0.5465
   28MOL   H76233216   2.755   5.768   3.470 -0.9895 -1.7381 -1.9491
   28MOL   H76333217   2.870   5.851   3.362 -0.3554 -0.3116  0.5325
   28MOL   H76433218   2.806   5.635   3.273 -2.5723 -1.7788  1.4368
   28MOL   H76533219   2.971   5.620   3.315  0.2092  0.3850 -0.6912
   28MOL   H76633220   2.959   5.335   3.615  0.6794  0.3024  0.7339
   28MOL   H76733221   3.006   5.242   3.480  1.2270  0.8338  1.6784
   28MOL   H76833222   2.724   5.269   3.588  0.3584  0.0720 -1.6775
   28MOL   H76933223   2.844   5.143   3.642  0.0922  1.8500  0.8791
   28MOL   H77033224   2.853   5.046   3.443 -0.3378 -0.3919  2.1599
   28MOL   H77133225   2.733   5.135   3.359 -1.9910 -1.5686 -0.3944
   28MOL   H77233226   2.558   5.045   3.494 -0.1186  0.7604 -1.6154
   28MOL   H77333227   2.654   4.979   3.616 -0.6117  0.4368 -0.5088
   28MOL   H77433228   2.672   4.872   3.323  0.4654  0.7410  0.8629
   28MOL   H77533229   2.710   4.780   3.464  0.4279 -0.3545 -0.6491
   28MOL   H77633230   2.439   4.880   3.369  0.9706  1.2087  0.5749
   28MOL   H77733231   2.494   4.721   3.340 -2.0870  1.2908 -0.3373
   28MOL   H77833232   2.456   4.839   3.614 -0.9185 -1.5880  2.3444
   28MOL   H77933233   2.505   4.677   3.590 -0.2857  0.1382  0.5367
   28MOL   H78033234   2.271   4.692   3.451 -0.9525 -1.0411 -0.0128
   28MOL   H78133235   2.295   4.595   3.592 -0.0418 -0.2275  0.2852
   28MOL   O78233236   2.220   4.919   3.645 -0.1047 -0.0998 -0.4181
   28MOL   C78333237   2.126   5.008   3.700 -0.6260  0.3181  0.1101
   28MOL   C78433238   2.194   5.104   3.812  0.0983 -1.1531  0.6068
   28MOL   C78533239   2.323   5.162   3.762 -0.8180 -0.2338 -0.6488
   28MOL   C78633240   2.399   5.258   3.857 -0.9943  0.0968  0.0790
   28MOL   C78733241   2.548   5.282   3.813 -0.1160 -0.0837  0.5484
   28MOL   C78833242   2.620   5.379   3.899  0.5322  0.0126  0.2795
   28MOL   C78933243   2.769   5.400   3.861 -0.1750 -0.3126  0.1132
   28MOL   C79033244   2.848   5.488   3.958  0.6402  0.4362 -0.5737
   28MOL   C79133245   2.991   5.513   3.909 -0.2819 -0.0447  0.1257
   28MOL   C79233246   3.079   5.604   4.002  0.5073  0.0911  0.5796
   28MOL   O79333247   3.105   5.518   4.114  0.5410 -0.3504  0.0829
   28MOL   C79433248   3.202   5.542   4.197 -0.3453  0.0836 -0.8321
   28MOL   O79533249   3.276   5.639   4.184  0.2404 -0.8651  0.2185
   28MOL   C79633250   3.215   5.432   4.310  0.4203 -0.1452  0.4815
   28MOL   C79733251   3.078   5.398   4.368  0.5805 -0.2307  0.0496
   28MOL   C79833252   3.089   5.292   4.468 -1.6670  0.0047  0.1748
   28MOL   C79933253   2.958   5.245   4.537  0.5741  0.3625  0.0164
   28MOL   C80033254   2.979   5.150   4.661  0.8863  0.0362 -0.2102
   28MOL   C80133255   2.838   5.090   4.697  0.7009 -0.1500  0.1661
   28MOL   C80233256   2.835   4.983   4.801  0.5271  0.9822 -0.3162
   28MOL   C80333257   2.898   4.841   4.755  0.3399 -0.5234 -0.1648
   28MOL   C80433258   2.850   4.716   4.818 -0.1009  0.5317 -0.2466
   28MOL   O80533259   2.813   4.611   4.763 -0.2470  0.3599 -0.4808
   28MOL   H80633260   2.098   5.072   3.616  0.0185  1.9459  1.0971
   28MOL   H80733261   2.038   4.954   3.735 -0.0727 -0.6920 -0.0531
   28MOL   H80833262   2.127   5.186   3.836 -1.0376 -1.7929 -0.3430
   28MOL   H80933263   2.213   5.049   3.904 -0.5357 -0.7254  0.9959
   28MOL   H81033264   2.379   5.071   3.743 -0.7723 -0.0550 -1.3762
   28MOL   H81133265   2.311   5.217   3.669  1.0586  0.6996 -0.3600
   28MOL   H81233266   2.356   5.358   3.864 -1.0096  0.1729 -1.0262
   28MOL   H81333267   2.411   5.207   3.952 -1.7430  1.9329  1.1750
   28MOL   H81433268   2.550   5.321   3.712 -1.2026 -1.0828  0.1311
   28MOL   H81533269   2.597   5.184   3.811  0.4440  0.2148 -1.0252
   28MOL   H81633270   2.599   5.351   4.002  1.4078  1.5590  0.9089
   28MOL   H81733271   2.561   5.471   3.907 -0.0770 -0.3805  0.3204
   28MOL   H81833272   2.777   5.440   3.760 -2.9011 -2.5077 -1.0741
   28MOL   H81933273   2.821   5.304   3.866 -2.7999 -1.8149  0.1441
   28MOL   H82033274   2.856   5.443   4.057  1.6355  2.7583  0.4192
   28MOL   H82133275   2.793   5.578   3.984  0.6708 -0.0829  1.3617
   28MOL   H82233276   3.042   5.419   3.887  0.2735  0.6344 -1.5011
   28MOL   H82333277   2.984   5.559   3.811 -3.7690 -3.0637 -1.1899
   28MOL   H82433278   3.173   5.626   3.951 -0.5871  1.0811 -1.0334
   28MOL   H82533279   3.037   5.699   4.033 -1.8937 -0.9590  0.6213
   28MOL   H82633280   3.288   5.466   4.384  1.3164  2.4457 -1.5053
   28MOL   H82733281   3.263   5.343   4.268 -0.8959  0.2533 -1.9620
   28MOL   H82833282   3.019   5.359   4.285 -1.0590  1.3225  0.4558
   28MOL   H82933283   3.035   5.488   4.411  3.0585  0.0640  2.0126
   28MOL   H83033284   3.155   5.325   4.548 -1.6468  0.6896 -0.1241
   28MOL   H83133285   3.139   5.204   4.428 -0.8769  0.9468 -0.9589
   28MOL   H83233286   2.896   5.194   4.463 -0.2639  1.0108  0.2612
   28MOL   H83333287   2.896   5.331   4.563  0.6549 -0.2326  2.2185
   28MOL   H83433288   3.055   5.073   4.643  0.5671 -0.4308  0.4395
   28MOL   H83533289   3.024   5.205   4.744 -0.7892  0.6428  0.3270
   28MOL   H83633290   2.775   5.177   4.716 -0.0601 -0.2708 -1.6849
   28MOL   H83733291   2.798   5.036   4.611  1.2477 -1.1120  0.5123
   28MOL   H83833292   2.729   4.960   4.811  1.0272 -1.9186 -1.1513
   28MOL   H83933293   2.888   5.015   4.891  0.6384 -0.3376  0.0904
   28MOL   H84033294   2.877   4.815   4.651  0.4197 -1.7371  0.1170
   28MOL   H84133295   3.006   4.856   4.755  0.5156 -1.5377 -2.4300
   28MOL   O84233296   2.859   4.733   4.950 -0.7916  0.0011  0.3179
   28MOL   C84333297   2.802   4.635   5.034  0.8607 -0.1346 -0.4553
   28MOL   C84433298   2.802   4.682   5.184  0.2738 -0.8325 -0.4123
   28MOL   C84533299   2.662   4.738   5.228 -0.3436 -0.3088  0.1767
   28MOL   C84633300   2.555   4.635   5.268  1.2520  1.0153  0.6505
   28MOL   C84733301   2.412   4.683   5.276 -1.4048 -0.4875 -0.1541
   28MOL   C84833302   2.315   4.586   5.348  0.1668  0.7676 -0.2046
   28MOL   C84933303   2.166   4.611   5.311 -0.3071  0.2828 -0.5568
   28MOL   C85033304   2.128   4.588   5.162 -0.1335 -0.8097 -0.2320
   28MOL   C85133305   1.980   4.617   5.138  0.2099  0.0800 -0.4866
   28MOL   C85233306   1.968   4.655   4.993  0.0661 -0.2178 -0.1984
   28MOL   O85333307   2.012   4.546   4.915 -0.5124 -0.3850 -0.2356
   28MOL   C85433308   1.927   4.438   4.892 -0.0082 -0.3214  0.5103
   28MOL   O85533309   1.826   4.410   4.950 -0.1255 -0.0738 -0.1590
   28MOL   C85633310   1.969   4.359   4.777  0.0748  0.2435 -0.0115
   28MOL   C85733311   2.050   4.232   4.813  0.7512 -0.6027 -0.0165
   28MOL   C85833312   1.969   4.129   4.884  0.0936 -0.4717 -0.3595
   28MOL   C85933313   2.048   4.004   4.927 -0.6721  0.6477 -0.1327
   28MOL   C86033314   1.973   3.912   5.027  0.0047  0.2404  0.2520
   28MOL   C86133315   2.045   3.786   5.064  0.2289 -0.3721  0.1731
   28MOL   C86233316   1.985   3.711   5.185 -0.5622 -0.3188  1.0930
   28MOL   C86333317   2.039   3.568   5.211  0.0291 -0.0822 -0.3809
   28MOL   C86433318   2.041   3.473   5.092 -0.2110 -0.1212 -0.3726
   28MOL   O86533319   2.148   3.438   5.038 -0.1492 -0.5460 -0.6432
   28MOL   H86633320   2.702   4.610   4.997  0.4075  1.9376 -0.7021
   28MOL   H86733321   2.853   4.539   5.040  0.4072 -0.4575 -1.5107
   28MOL   H86833322   2.829   4.605   5.255  1.5145  0.6610  0.7890
   28MOL   H86933323   2.869   4.766   5.204  0.6633 -1.3771  0.6116
   28MOL   H87033324   2.671   4.808   5.311  2.0481 -0.3738  0.0019
   28MOL   H87133325   2.629   4.808   5.152  1.5414  2.9268  2.2390
   28MOL   H87233326   2.560   4.548   5.203  1.0597  1.5165 -0.0363
   28MOL   H87333327   2.589   4.591   5.361  0.0225 -1.4527 -0.0414
   28MOL   H87433328   2.380   4.716   5.177  0.6773 -0.1404 -0.7396
   28MOL   H87533329   2.418   4.779   5.328  1.3803 -1.8965  2.2372
   28MOL   H87633330   2.340   4.590   5.454 -2.3649 -0.2781  0.4619
   28MOL   H87733331   2.342   4.488   5.307  0.1153  0.2891  0.8925
   28MOL   H87833332   2.138   4.713   5.336 -1.1585  0.0470 -0.5123
   28MOL   H87933333   2.121   4.544   5.384 -0.1015 -1.4127 -1.9362
   28MOL   H88033334   2.148   4.489   5.122  3.0405 -0.3061 -0.0012
   28MOL   H88133335   2.183   4.657   5.098 -0.9422 -0.3539 -0.4414
   28MOL   H88233336   1.929   4.522   5.153 -0.3951  0.7219  1.7164
   28MOL   H88333337   1.929   4.698   5.189 -0.5577  0.3846 -1.7271
   28MOL   H88433338   1.867   4.685   4.965 -0.2263 -0.7129  0.3194
   28MOL   H88533339   2.030   4.744   4.981 -1.6716  1.5747  3.2829
   28MOL   H88633340   2.035   4.418   4.714 -0.9938  0.4340 -0.9697
   28MOL   H88733341   1.883   4.339   4.713 -0.2365  0.0815  0.4489
   28MOL   H88833342   2.130   4.257   4.883 -1.3801  3.4351  1.1357
   28MOL   H88933343   2.099   4.193   4.724  0.5585  2.2956 -1.4316
   28MOL   H89033344   1.881   4.105   4.825  1.0794 -0.7658 -1.7251
   28MOL   H89133345   1.929   4.177   4.973  1.4829 -1.4858  0.8478
   28MOL   H89233346   2.145   4.035   4.966 -0.9755  0.0336  1.1134
   28MOL   H89333347   2.090   3.945   4.845  0.4943  0.9889  0.2112
   28MOL   H89433348   1.960   3.973   5.117  0.4789 -0.2903  0.6808
   28MOL   H89533349   1.874   3.888   4.989 -0.5391 -1.0851  2.3932
   28MOL   H89633350   2.056   3.728   4.972 -3.3457  2.1866 -2.0334
   28MOL   H89733351   2.152   3.800   5.084  0.4574  1.6111 -2.0961
   28MOL   H89833352   1.876   3.704   5.179 -0.4375 -1.1448 -0.2104
   28MOL   H89933353   1.987   3.771   5.277 -1.5761  1.3441  0.0653
   28MOL   H90033354   2.141   3.561   5.251  1.2733 -1.6153 -3.6541
   28MOL   H90133355   1.976   3.521   5.286 -1.4012 -1.2459 -2.2576
   28MOL   O90233356   1.914   3.431   5.050  0.2457 -0.1871  0.1603
   28MOL   C90333357   1.907   3.336   4.944 -0.1585 -0.0420  0.1034
   28MOL   C90433358   1.871   3.406   4.812  0.2144  0.0716  0.2108
   28MOL   C90533359   1.746   3.482   4.814  0.2352  0.2375  0.2584
   28MOL   C90633360   1.730   3.597   4.716  0.3199 -0.8823 -0.3714
   28MOL   C90733361   1.579   3.642   4.715  1.2720  0.3783  0.5237
   28MOL   C90833362   1.573   3.792   4.652 -0.2625  0.0938  0.0648
   28MOL   C90933363   1.431   3.850   4.646 -0.4328 -0.1638  0.3126
   28MOL   C91033364   1.324   3.783   4.558 -0.4779 -0.3114 -0.6479
   28MOL   C91133365   1.344   3.806   4.408 -0.3820  0.0332  0.0554
   28MOL   C91233366   1.238   3.750   4.307 -0.4146  0.6595 -0.1048
   28MOL   O91333367   1.283   3.716   4.185  0.8568 -0.0163  0.4785
   28MOL   C91433368   1.205   3.652   4.089  0.0026 -0.1236  0.2262
   28MOL   O91533369   1.083   3.632   4.095  0.2285  0.3217  0.0874
   28MOL   C91633370   1.277   3.636   3.956 -0.3085 -0.0070 -0.4762
   28MOL   C91733371   1.267   3.762   3.873 -0.3440  0.1009 -0.3848
   28MOL   C91833372   1.147   3.747   3.772 -0.4368  0.6383 -0.4374
   28MOL   C91933373   1.136   3.856   3.657  0.1274  0.2144 -0.7555
   28MOL   C92033374   1.008   3.823   3.575 -0.5402 -0.2479  0.0719
   28MOL   C92133375   0.950   3.958   3.524  0.0654  0.2882 -0.5977
   28MOL   C92233376   0.832   3.935   3.431  0.2549 -0.0276 -0.3905
   28MOL   C92333377   0.781   4.068   3.368  0.3021  0.1641 -0.5299
   28MOL   C92433378   0.665   4.144   3.450  0.6073  0.0769  0.1190
   28MOL   O92533379   0.682   4.141   3.572 -0.2767 -0.3754 -0.0396
   28MOL   H92633380   1.996   3.273   4.934 -0.8723 -1.6115  3.0343
   28MOL   H92733381   1.824   3.272   4.974  0.1731  0.1450  1.4858
   28MOL   H92833382   1.945   3.477   4.775  2.3135 -2.2962 -0.2291
   28MOL   H92933383   1.857   3.331   4.735 -1.8316 -0.0726  0.6901
   28MOL   H93033384   1.664   3.415   4.787  1.3093 -1.5740  1.3755
   28MOL   H93133385   1.727   3.519   4.915 -0.0548  4.0900 -1.1122
   28MOL   H93233386   1.804   3.674   4.735 -0.7645  0.5589 -1.7861
   28MOL   H93333387   1.770   3.567   4.619  1.7151  0.5997 -0.2640
   28MOL   H93433388   1.538   3.635   4.816  0.0665 -0.4461 -0.0081
   28MOL   H93533389   1.529   3.576   4.644 -0.0840  1.2693  0.6308
   28MOL   H93633390   1.618   3.786   4.552 -0.4277 -1.2242  0.0666
   28MOL   H93733391   1.634   3.863   4.708 -0.4800  0.7216 -0.4808
   28MOL   H93833392   1.446   3.956   4.626  0.0447 -0.2414  0.2537
   28MOL   H93933393   1.383   3.834   4.742 -1.4017  0.2795 -0.0892
   28MOL   H94033394   1.229   3.827   4.588 -1.3510 -1.5913 -1.4686
   28MOL   H94133395   1.310   3.676   4.575  0.3596 -0.1771  0.9560
   28MOL   H94233396   1.369   3.910   4.386 -0.8542 -0.3722 -2.6702
   28MOL   H94333397   1.435   3.752   4.381  0.2220  1.5296 -1.0153
   28MOL   H94433398   1.191   3.660   4.347 -1.0606  0.1975 -1.8513
   28MOL   H94533399   1.156   3.821   4.301 -0.1898  0.7737 -2.1058
   28MOL   H94633400   1.239   3.549   3.902  0.5999 -0.4144 -0.4692
   28MOL   H94733401   1.381   3.612   3.979 -0.6813 -3.0455 -1.7152
   28MOL   H94833402   1.357   3.765   3.812  0.4731  1.9303  0.8968
   28MOL   H94933403   1.266   3.858   3.924  0.2160  0.0979 -0.3599
   28MOL   H95033404   1.049   3.744   3.821 -0.2207  0.8223  0.0098
   28MOL   H95133405   1.143   3.648   3.727  0.8811 -0.7431  2.3128
   28MOL   H95233406   1.227   3.853   3.597 -0.0740 -1.1677 -1.0331
   28MOL   H95333407   1.128   3.955   3.700  2.3161  0.4515 -0.8269
   28MOL   H95433408   1.024   3.750   3.496  1.9904  0.2813  0.0545
   28MOL   H95533409   0.936   3.778   3.643  1.1128 -0.2985  1.8247
   28MOL   H95633410   0.926   4.003   3.621  0.7377  1.0483 -0.7876
   28MOL   H95733411   1.029   4.015   3.477  1.5914  0.2555  1.8353
   28MOL   H95833412   0.744   3.886   3.473  0.3590 -0.6387 -0.8765
   28MOL   H95933413   0.862   3.860   3.357  0.3113 -1.9010  1.4738
   28MOL   H96033414   0.866   4.134   3.352  1.6885 -0.4656  3.6109
   28MOL   H96133415   0.725   4.045   3.277  0.0080  0.3179 -0.3871
   28MOL   O96233416   0.564   4.206   3.389  0.4121 -0.2609  0.2809
   28MOL   C96333417   0.479   4.282   3.470 -0.9410  0.4582 -0.7908
   28MOL   C96433418   0.528   4.426   3.502 -0.0345 -0.4875 -0.0207
   28MOL   C96533419   0.418   4.503   3.579 -0.9335  0.6192 -0.9267
   28MOL   C96633420   0.452   4.644   3.614  0.4871  0.4900  0.3876
   28MOL   C96733421   0.330   4.721   3.669  0.1776  0.2039  0.0159
   28MOL   C96833422   0.372   4.864   3.716 -0.0311  0.5290  0.7704
   28MOL   C96933423   0.268   4.922   3.817 -0.0503  0.0591  0.1505
   28MOL   C97033424   0.316   5.058   3.871  0.5183  0.1588  0.5093
   28MOL   C97133425   0.225   5.115   3.973  0.6495 -1.1458 -0.4808
   28MOL   C97233426   0.255   5.256   4.025 -0.5624  0.2064 -0.0412
   28MOL   O97333427   0.367   5.248   4.114 -0.7137 -0.1449 -1.2150
   28MOL   C97433428   0.498   5.271   4.069  0.6119 -0.0806 -0.7894
   28MOL   O97533429   0.529   5.300   3.951  0.5721  0.2265 -0.1705
   28MOL   C97633430   0.604   5.242   4.180 -0.5701  0.4014  0.8141
   28MOL   C97733431   0.714   5.349   4.191 -0.9659  0.5681 -0.4325
   28MOL   C97833432   0.653   5.485   4.242 -0.2882  0.2506 -0.1194
   28MOL   C97933433   0.764   5.588   4.283  0.4939  0.1365  0.2394
   28MOL   C98033434   0.880   5.612   4.186 -0.0386 -0.3089 -0.8992
   28MOL   C98133435   0.834   5.662   4.049 -0.1092  0.9474 -0.3223
   28MOL   C98233436   0.934   5.717   3.944  0.5474  0.6873  0.3614
   28MOL   C98333437   0.988   5.847   4.001  0.0673 -0.5119 -0.3970
   28MOL   C98433438   1.052   5.936   3.890  0.5942 -0.6640 -0.0167
   28MOL   O98533439   1.005   6.046   3.858 -0.2849 -0.4530 -0.5905
   28MOL   H98633440   0.385   4.289   3.416 -0.7876 -0.2090 -1.1502
   28MOL   H98733441   0.462   4.227   3.563 -0.6082 -0.2245 -1.1270
   28MOL   H98833442   0.617   4.418   3.565  1.5384 -3.1317 -2.4614
   28MOL   H98933443   0.548   4.482   3.411  0.1752 -0.8395 -0.1940
   28MOL   H99033444   0.330   4.497   3.515 -0.5478  2.2934 -1.6471
   28MOL   H99133445   0.387   4.451   3.669 -1.5609  0.8262 -1.0171
   28MOL   H99233446   0.536   4.633   3.682  0.7929 -1.1775 -0.2336
   28MOL   H99333447   0.478   4.705   3.528  2.2541 -0.6802  0.0719
   28MOL   H99433448   0.290   4.674   3.758  0.0339 -1.5717 -0.9731
   28MOL   H99533449   0.244   4.721   3.602 -1.1797  0.8441  1.7127
   28MOL   H99633450   0.396   4.924   3.628 -0.7863  1.2063  1.0248
   28MOL   H99733451   0.467   4.851   3.769 -0.1183 -0.8455  0.6109
   28MOL   H99833452   0.258   4.855   3.902 -0.6836 -0.1940 -0.1199
   28MOL   H99933453   0.170   4.916   3.770  0.0900 -2.6766  0.1337
   28MOL     H133454   0.343   5.121   3.787  0.6107 -2.4381 -1.4735
   28MOL     H233455   0.411   5.034   3.918  0.8834  0.4337 -0.0854
   28MOL     H333456   0.122   5.114   3.938 -0.5532 -1.8394  2.8816
   28MOL     H433457   0.226   5.049   4.060 -4.0455 -0.6546  0.0931
   28MOL     H533458   0.251   5.331   3.945 -1.6899 -1.6487 -1.7728
   28MOL     H633459   0.171   5.293   4.083 -0.6174 -0.1729  0.1172
   28MOL     H733460   0.648   5.144   4.166 -0.9393  0.0868  1.7805
   28MOL     H833461   0.547   5.236   4.273 -3.0136  0.6437 -0.6473
   28MOL     H933462   0.762   5.348   4.094 -1.1587  0.9622 -0.5325
   28MOL    H1033463   0.791   5.325   4.264 -1.1997  1.0754 -0.0168
   28MOL    H1133464   0.597   5.465   4.334 -1.0665  2.7224 -0.0247
   28MOL    H1233465   0.589   5.527   4.164 -1.3726 -2.4645 -0.7380
   28MOL    H1333466   0.807   5.549   4.375  1.9301 -1.9395 -1.2706
   28MOL    H1433467   0.708   5.679   4.307 -1.9176 -1.2151 -0.0792
   28MOL    H1533468   0.940   5.689   4.234 -0.9399  1.4604 -2.5217
   28MOL    H1633469   0.941   5.522   4.190 -0.7828 -0.7563  1.1690
   28MOL    H1733470   0.787   5.576   4.001  0.4893 -0.2429  1.1824
   28MOL    H1833471   0.751   5.732   4.055 -0.4456  0.4726  0.5390
   28MOL    H1933472   0.883   5.731   3.849 -0.1574  2.4572  0.9697
   28MOL    H2033473   1.013   5.643   3.937  0.6192  0.7556  0.4414
   28MOL    H2133474   0.904   5.908   4.035  1.0423 -0.2263  1.5293
   28MOL    H2233475   1.066   5.851   4.077  2.1944  0.5738 -2.5773
   28MOL    O2333476   1.160   5.883   3.840 -0.2169 -0.6081 -0.1911
   28MOL    C2433477   1.247   5.953   3.757  0.1563  0.4102 -0.6852
   28MOL    C2533478   1.305   5.860   3.645 -0.4113  0.1400  0.0123
   28MOL    C2633479   1.200   5.819   3.546 -0.3259  0.4394  0.6443
   28MOL    C2733480   1.258   5.721   3.441  0.4197  0.6157 -0.3843
   28MOL    C2833481   1.149   5.673   3.346  0.7782 -0.9494 -0.5325
   28MOL    C2933482   1.195   5.547   3.272  0.0103 -0.5291  0.2907
   28MOL    C3033483   1.102   5.501   3.161 -0.3483 -0.7130 -0.4642
   28MOL    C3133484   0.975   5.436   3.211 -0.1319 -0.3014  0.1560
   28MOL    C3233485   0.900   5.378   3.089 -0.5986 -0.7271 -0.5061
   28MOL    C3333486   0.778   5.287   3.121  0.3879  1.0484 -0.3996
   28MOL    O3433487   0.699   5.229   3.008 -1.0322 -0.2891 -0.1662
   28MOL    C3533488   0.614   5.121   3.031  0.1112  0.2946 -0.2771
   28MOL    O3633489   0.592   5.066   3.144  0.0160  0.2933 -0.0453
   28MOL    C3733490   0.567   5.058   2.901  0.3134 -0.1225  0.0319
   28MOL    C3833491   0.676   4.985   2.814 -0.0162 -0.3807  0.0630
   28MOL    C3933492   0.760   4.883   2.889 -0.1693  0.0156  0.5517
   28MOL    C4033493   0.868   4.821   2.792 -0.0503  0.3727 -0.2064
   28MOL    C4133494   0.952   4.714   2.863  0.0374 -0.0636  0.9731
   28MOL    C4233495   1.042   4.640   2.762 -0.0900  0.0981 -0.2314
   28MOL    C4333496   1.115   4.517   2.810 -1.0725  0.4293  0.4003
   28MOL    C4433497   1.198   4.440   2.711  0.2700 -0.2682  0.0854
   28MOL    C4533498   1.264   4.312   2.761  0.2110 -0.7897 -0.4636
   28MOL    O4633499   1.220   4.202   2.750  0.0969 -0.9100 -0.2088
   28MOL    H4733500   1.188   6.020   3.695  1.0142 -0.9631 -3.0530
   28MOL    H4833501   1.324   6.008   3.810 -0.6230  0.9886 -0.1470
   28MOL    H4933502   1.388   5.915   3.600  0.1409  0.3068  1.2058
   28MOL    H5033503   1.349   5.772   3.691 -0.7209 -1.4858 -2.6954
   28MOL    H5133504   1.112   5.783   3.599  0.1877 -0.4528  0.9008
   28MOL    H5233505   1.169   5.905   3.487 -0.0852 -0.0561 -0.2076
   28MOL    H5333506   1.328   5.772   3.375 -1.8429  1.7676 -1.9628
   28MOL    H5433507   1.297   5.641   3.504 -0.2869  1.0977  0.6807
   28MOL    H5533508   1.107   5.750   3.282  3.1388 -0.6042 -1.7299
   28MOL    H5633509   1.076   5.631   3.415 -0.0581 -1.0276 -1.4607
   28MOL    H5733510   1.223   5.467   3.341  0.3363  0.8263  1.7566
   28MOL    H5833511   1.293   5.566   3.229 -0.0831  0.5769  0.5459
   28MOL    H5933512   1.153   5.427   3.100 -0.3297 -2.5036  1.6464
   28MOL    H6033513   1.075   5.579   3.089 -0.8720 -1.8676 -1.5343
   28MOL    H6133514   0.907   5.494   3.273 -2.2670 -1.8391 -0.6882
   28MOL    H6233515   1.001   5.345   3.265  2.4275  0.5117  0.3770
   28MOL    H6333516   0.888   5.463   3.021  1.0334  0.6001  0.8080
   28MOL    H6433517   0.967   5.308   3.040  0.9433  0.7865 -0.6065
   28MOL    H6533518   0.809   5.201   3.180 -0.7409  0.8359 -0.1022
   28MOL    H6633519   0.705   5.347   3.176 -2.3242 -1.2435 -1.3331
   28MOL    H6733520   0.537   5.143   2.839 -0.9643 -1.3916 -1.1246
   28MOL    H6833521   0.487   4.991   2.930  0.9149 -0.6994  0.3659
   28MOL    H6933522   0.752   5.057   2.782  1.0148 -1.0890  0.8541
   28MOL    H7033523   0.634   4.937   2.726 -0.0795 -1.5127  0.7036
   28MOL    H7133524   0.695   4.804   2.927 -0.9012  1.4574  2.3881
   28MOL    H7233525   0.814   4.930   2.971 -0.7391  1.4687  0.1046
   28MOL    H7333526   0.937   4.901   2.764  1.5201 -0.1348  2.1031
   28MOL    H7433527   0.823   4.767   2.709 -1.2452  1.0808 -0.0203
   28MOL    H7533528   1.024   4.764   2.928 -1.3888  2.5998  0.5856
   28MOL    H7633529   0.890   4.643   2.916  0.2529 -0.7232  0.3445
   28MOL    H7733530   0.967   4.602   2.692 -1.1344  1.9007 -0.1380
   28MOL    H7833531   1.110   4.711   2.715  1.6299 -0.7489  0.9459
   28MOL    H7933532   1.038   4.452   2.851 -2.1053  0.1250 -1.9670
   28MOL    H8033533   1.172   4.540   2.900 -1.1005 -0.8553  0.7525
   28MOL    H8133534   1.133   4.399   2.635 -2.1034  0.7923  1.4721
   28MOL    H8233535   1.272   4.504   2.662  0.7455  0.3479  1.5557
   28MOL    O8333536   1.372   4.341   2.829  0.6772  0.0315  0.2578
   28MOL    C8433537   1.439   4.235   2.899  0.3997  0.7106  0.5383
   28MOL    C8533538   1.552   4.300   2.972  0.1871  0.0027  0.3832
   28MOL    C8633539   1.648   4.198   3.019 -0.2216  0.7474 -0.2907
   28MOL    C8733540   1.754   4.256   3.116  0.1348  0.2610  0.6113
   28MOL    C8833541   1.862   4.340   3.044 -0.4376 -0.7983 -0.6654
   28MOL    C8933542   1.916   4.444   3.145 -0.3107 -0.9027  0.0218
   28MOL    C9033543   2.012   4.531   3.065 -0.7003  0.2620 -0.3469
   28MOL    C9133544   2.085   4.636   3.141  0.6738  0.0813  0.2234
   28MOL    C9233545   2.167   4.728   3.051  0.5347 -0.0193 -0.1659
   28MOL    C9333546   2.276   4.823   3.104  0.5248 -0.4159 -0.4476
   28MOL    O9433547   2.306   4.922   3.005  0.0354  0.1999  0.1391
   28MOL    C9533548   2.436   4.979   3.015 -0.1165 -0.2074  0.2547
   28MOL    O9633549   2.521   4.964   3.100 -0.1258 -0.0511 -0.1360
   28MOL    C9733550   2.464   5.065   2.895  0.2083  0.2120 -0.0723
   28MOL    C9833551   2.401   5.212   2.897  1.0191  0.8194  0.1555
   28MOL    C9933552   2.254   5.234   2.943 -0.3587 -0.4895  0.8650
   28MOL   C10033553   2.222   5.387   2.963  0.0600  0.4630 -0.3228
   28MOL   C10133554   2.086   5.406   3.039 -0.0008 -0.2410 -0.1954
   28MOL   C10233555   2.060   5.557   3.082 -0.1326  0.3662 -0.5290
   28MOL   C10333556   1.935   5.580   3.159 -0.1872 -0.1601  0.2141
   28MOL   C10433557   1.804   5.585   3.081  0.1732  0.1019  0.1841
   28MOL   C10533558   1.679   5.642   3.171  0.3019  0.4117 -0.2256
   28MOL   O10633559   1.600   5.728   3.127  0.3357  0.2799  0.5851
   28MOL   H10733560   1.381   4.176   2.970  2.7077 -2.6060 -0.1737
   28MOL   H10833561   1.480   4.158   2.832 -2.1773 -0.1946 -0.0427
   28MOL   H10933562   1.596   4.379   2.910  0.8030 -0.5908  0.0557
   28MOL   H11033563   1.496   4.350   3.051  1.5973 -0.0089  1.4100
   28MOL   H11133564   1.589   4.121   3.067  1.5802  0.4630  1.5065
   28MOL   H11233565   1.698   4.154   2.932 -2.1907 -0.2531 -0.9367
   28MOL   H11333566   1.710   4.323   3.190 -0.3858 -0.6596  1.1409
   28MOL   H11433567   1.794   4.174   3.175  0.4159 -0.0805 -0.0493
   28MOL   H11533568   1.814   4.378   2.953 -1.3250  0.9236  0.4848
   28MOL   H11633569   1.947   4.279   3.015  0.6679  0.9685 -1.2501
   28MOL   H11733570   1.965   4.398   3.231 -1.1113 -1.4682  0.1823
   28MOL   H11833571   1.835   4.496   3.195  1.5276  1.5805  0.4830
   28MOL   H11933572   1.953   4.588   2.993  0.4666  1.3004 -0.5040
   28MOL   H12033573   2.087   4.472   3.013  0.4333  0.9993  0.4145
   28MOL   H12133574   2.156   4.589   3.209  3.0750  1.3532 -1.3444
   28MOL   H12233575   2.013   4.699   3.194  0.5046  0.5849 -0.5961
   28MOL   H12333576   2.224   4.661   2.988  1.7696 -1.0908  2.0397
   28MOL   H12433577   2.094   4.794   3.003  0.5710 -0.6554 -1.1037
   28MOL   H12533578   2.254   4.895   3.183  2.0623  0.6893 -0.9981
   28MOL   H12633579   2.359   4.767   3.147 -0.1484  0.1312  1.6602
   28MOL   H12733580   2.447   5.002   2.807 -1.5742 -0.1707  0.5345
   28MOL   H12833581   2.573   5.059   2.885  0.0640 -1.9135 -0.5586
   28MOL   H12933582   2.414   5.251   2.796 -0.8630  0.2963 -0.2972
   28MOL   H13033583   2.461   5.274   2.965 -0.8437  2.5111  0.2870
   28MOL   H13133584   2.239   5.171   3.031  1.5304 -1.3922  0.5798
   28MOL   H13233585   2.189   5.187   2.869  1.2383 -1.2058 -0.1258
   28MOL   H13333586   2.221   5.440   2.868  0.9800 -0.3868 -0.8117
   28MOL   H13433587   2.304   5.423   3.025  1.9732 -0.3783 -2.3133
   28MOL   H13533588   2.007   5.369   2.974 -0.2720 -1.5418  0.8421
   28MOL   H13633589   2.079   5.338   3.124  1.8812  0.1023  0.2585
   28MOL   H13733590   2.147   5.576   3.144  0.4698  0.7674 -1.4985
   28MOL   H13833591   2.068   5.618   2.992  2.1065  1.3650  0.3171
   28MOL   H13933592   1.949   5.679   3.202  0.1154 -0.1794  0.1660
   28MOL   H14033593   1.938   5.495   3.228  1.5514 -0.3965 -0.1207
   28MOL   H14133594   1.818   5.655   2.999  0.1606  0.8389  0.8099
   28MOL   H14233595   1.776   5.488   3.039  1.1901 -0.1993  0.1998
   28MOL   O14333596   1.674   5.581   3.294 -0.1132 -1.0914 -0.8119
   28MOL   C14433597   1.566   5.606   3.382  0.4855  0.1990  0.2655
   28MOL   C14533598   1.613   5.597   3.527  1.2929  0.2246 -0.4682
   28MOL   C14633599   1.713   5.720   3.553 -0.3292 -0.3414  0.4322
   28MOL   C14733600   1.762   5.722   3.697 -0.4861 -0.2894  0.3426
   28MOL   C14833601   1.863   5.834   3.731  0.3580 -0.2159 -0.4568
   28MOL   C14933602   1.815   5.974   3.696  0.0257 -0.0375  0.0375
   28MOL   C15033603   1.914   6.086   3.720  0.9809 -0.2166 -0.3938
   28MOL   C15133604   2.015   6.082   3.606  0.0086 -0.0819  0.7422
   28MOL   C15233605   2.097   6.206   3.596 -0.0241 -0.0576 -0.2673
   28MOL   C15333606   2.198   6.198   3.482  0.0905 -0.3277 -0.1317
   28MOL   O15433607   2.281   6.320   3.473 -0.1512 -0.5844 -0.3788
   28MOL   C15533608   2.267   6.392   3.366 -0.6973 -0.7360  0.3662
   28MOL   O15633609   2.199   6.362   3.270  0.1445  1.2107 -0.2289
   28MOL   C15733610   2.355   6.516   3.361  0.0423 -0.0298 -0.0888
   28MOL   C15833611   2.335   6.602   3.238  0.3247 -0.1842  1.4545
   28MOL   C15933612   2.413   6.547   3.117  0.3341  0.1659  0.2702
   28MOL   C16033613   2.562   6.579   3.128 -0.5914 -0.1487 -0.2450
   28MOL   C16133614   2.654   6.482   3.054  0.8979 -0.1112 -0.1477
   28MOL   C16233615   2.804   6.517   3.054  1.1656 -0.9399  0.6004
   28MOL   C16333616   2.880   6.441   2.948  0.2052 -0.2340  0.1958
   28MOL   C16433617   3.021   6.490   2.931 -0.5669  0.0792 -0.1501
   28MOL   C16533618   3.113   6.460   3.043  0.5329  0.5241  0.0675
   28MOL   O16633619   3.115   6.519   3.149  0.3986  0.2133  0.7132
   28MOL   H16733620   1.511   5.699   3.367 -0.2801 -0.5106 -1.4006
   28MOL   H16833621   1.493   5.529   3.357 -0.1325  0.8547  0.0387
   28MOL   H16933622   1.533   5.596   3.600  1.2661 -0.6256 -0.4964
   28MOL   H17033623   1.672   5.506   3.540 -0.0072 -0.7482 -1.2192
   28MOL   H17133624   1.805   5.703   3.497  0.0203 -1.0309  1.2122
   28MOL   H17233625   1.670   5.814   3.518  1.6720  1.1989  1.9542
   28MOL   H17333626   1.678   5.721   3.767 -0.5564 -1.5996  0.2468
   28MOL   H17433627   1.798   5.625   3.730  0.3495 -0.1188 -0.0583
   28MOL   H17533628   1.952   5.805   3.675  0.1884 -1.4697 -0.0944
   28MOL   H17633629   1.905   5.826   3.831 -2.4092 -2.2902  0.6076
   28MOL   H17733630   1.726   5.999   3.754  1.7590  1.8610  1.9376
   28MOL   H17833631   1.792   5.977   3.590  0.5209 -0.7639 -0.0903
   28MOL   H17933632   1.955   6.080   3.821 -2.6373  0.8135  1.2181
   28MOL   H18033633   1.851   6.175   3.714  1.6607  0.2788 -0.3265
   28MOL   H18133634   1.960   6.091   3.513  0.7224 -2.1491  0.0847
   28MOL   H18233635   2.067   5.987   3.594 -0.4737 -0.3538  0.7770
   28MOL   H18333636   2.041   6.299   3.586 -0.3718 -0.2336  0.0290
   28MOL   H18433637   2.144   6.203   3.694  1.4295 -0.9475 -0.9881
   28MOL   H18533638   2.264   6.118   3.515  0.0251  0.4221  1.8412
   28MOL   H18633639   2.147   6.158   3.394 -0.0696 -1.9179  0.6634
   28MOL   H18733640   2.461   6.489   3.368  0.1893  0.3674 -0.6829
   28MOL   H18833641   2.321   6.577   3.444 -0.6852 -1.9517  1.0528
   28MOL   H18933642   2.369   6.701   3.270  0.3747 -0.0426  0.9788
   28MOL   H19033643   2.228   6.602   3.219  0.2930 -0.3234  1.6398
   28MOL   H19133644   2.377   6.588   3.023  0.1825 -1.9637 -0.6318
   28MOL   H19233645   2.410   6.438   3.111 -0.5294  0.3126 -2.4761
   28MOL   H19333646   2.591   6.594   3.232  0.7810  3.7135 -1.1044
   28MOL   H19433647   2.585   6.680   3.094  2.3363 -0.7120 -0.0193
   28MOL   H19533648   2.645   6.378   3.086  0.5667 -0.3057 -0.8691
   28MOL   H19633649   2.618   6.476   2.951  2.4632 -1.8400 -0.6292
   28MOL   H19733650   2.808   6.621   3.020 -2.0770 -1.9147 -3.0674
   28MOL   H19833651   2.841   6.517   3.157  0.9117 -0.5326  0.6942
   28MOL   H19933652   2.830   6.458   2.853  1.0527 -1.5743 -0.5167
   28MOL   H20033653   2.863   6.335   2.968 -2.4783  0.0821 -0.3398
   28MOL   H20133654   3.060   6.450   2.836  0.4946 -1.1582  0.7822
   28MOL   H20233655   3.027   6.598   2.918 -2.1140 -0.0549 -2.3410
   28MOL   H20333656   3.188   6.384   3.023 -2.0322 -1.8953 -0.5961
   29MOL     O133657   5.409   3.285   1.882  0.0343  0.2632  0.1874
   29MOL     C233658   5.472   3.200   1.977 -0.9630 -0.4388  0.2856
   29MOL     C333659   5.615   3.256   2.002 -0.6607 -0.1577 -0.1190
   29MOL     C433660   5.695   3.183   2.108  0.2365 -0.4860  0.1486
   29MOL     C533661   5.675   3.263   2.234  0.1798 -0.0666 -0.0160
   29MOL     C633662   5.692   3.187   2.367 -0.4343  0.5369  0.2044
   29MOL     C733663   5.688   3.278   2.490  0.1724  0.2433 -0.0494
   29MOL     C833664   5.662   3.213   2.626  0.1827 -0.5725 -0.6113
   29MOL     C933665   5.641   3.318   2.745  0.3104 -0.1700  0.1696
   29MOL    C1033666   5.610   3.242   2.877  0.3417  0.7627  0.0286
   29MOL    C1133667   5.620   3.343   2.997 -0.1097 -0.8917  0.5727
   29MOL    O1233668   5.551   3.295   3.104  0.1085 -0.7614 -0.6869
   29MOL    C1333669   5.423   3.332   3.115  0.5166 -0.0145 -0.3809
   29MOL    O1433670   5.359   3.408   3.044 -0.2565  0.2451 -0.1214
   29MOL    C1533671   5.351   3.281   3.233 -0.1282 -0.0827 -0.9049
   29MOL    C1633672   5.281   3.143   3.206  0.1212  0.2719 -0.3524
   29MOL    C1733673   5.175   3.129   3.100  0.0653  0.2797 -0.2019
   29MOL    C1833674   5.164   2.983   3.062 -0.1052  0.6776 -0.5747
   29MOL    C1933675   5.088   2.970   2.928  0.1251  0.0482 -0.0913
   29MOL    C2033676   5.122   2.859   2.820  0.8039 -0.3275 -0.3872
   29MOL    C2133677   5.276   2.840   2.792  0.2440  0.5693 -0.5762
   29MOL    C2233678   5.320   2.733   2.689  0.7184  0.1688 -0.1238
   29MOL    C2333679   5.351   2.603   2.763 -0.9887 -0.6907  0.6399
   29MOL    O2433680   5.464   2.556   2.733  0.2387 -0.0768  0.2256
   29MOL    H2533681   5.419   3.205   2.072 -0.2393  1.7887  0.6172
   29MOL    H2633682   5.482   3.094   1.953 -3.4064 -1.0269  1.7968
   29MOL    H2733683   5.671   3.238   1.910  2.1965  0.9416  1.3407
   29MOL    H2833684   5.627   3.363   2.016  0.3622 -0.3687  0.6867
   29MOL    H2933685   5.649   3.085   2.118  0.7133 -0.6740  0.4875
   29MOL    H3033686   5.801   3.169   2.088  0.6016  2.0274  0.1056
   29MOL    H3133687   5.749   3.342   2.241  0.5912 -0.2938 -1.4781
   29MOL    H3233688   5.573   3.301   2.225 -0.2629 -1.7503 -2.8143
   29MOL    H3333689   5.790   3.141   2.375 -0.3712  0.3379 -1.6372
   29MOL    H3433690   5.627   3.100   2.362  0.2605  0.1025 -1.4062
   29MOL    H3533691   5.605   3.347   2.473 -0.1213  0.7067  3.0415
   29MOL    H3633692   5.783   3.330   2.498  0.4514 -0.0510 -1.2490
   29MOL    H3733693   5.749   3.150   2.646  0.7154 -0.0924 -1.3775
   29MOL    H3833694   5.571   3.153   2.626 -0.6892  0.7205 -1.0828
   29MOL    H3933695   5.559   3.384   2.719 -0.6559 -0.7766  1.6336
   29MOL    H4033696   5.731   3.380   2.750  0.2144 -0.1009  1.0423
   29MOL    H4133697   5.510   3.199   2.875  1.0078 -1.0748  2.6610
   29MOL    H4233698   5.675   3.158   2.902 -1.1255 -1.4816 -3.3421
   29MOL    H4333699   5.725   3.366   3.019 -0.0844 -0.6708  0.2372
   29MOL    H4433700   5.576   3.438   2.967 -0.3976 -1.6271 -1.4229
   29MOL    H4533701   5.275   3.356   3.253 -0.6030 -0.5954 -0.7640
   29MOL    H4633702   5.432   3.274   3.305 -0.8300 -2.1991 -0.2936
   29MOL    H4733703   5.224   3.114   3.294 -0.7633  0.2086 -0.9395
   29MOL    H4833704   5.354   3.063   3.193 -1.3191 -0.8969 -1.3771
   29MOL    H4933705   5.186   3.189   3.009  0.0574  0.7082  0.0792
   29MOL    H5033706   5.076   3.155   3.137  0.0625 -0.0019 -0.0166
   29MOL    H5133707   5.126   2.923   3.145  0.8136  0.5357 -0.2520
   29MOL    H5233708   5.260   2.933   3.047  0.1656  0.8211  0.6298
   29MOL    H5333709   4.981   2.983   2.943 -0.2336 -3.4567  0.8584
   29MOL    H5433710   5.097   3.066   2.878 -0.1341  0.6232  0.9353
   29MOL    H5533711   5.104   2.764   2.871  0.8087 -0.3608 -0.4471
   29MOL    H5633712   5.065   2.854   2.727 -0.5854  2.0082  0.3177
   29MOL    H5733713   5.325   2.819   2.887 -1.7752  3.5276  1.1740
   29MOL    H5833714   5.313   2.935   2.755  0.3762 -0.4071 -3.0727
   29MOL    H5933715   5.239   2.710   2.620  0.6676  0.1027 -0.0410
   29MOL    H6033716   5.401   2.771   2.627 -0.9046  2.9358 -0.6073
   29MOL    H6133717   5.329   3.249   1.848  0.0535  0.9847 -0.6321
   29MOL    O6233718   5.262   2.555   2.852 -0.2134  0.0007  0.5062
   29MOL    C6333719   5.275   2.419   2.907  0.1541  0.0851  0.2963
   29MOL    C6433720   5.151   2.324   2.894  0.7856  0.9031 -0.0434
   29MOL    C6533721   5.117   2.294   2.742  0.4315  0.5179  0.0533
   29MOL    C6633722   4.999   2.193   2.738 -0.3470  0.0500  0.4616
   29MOL    C6733723   5.042   2.047   2.740  0.0790  0.4060  0.1382
   29MOL    C6833724   4.914   1.964   2.749 -0.3685  0.2743 -1.0343
   29MOL    C6933725   4.934   1.819   2.767 -0.2856 -0.1931  0.0655
   29MOL    C7033726   5.005   1.787   2.905  0.1677  0.0673  0.2267
   29MOL    C7133727   5.004   1.640   2.944  0.5627  0.0136 -0.0432
   29MOL    C7233728   5.042   1.611   3.088  0.0211 -0.5031  0.4203
   29MOL    O7333729   5.170   1.655   3.109  0.2273  0.2253 -0.0529
   29MOL    C7433730   5.186   1.766   3.192  0.5463  0.5431 -0.6358
   29MOL    O7533731   5.095   1.833   3.231  0.1737  0.3740 -0.3996
   29MOL    C7633732   5.332   1.785   3.233 -0.4395 -0.4131  0.2990
   29MOL    C7733733   5.424   1.815   3.114 -0.4468 -0.2563 -0.1879
   29MOL    C7833734   5.411   1.957   3.050 -0.2888  0.2573  0.4121
   29MOL    C7933735   5.517   2.060   3.104 -0.7014 -0.6375 -0.4523
   29MOL    C8033736   5.496   2.199   3.042  0.3123  0.0428 -0.2929
   29MOL    C8133737   5.621   2.288   3.024 -0.1528 -0.5774  0.7100
   29MOL    C8233738   5.715   2.239   2.902  0.1742 -0.4598  0.8323
   29MOL    C8333739   5.778   2.366   2.833 -0.2132 -0.4597  0.1342
   29MOL    C8433740   5.881   2.442   2.912  0.8054 -0.5316  0.1408
   29MOL    O8533741   5.871   2.563   2.930  0.1933  0.2024 -0.4063
   29MOL    H8633742   5.348   2.364   2.848  0.0050  2.5497 -2.2878
   29MOL    H8733743   5.312   2.435   3.008  0.7033  0.1967  0.0826
   29MOL    H8833744   5.178   2.242   2.960 -0.7339  1.2445  1.0206
   29MOL    H8933745   5.058   2.369   2.927  0.9492 -0.0791  1.8098
   29MOL    H9033746   5.089   2.390   2.696  0.5033  0.3913 -0.2595
   29MOL    H9133747   5.202   2.258   2.684  0.1025  2.2403 -1.5728
   29MOL    H9233748   4.930   2.209   2.822  0.6921 -0.4362  1.4164
   29MOL    H9333749   4.938   2.207   2.649  0.2669 -1.2462 -0.1715
   29MOL    H9433750   5.102   2.031   2.830 -0.1756  0.4867  0.3248
   29MOL    H9533751   5.106   2.022   2.656 -1.5230  0.4962 -1.1284
   29MOL    H9633752   4.845   1.970   2.665 -0.3408  0.9683 -1.0146
   29MOL    H9733753   4.850   1.993   2.832  0.2623 -0.4052 -0.3022
   29MOL    H9833754   4.997   1.775   2.689 -1.6789  1.9659 -2.3490
   29MOL    H9933755   4.837   1.770   2.767  0.0351 -0.8368 -0.3428
   29MOL   H10033756   4.963   1.833   2.994 -3.6883 -2.4038 -0.2087
   29MOL   H10133757   5.109   1.819   2.898 -0.1766  1.1253 -0.2044
   29MOL   H10233758   4.898   1.618   2.938  0.5506  0.0411  0.0641
   29MOL   H10333759   5.058   1.576   2.873 -2.4413 -1.8081 -0.7777
   29MOL   H10433760   4.972   1.660   3.155 -1.2557  3.9090 -3.8702
   29MOL   H10533761   5.032   1.503   3.095  0.2855 -0.5877 -0.4604
   29MOL   H10633762   5.364   1.685   3.262 -0.3722  0.1710  2.3265
   29MOL   H10733763   5.344   1.859   3.312  0.2118 -0.1991 -0.0042
   29MOL   H10833764   5.409   1.748   3.030  1.7432  0.4724 -1.1883
   29MOL   H10933765   5.528   1.809   3.145 -0.7250 -1.5392  0.5303
   29MOL   H11033766   5.309   1.993   3.061 -0.5361 -0.3484  0.1439
   29MOL   H11133767   5.423   1.952   2.942 -1.9453  0.6489  0.2126
   29MOL   H11233768   5.619   2.030   3.079  0.2959  2.1042  0.2454
   29MOL   H11333769   5.490   2.074   3.209 -1.4972  2.7365 -1.0762
   29MOL   H11433770   5.444   2.191   2.947  0.8292  5.5733 -1.1938
   29MOL   H11533771   5.424   2.248   3.107 -1.0210 -1.7537 -0.3531
   29MOL   H11633772   5.587   2.388   2.999 -0.4304 -0.5835  1.0541
   29MOL   H11733773   5.679   2.307   3.114 -1.7555 -1.5602  1.9782
   29MOL   H11833774   5.653   2.179   2.835 -3.0532  1.4617  2.0036
   29MOL   H11933775   5.791   2.166   2.932 -0.0972  0.3441  3.5635
   29MOL   H12033776   5.832   2.338   2.742 -1.6941 -0.6090 -0.7123
   29MOL   H12133777   5.706   2.433   2.787  1.0019 -0.7939 -2.3036
   29MOL   O12233778   5.972   2.354   2.963 -0.1122  0.3465 -0.4323
   29MOL   C12333779   6.062   2.398   3.063 -0.9125  0.2041 -0.4635
   29MOL   C12433780   6.197   2.447   3.006 -0.0691  0.6004 -0.3822
   29MOL   C12533781   6.303   2.466   3.121  0.5824  0.4054 -0.5611
   29MOL   C12633782   6.320   2.612   3.176 -0.0414  0.3796 -0.0629
   29MOL   C12733783   6.406   2.616   3.303  0.6596  0.4184  0.3711
   29MOL   C12833784   6.396   2.752   3.374  0.0658  0.7500 -0.1686
   29MOL   C12933785   6.467   2.762   3.513 -0.8255  0.1611 -0.3154
   29MOL   C13033786   6.409   2.673   3.622 -0.1744  0.2780 -0.1461
   29MOL   C13133787   6.252   2.669   3.631  0.7142 -0.3650  1.2462
   29MOL   C13233788   6.201   2.618   3.762 -0.9910  0.3530 -0.0093
   29MOL   O13333789   6.066   2.649   3.783  0.5796 -0.0361  0.0100
   29MOL   C13433790   5.997   2.585   3.886  0.0022 -0.2458  0.4760
   29MOL   O13533791   6.055   2.510   3.963  0.8659  0.1558 -0.1572
   29MOL   C13633792   5.853   2.629   3.905 -0.4661 -0.0693 -0.5659
   29MOL   C13733793   5.776   2.604   3.780  0.8818  0.6076  0.3338
   29MOL   C13833794   5.623   2.626   3.808 -0.2870  0.2212  0.5510
   29MOL   C13933795   5.588   2.765   3.858 -0.0001 -0.3667  0.2368
   29MOL   C14033796   5.441   2.794   3.900 -0.0304 -0.3163  0.4916
   29MOL   C14133797   5.422   2.939   3.932 -0.2685  0.3903  0.2137
   29MOL   C14233798   5.274   2.987   3.931  0.4890 -0.2349  0.2534
   29MOL   C14333799   5.249   3.120   4.000  0.5303  0.2082  0.1086
   29MOL   C14433800   5.208   3.112   4.154  0.1297 -0.4027 -0.7277
   29MOL   O14533801   5.108   3.154   4.212 -0.2434  0.3608  0.3956
   29MOL   H14633802   6.014   2.471   3.128 -1.0655 -0.3944  0.1034
   29MOL   H14733803   6.075   2.312   3.128 -1.7901  1.0853  0.9177
   29MOL   H14833804   6.227   2.379   2.926 -0.1398  0.1232 -0.0018
   29MOL   H14933805   6.172   2.541   2.956 -2.3334  0.1653 -0.1157
   29MOL   H15033806   6.291   2.384   3.191 -1.7940  1.6082  0.4866
   29MOL   H15133807   6.399   2.434   3.079  0.7243  0.4884 -0.2976
   29MOL   H15233808   6.373   2.671   3.101  0.3631  0.6235  0.4094
   29MOL   H15333809   6.226   2.663   3.197 -0.1378  0.3837 -0.4928
   29MOL   H15433810   6.511   2.592   3.285  0.3616  0.7029 -1.7954
   29MOL   H15533811   6.369   2.540   3.372  1.5413 -1.5984 -1.3183
   29MOL   H15633812   6.290   2.770   3.395  0.2012 -0.2679  1.5056
   29MOL   H15733813   6.426   2.826   3.301 -1.5721  0.5184 -1.0984
   29MOL   H15833814   6.472   2.867   3.542  0.3586  0.3880 -1.3020
   29MOL   H15933815   6.572   2.736   3.506 -1.2178 -1.6335  0.2885
   29MOL   H16033816   6.452   2.716   3.712 -0.3296  0.4791 -0.1662
   29MOL   H16133817   6.447   2.572   3.612  0.0245 -0.0142  3.0940
   29MOL   H16233818   6.226   2.775   3.631  0.8905 -0.3106  2.3033
   29MOL   H16333819   6.204   2.610   3.553  0.2463  2.3719 -0.5928
   29MOL   H16433820   6.223   2.512   3.772 -0.2598  0.6071  1.1622
   29MOL   H16533821   6.267   2.652   3.841 -0.7334  0.4695 -0.2760
   29MOL   H16633822   5.865   2.735   3.928  2.8467 -0.0752 -2.0416
   29MOL   H16733823   5.810   2.587   3.996  2.0836 -2.5123 -0.4069
   29MOL   H16833824   5.794   2.499   3.762 -0.1171  0.4209  0.4037
   29MOL   H16933825   5.813   2.661   3.694 -0.3080 -1.0293 -1.2814
   29MOL   H17033826   5.589   2.560   3.887  0.0790  0.1834  0.6803
   29MOL   H17133827   5.558   2.600   3.725 -0.7119  1.0558  0.6216
   29MOL   H17233828   5.609   2.829   3.772 -0.2905 -0.4812  0.0815
   29MOL   H17333829   5.647   2.809   3.938 -0.1831  1.4012 -0.5777
   29MOL   H17433830   5.370   2.757   3.825  1.5406 -1.9880 -0.2171
   29MOL   H17533831   5.411   2.736   3.987  1.6863 -1.3396  0.4219
   29MOL   H17633832   5.465   2.959   4.031  0.3828 -1.5805  0.3689
   29MOL   H17733833   5.472   2.997   3.856  0.1323  2.4317  1.9899
   29MOL   H17833834   5.217   2.918   3.993  0.9891 -0.2536  0.6930
   29MOL   H17933835   5.230   2.998   3.832 -2.1779 -0.5704  1.3577
   29MOL   H18033836   5.324   3.191   3.964  0.5612 -0.1652 -0.5729
   29MOL   H18133837   5.159   3.156   3.951  1.8392  0.2363 -2.3841
   29MOL   O18233838   5.312   3.050   4.215  0.2043  0.2675  0.4709
   29MOL   C18333839   5.302   3.027   4.353  0.3603  0.1830  0.2192
   29MOL   C18433840   5.384   2.911   4.393  0.3888  0.4548  1.1772
   29MOL   C18533841   5.368   2.783   4.308 -0.0549  0.5256  0.0254
   29MOL   C18633842   5.456   2.674   4.377 -0.1277  0.0128  0.0396
   29MOL   C18733843   5.511   2.565   4.285 -0.5588  0.1198  0.3281
   29MOL   C18833844   5.412   2.457   4.252  0.1294  0.0030 -0.1391
   29MOL   C18933845   5.470   2.323   4.204  0.2458  0.0590  0.1602
   29MOL   C19033846   5.543   2.330   4.065  0.2996 -0.5823  0.1753
   29MOL   C19133847   5.600   2.194   4.024  0.4840  0.4633 -0.8428
   29MOL   C19233848   5.680   2.181   3.892 -0.2364 -0.0288  0.3028
   29MOL   O19333849   5.607   2.233   3.785 -0.1105 -0.1572 -0.2515
   29MOL   C19433850   5.675   2.267   3.676 -0.8835 -0.3370  0.5309
   29MOL   O19533851   5.797   2.242   3.660  0.5229 -0.2405 -0.1642
   29MOL   C19633852   5.589   2.325   3.563 -0.1885  0.3199 -0.1957
   29MOL   C19733853   5.667   2.367   3.438  0.4625  0.4399  0.0195
   29MOL   C19833854   5.753   2.494   3.454 -0.4679  0.1917  0.3853
   29MOL   C19933855   5.810   2.551   3.329 -0.4416 -0.8855 -0.2821
   29MOL   C20033856   5.929   2.649   3.359 -0.7959 -0.7127  0.1601
   29MOL   C20133857   5.943   2.773   3.270 -0.0698  0.6183 -0.4792
   29MOL   C20233858   5.859   2.888   3.313 -0.0679 -0.7333  1.0481
   29MOL   C20333859   5.832   2.984   3.191  0.0642 -0.1306 -0.4189
   29MOL   C20433860   5.705   2.944   3.109 -0.1985 -0.1711 -0.8316
   29MOL   O20533861   5.590   2.976   3.144 -0.3983 -0.9088  0.6177
   29MOL   H20633862   5.321   3.124   4.399  1.9170 -1.0745  2.3265
   29MOL   H20733863   5.199   2.996   4.370  0.2185  0.5040 -0.0481
   29MOL   H20833864   5.491   2.934   4.394  0.7248 -0.9867 -0.1789
   29MOL   H20933865   5.372   2.885   4.498 -2.0372 -0.9322  0.5696
   29MOL   H21033866   5.271   2.751   4.271 -0.8693  2.5620  0.3027
   29MOL   H21133867   5.429   2.802   4.219 -0.7554  2.3596 -0.0874
   29MOL   H21233868   5.543   2.729   4.413  0.0280 -0.7970  0.9335
   29MOL   H21333869   5.397   2.628   4.457 -1.4508  1.1797 -0.2435
   29MOL   H21433870   5.597   2.526   4.339  0.1187 -3.0986 -2.8670
   29MOL   H21533871   5.553   2.605   4.193 -0.6759  1.5474  0.8849
   29MOL   H21633872   5.344   2.507   4.183  2.3564  0.9192 -1.7436
   29MOL   H21733873   5.349   2.432   4.337  0.3940  1.3801  0.4721
   29MOL   H21833874   5.390   2.249   4.202  0.5816 -0.3296  1.0578
   29MOL   H21933875   5.543   2.287   4.276  0.8213  0.9988  0.0579
   29MOL   H22033876   5.616   2.411   4.073 -0.0409 -0.2110 -0.4476
   29MOL   H22133877   5.474   2.357   3.985  0.8446 -0.7130 -0.3405
   29MOL   H22233878   5.660   2.157   4.107 -1.9847  1.9259  1.6410
   29MOL   H22333879   5.519   2.123   4.010  0.2543  1.2489 -3.9070
   29MOL   H22433880   5.775   2.232   3.909  0.0074  0.0955 -1.3918
   29MOL   H22533881   5.707   2.076   3.878  1.3908  0.4369 -0.1369
   29MOL   H22633882   5.540   2.410   3.611 -1.8542 -1.0205  0.5159
   29MOL   H22733883   5.518   2.247   3.537 -1.6024  1.1093  1.2222
   29MOL   H22833884   5.595   2.375   3.357 -0.3254 -0.0625  0.6608
   29MOL   H22933885   5.738   2.293   3.402 -0.5205 -0.2086 -0.6163
   29MOL   H23033886   5.833   2.486   3.528  0.0186  2.1055  0.0987
   29MOL   H23133887   5.696   2.578   3.494  1.0637  1.9149 -0.8895
   29MOL   H23233888   5.749   2.612   3.262 -0.4782 -0.1458  0.4179
   29MOL   H23333889   5.839   2.468   3.265 -0.0387 -1.5811  0.7971
   29MOL   H23433890   5.921   2.673   3.465 -0.5235 -0.4327  0.1175
   29MOL   H23533891   6.020   2.591   3.352 -0.3167 -0.3249  2.6423
   29MOL   H23633892   6.051   2.787   3.259  0.4187 -2.4217 -0.0756
   29MOL   H23733893   5.912   2.739   3.172 -1.0602 -1.6707  0.5838
   29MOL   H23833894   5.912   2.942   3.391  1.1224  0.0683 -0.3095
   29MOL   H23933895   5.769   2.848   3.360 -2.2002 -1.8681 -3.6608
   29MOL   H24033896   5.808   3.086   3.220 -0.2273  0.1186 -1.4945
   29MOL   H24133897   5.921   3.011   3.134 -1.1114  0.4209 -2.0328
   29MOL   O24233898   5.738   2.860   3.007 -0.1139  0.4658 -0.3975
   29MOL   C24333899   5.641   2.826   2.907 -1.3416  0.3468  0.3425
   29MOL   C24433900   5.695   2.866   2.772  0.1938 -0.0519 -0.0429
   29MOL   C24533901   5.805   2.775   2.714  0.2496 -0.1135  0.1618
   29MOL   C24633902   5.881   2.828   2.588  0.2466 -0.1297  0.2220
   29MOL   C24733903   5.785   2.851   2.460  0.2183 -0.2842 -0.5088
   29MOL   C24833904   5.732   2.714   2.424 -0.6970 -0.2336 -0.5841
   29MOL   C24933905   5.670   2.710   2.283  1.0659 -0.0678 -0.2351
   29MOL   C25033906   5.535   2.787   2.271  0.3037 -0.8491  0.1598
   29MOL   C25133907   5.440   2.731   2.158 -0.1367  0.6607 -0.8165
   29MOL   C25233908   5.478   2.773   2.018 -0.2375 -0.3149  0.3635
   29MOL   O25333909   5.410   2.714   1.908 -0.1172 -0.1076  0.7191
   29MOL   C25433910   5.335   2.785   1.828 -0.1202  0.1564  0.1530
   29MOL   O25533911   5.329   2.908   1.837  0.3416 -0.0499  0.4243
   29MOL   C25633912   5.272   2.705   1.718 -0.2490 -0.2159  0.6739
   29MOL   C25733913   5.121   2.706   1.730 -0.3753 -0.0448  0.2441
   29MOL   C25833914   5.072   2.576   1.799 -0.2626  0.2980 -0.0197
   29MOL   C25933915   4.926   2.546   1.799 -0.3134  0.1594 -0.3100
   29MOL   C26033916   4.886   2.415   1.868  0.5313  0.6358  0.9548
   29MOL   C26133917   4.800   2.323   1.781  0.1039  0.2025  1.0242
   29MOL   C26233918   4.759   2.194   1.838 -0.3702 -0.0586 -0.6039
   29MOL   C26333919   4.697   2.094   1.738  0.5641  0.0618 -0.3314
   29MOL   C26433920   4.794   2.015   1.656 -0.2778 -0.9540 -0.2455
   29MOL   O26533921   4.814   2.040   1.539 -0.0873 -0.3243  0.5746
   29MOL   H26633922   5.632   2.718   2.901 -0.5970  0.3962 -3.4742
   29MOL   H26733923   5.538   2.858   2.925 -1.2694 -0.3183  2.0125
   29MOL   H26833924   5.611   2.882   2.704 -1.7063 -1.4549  1.9181
   29MOL   H26933925   5.730   2.969   2.778  0.5293 -0.3280  4.2231
   29MOL   H27033926   5.887   2.757   2.783 -0.5704  0.8319  1.4213
   29MOL   H27133927   5.763   2.677   2.690  1.1890 -0.0496 -1.8514
   29MOL   H27233928   5.934   2.922   2.599  1.2279 -0.8381  1.7261
   29MOL   H27333929   5.953   2.755   2.551  1.3525  1.0767 -0.0237
   29MOL   H27433930   5.847   2.901   2.385  1.3542 -0.3040  0.4021
   29MOL   H27533931   5.711   2.929   2.479 -0.3899 -0.6292 -1.4772
   29MOL   H27633932   5.660   2.670   2.493 -2.2429  1.0159 -1.3588
   29MOL   H27733933   5.811   2.639   2.417 -2.8788 -2.6591 -0.2537
   29MOL   H27833934   5.663   2.602   2.272 -1.6904 -0.1934  1.9661
   29MOL   H27933935   5.745   2.748   2.214  3.1233 -1.2105  1.3083
   29MOL   H28033936   5.539   2.895   2.263 -0.7884 -0.6806  1.5573
   29MOL   H28133937   5.482   2.766   2.364  0.5926  0.2154  0.5666
   29MOL   H28233938   5.448   2.623   2.166  4.6256  0.9208 -0.6417
   29MOL   H28333939   5.338   2.762   2.182  0.1094  0.2251  0.8693
   29MOL   H28433940   5.504   2.879   2.024  0.7110 -0.5046 -0.3794
   29MOL   H28533941   5.577   2.729   2.006 -0.8536 -1.9118  0.9882
   29MOL   H28633942   5.313   2.605   1.716  1.9759  0.6757  0.4856
   29MOL   H28733943   5.291   2.757   1.624 -0.9997 -1.1453  0.0004
   29MOL   H28833944   5.073   2.701   1.633  0.5994  0.0138 -0.2559
   29MOL   H28933945   5.092   2.797   1.783  2.3830  0.6242  0.7080
   29MOL   H29033946   5.107   2.584   1.902  1.4226  0.9896 -0.6355
   29MOL   H29133947   5.129   2.496   1.752  0.2877  0.2081  0.7801
   29MOL   H29233948   4.882   2.552   1.700  1.8957  4.3922 -1.1599
   29MOL   H29333949   4.884   2.635   1.846 -1.2737  0.6593 -2.0772
   29MOL   H29433950   4.975   2.358   1.897  0.0057 -1.9200 -2.1759
   29MOL   H29533951   4.829   2.441   1.956 -0.5358  0.4266  0.3351
   29MOL   H29633952   4.707   2.369   1.746  1.4266  1.1926 -1.2952
   29MOL   H29733953   4.846   2.308   1.683 -0.3256 -0.0580  0.8609
   29MOL   H29833954   4.691   2.210   1.921  0.0563 -2.0856  0.1682
   29MOL   H29933955   4.845   2.140   1.879 -1.7627 -1.8842 -0.0197
   29MOL   H30033956   4.632   2.023   1.790  0.0607  1.6758  1.2799
   29MOL   H30133957   4.625   2.138   1.669  0.6383  1.8682  0.7044
   29MOL   O30233958   4.864   1.931   1.737 -0.1298  0.4234 -0.2341
   29MOL   C30333959   4.994   1.886   1.695  0.6442 -1.0312 -0.2658
   29MOL   C30433960   5.101   1.976   1.766 -0.0661 -0.2216  0.0129
   29MOL   C30533961   5.126   2.109   1.701 -0.4361 -0.3595  0.6170
   29MOL   C30633962   5.255   2.180   1.732  0.3737  0.1850  0.2639
   29MOL   C30733963   5.312   2.275   1.628 -0.4893 -0.0843 -0.1101
   29MOL   C30833964   5.445   2.336   1.693  0.7777  0.1784  0.3856
   29MOL   C30933965   5.513   2.454   1.612  0.3171  0.1436  0.9790
   29MOL   C31033966   5.624   2.533   1.692  0.2971  0.2295  0.9212
   29MOL   C31133967   5.660   2.673   1.638  0.0478 -0.2826  0.4670
   29MOL   C31233968   5.778   2.735   1.715 -0.0435  0.2971 -0.0122
   29MOL   O31333969   5.790   2.859   1.653 -0.0831 -0.3046 -0.0151
   29MOL   C31433970   5.783   2.969   1.734 -0.1749 -0.5117  0.4255
   29MOL   O31533971   5.766   2.971   1.857  0.4219 -0.8128  0.0128
   29MOL   C31633972   5.815   3.101   1.661  1.0282 -0.2021 -0.0440
   29MOL   C31733973   5.966   3.133   1.642  0.0228 -0.3140  0.1387
   29MOL   C31833974   6.047   3.149   1.767 -0.3965  0.0519 -0.7432
   29MOL   C31933975   6.178   3.230   1.757 -0.0101 -0.0082 -0.1642
   29MOL   C32033976   6.273   3.184   1.646 -0.4407 -0.9105 -0.6517
   29MOL   C32133977   6.318   3.304   1.551  0.5022  0.2507 -0.3443
   29MOL   C32233978   6.441   3.269   1.457  0.4967 -0.0408  0.0525
   29MOL   C32333979   6.489   3.388   1.370 -0.0874 -0.0184  0.1449
   29MOL   C32433980   6.391   3.410   1.253  0.1850  0.3474  0.5240
   29MOL   O32533981   6.392   3.335   1.160 -0.2482 -0.0478  0.8675
   29MOL   H32633982   5.011   1.785   1.730 -0.0221 -0.7091  1.0306
   29MOL   H32733983   5.012   1.884   1.588 -2.6605 -1.1056 -0.8624
   29MOL   H32833984   5.076   2.001   1.869  0.3941  1.7707 -0.3460
   29MOL   H32933985   5.191   1.914   1.759  0.0616 -0.3646  2.5467
   29MOL   H33033986   5.120   2.095   1.593  1.1310  0.8228  0.3626
   29MOL   H33133987   5.044   2.176   1.729 -0.0771 -0.0858  1.0296
   29MOL   H33233988   5.243   2.230   1.828  0.7543 -1.6230  1.2801
   29MOL   H33333989   5.328   2.102   1.753  2.4715  1.3685 -2.2413
   29MOL   H33433990   5.242   2.358   1.630  0.0926  0.4140 -0.3164
   29MOL   H33533991   5.335   2.232   1.531  0.7514  0.8327 -0.2386
   29MOL   H33633992   5.521   2.264   1.723 -0.5229 -1.2065  0.4027
   29MOL   H33733993   5.415   2.380   1.789 -3.2069 -2.0720  0.2550
   29MOL   H33833994   5.435   2.523   1.578  0.8545 -1.1172 -3.0450
   29MOL   H33933995   5.547   2.417   1.516 -2.4663  0.0203 -0.0069
   29MOL   H34033996   5.718   2.476   1.691  1.0249  1.4205 -1.0395
   29MOL   H34133997   5.578   2.542   1.790 -0.3445  0.3895  0.6057
   29MOL   H34233998   5.669   2.652   1.531 -0.1513 -1.6670  0.7039
   29MOL   H34333999   5.569   2.730   1.654 -0.4397 -0.4265 -1.5977
   29MOL   H34434000   5.736   2.739   1.816  0.5859  1.5269  0.2074
   29MOL   H34534001   5.869   2.679   1.693  0.3592  0.6617  0.7229
   29MOL   H34634002   5.769   3.184   1.714 -0.0898  0.8264 -2.5379
   29MOL   H34734003   5.754   3.109   1.571  2.9657  1.8003 -1.2290
   29MOL   H34834004   5.949   3.227   1.589 -2.5226  0.5180  2.3180
   29MOL   H34934005   6.006   3.060   1.571 -1.6333 -0.4370 -0.7041
   29MOL   H35034006   6.079   3.051   1.803  1.0766  0.1761 -1.6922
   29MOL   H35134007   5.978   3.189   1.841  1.0802  1.0698  0.0987
   29MOL   H35234008   6.227   3.233   1.855 -0.5568 -1.7798  0.1771
   29MOL   H35334009   6.160   3.336   1.743 -1.2673 -0.3430 -1.1430
   29MOL   H35434010   6.365   3.139   1.685 -0.3537 -2.1965 -2.3147
   29MOL   H35534011   6.229   3.102   1.590  0.2873 -0.3701 -2.0450
   29MOL   H35634012   6.234   3.344   1.495  1.7940 -0.5999 -2.9739
   29MOL   H35734013   6.347   3.394   1.605 -0.2615  2.3050 -3.2548
   29MOL   H35834014   6.417   3.178   1.401  1.5599  0.1860 -0.7922
   29MOL   H35934015   6.526   3.232   1.514  0.9709  1.5669  0.4212
   29MOL   H36034016   6.503   3.479   1.428  0.4471  1.1873 -1.8167
   29MOL   H36134017   6.589   3.375   1.329 -0.7432 -0.8373 -1.2411
   29MOL   O36234018   6.310   3.511   1.270 -0.1107 -0.1489  0.3895
   29MOL   C36334019   6.204   3.524   1.177  0.3762  0.3688  0.0731
   29MOL   C36434020   6.083   3.445   1.216 -0.2589  0.0366 -0.0880
   29MOL   C36534021   6.013   3.492   1.347  0.6570 -0.2931  0.4964
   29MOL   C36634022   5.891   3.413   1.372 -0.4142  0.3263 -0.4106
   29MOL   C36734023   5.825   3.463   1.497 -0.5840  0.0243  0.1494
   29MOL   C36834024   5.677   3.409   1.513  0.2817  0.1887 -0.2214
   29MOL   C36934025   5.602   3.439   1.643  0.0889 -0.3837  0.0919
   29MOL   C37034026   5.573   3.590   1.663 -0.3758  0.0024  0.1270
   29MOL   C37134027   5.535   3.620   1.809  0.3462 -0.2174 -0.0843
   29MOL   C37234028   5.495   3.764   1.836  0.0469 -0.4036  0.1050
   29MOL   O37334029   5.602   3.857   1.811 -0.4070  0.4877  0.2206
   29MOL   C37434030   5.599   3.980   1.849  0.5119  0.6612 -0.2158
   29MOL   O37534031   5.498   4.040   1.892  0.0407  0.3084  0.3019
   29MOL   C37634032   5.734   4.049   1.832 -0.0568  0.1009 -0.3834
   29MOL   C37734033   5.801   4.107   1.960 -0.1533 -0.6960 -0.1738
   29MOL   C37834034   5.754   4.241   2.009 -0.7661  0.7496 -0.1529
   29MOL   C37934035   5.844   4.304   2.120  0.1731  0.0791 -0.1078
   29MOL   C38034036   5.767   4.411   2.199 -0.9302  0.3587 -0.0485
   29MOL   C38134037   5.855   4.489   2.302  0.4364 -0.1233 -0.5647
   29MOL   C38234038   5.767   4.603   2.370 -0.2183  0.7443 -0.5461
   29MOL   C38334039   5.851   4.711   2.433  0.8367 -0.3770 -0.0669
   29MOL   C38434040   5.934   4.657   2.548 -0.4200  0.9664 -0.1567
   29MOL   O38534041   5.918   4.700   2.661 -0.8495  0.1809 -0.3678
   29MOL   H38634042   6.164   3.625   1.183 -0.8740 -0.0944 -0.1561
   29MOL   H38734043   6.234   3.516   1.072 -0.2301 -0.2432 -0.0595
   29MOL   H38834044   6.013   3.454   1.133  1.1038 -0.7828 -1.3526
   29MOL   H38934045   6.106   3.338   1.213 -1.4324 -0.2402  0.3218
   29MOL   H39034046   6.089   3.470   1.422 -1.1731 -0.7038  2.2637
   29MOL   H39134047   5.996   3.599   1.335  0.6659 -0.5102 -1.5920
   29MOL   H39234048   5.828   3.430   1.284 -1.4699  2.2854  0.6948
   29MOL   H39334049   5.902   3.305   1.379  4.1307  0.5580 -2.4325
   29MOL   H39434050   5.832   3.571   1.513 -0.1490 -0.0126  0.2196
   29MOL   H39534051   5.873   3.417   1.584  1.4172 -0.7011 -1.3251
   29MOL   H39634052   5.659   3.303   1.493  0.7935  0.1273 -0.3627
   29MOL   H39734053   5.614   3.443   1.432  1.7298  0.5125 -1.2202
   29MOL   H39834054   5.651   3.389   1.726  1.9613  0.9565 -0.1772
   29MOL   H39934055   5.507   3.387   1.632 -0.2518  0.6756 -2.6002
   29MOL   H40034056   5.489   3.619   1.601  0.2986  0.0137 -0.7997
   29MOL   H40134057   5.655   3.659   1.642 -0.0891 -0.4512 -0.2586
   29MOL   H40234058   5.459   3.548   1.838 -2.8141  3.0779  0.1437
   29MOL   H40334059   5.618   3.609   1.879 -0.2881  2.1594  1.1189
   29MOL   H40434060   5.406   3.787   1.778  0.2889  0.3672  0.0295
   29MOL   H40534061   5.456   3.775   1.937 -2.3017  1.7805 -0.9869
   29MOL   H40634062   5.726   4.127   1.756 -1.0163  1.5149  1.1415
   29MOL   H40734063   5.803   3.976   1.790  1.0820  0.2118  1.2598
   29MOL   H40834064   5.907   4.094   1.943 -0.5152 -2.7795 -0.9815
   29MOL   H40934065   5.779   4.031   2.035 -0.4995 -0.0378  0.4006
   29MOL   H41034066   5.655   4.224   2.053  0.4699 -1.0828  2.0234
   29MOL   H41134067   5.737   4.316   1.932 -0.1277  1.0256 -0.0283
   29MOL   H41234068   5.930   4.347   2.069  0.9162 -0.7818  0.4055
   29MOL   H41334069   5.889   4.229   2.185 -0.9350  0.1746  0.7844
   29MOL   H41434070   5.741   4.486   2.124  2.1967  1.3101 -0.2325
   29MOL   H41534071   5.682   4.361   2.245 -0.5807 -0.9160 -0.7519
   29MOL   H41634072   5.898   4.425   2.378 -0.3230 -0.7115 -0.6237
   29MOL   H41734073   5.944   4.532   2.257 -0.4184  1.3440 -0.9063
   29MOL   H41834074   5.693   4.563   2.439 -0.8674  0.4573 -1.4153
   29MOL   H41934075   5.703   4.649   2.295 -0.2554 -0.6771 -1.4016
   29MOL   H42034076   5.904   4.773   2.361 -2.5567  0.3836 -2.0395
   29MOL   H42134077   5.772   4.777   2.468 -0.7383 -1.7527 -0.9454
   29MOL   O42234078   6.030   4.569   2.515  0.1620  0.1429 -0.1423
   29MOL   C42334079   6.127   4.527   2.607  0.0378 -0.3936 -0.1470
   29MOL   C42434080   6.243   4.481   2.526  0.3450 -0.7025 -0.0971
   29MOL   C42534081   6.358   4.408   2.596 -0.1362 -0.4305  0.2149
   29MOL   C42634082   6.457   4.502   2.669  0.5156 -0.0063  0.3189
   29MOL   C42734083   6.533   4.443   2.783  0.6924  0.0263 -0.2345
   29MOL   C42834084   6.637   4.531   2.860  0.2624 -0.1043 -1.0197
   29MOL   C42934085   6.705   4.457   2.976 -0.6238 -0.1858  0.6641
   29MOL   C43034086   6.798   4.557   3.046 -0.1568 -0.0183 -1.2108
   29MOL   C43134087   6.890   4.486   3.146 -0.0788  0.8315 -0.1510
   29MOL   C43234088   6.998   4.559   3.233  0.4913 -0.0115 -0.1777
   29MOL   O43334089   7.072   4.634   3.142  0.1387  0.2712 -0.1078
   29MOL   C43434090   7.189   4.680   3.182 -0.8803 -0.2410 -0.6803
   29MOL   O43534091   7.233   4.664   3.298  0.1307 -0.1597  0.3819
   29MOL   C43634092   7.257   4.765   3.078 -0.0996  0.1399 -0.0267
   29MOL   C43734093   7.338   4.690   2.968 -0.4394  0.0169  0.4746
   29MOL   C43834094   7.244   4.680   2.841 -0.8480  0.2355  0.1076
   29MOL   C43934095   7.288   4.580   2.740  0.4416 -0.9564 -0.6488
   29MOL   C44034096   7.195   4.570   2.617  0.1810 -0.1769 -0.2831
   29MOL   C44134097   7.073   4.483   2.633 -0.3493 -1.0792 -0.0782
   29MOL   C44234098   7.001   4.458   2.500  0.0686  0.4700 -0.6629
   29MOL   C44334099   6.855   4.415   2.515  0.4336  0.5832 -0.7083
   29MOL   C44434100   6.830   4.267   2.482  0.8312  0.4171  0.4972
   29MOL   O44534101   6.819   4.187   2.574 -0.7244  0.3096 -0.0119
   29MOL   H44634102   6.165   4.603   2.675  0.2953 -1.7238  1.2161
   29MOL   H44734103   6.086   4.446   2.668  0.2142  0.5461  1.2497
   29MOL   H44834104   6.217   4.415   2.443 -0.2681  1.3599 -1.6062
   29MOL   H44934105   6.293   4.569   2.484 -0.6113  1.0056  2.2766
   29MOL   H45034106   6.328   4.332   2.668 -1.4265  1.3656  1.6066
   29MOL   H45134107   6.410   4.353   2.518 -3.3960 -0.9620 -1.6891
   29MOL   H45234108   6.519   4.539   2.587 -1.8143 -1.3142 -2.0845
   29MOL   H45334109   6.401   4.584   2.714  1.0085 -0.6684  2.1756
   29MOL   H45434110   6.575   4.352   2.742  1.1433 -1.5460  3.4821
   29MOL   H45534111   6.464   4.400   2.856  0.7914  1.7263  0.8989
   29MOL   H45634112   6.583   4.614   2.906  0.9511 -0.9011  1.3230
   29MOL   H45734113   6.716   4.562   2.792  1.3609  2.4014  1.2943
   29MOL   H45834114   6.750   4.367   2.933  2.4211  1.3810  0.4225
   29MOL   H45934115   6.627   4.435   3.049 -1.6063  2.1968  0.3694
   29MOL   H46034116   6.730   4.616   3.107  0.6336  1.8860 -2.1305
   29MOL   H46134117   6.841   4.638   2.987  1.7080 -0.0532  0.0661
   29MOL   H46234118   6.827   4.432   3.217  1.6322  0.5563  1.2130
   29MOL   H46334119   6.945   4.406   3.095 -0.9032  0.1853 -0.0377
   29MOL   H46434120   6.953   4.619   3.313  0.6259 -0.9010  0.5840
   29MOL   H46534121   7.054   4.479   3.282  0.1953  0.6363  1.2679
   29MOL   H46634122   7.328   4.825   3.135 -0.3249 -0.3623  0.7885
   29MOL   H46734123   7.189   4.841   3.039 -0.8009 -2.0416 -3.3232
   29MOL   H46834124   7.348   4.585   2.996 -0.5027  0.2842  1.4899
   29MOL   H46934125   7.439   4.728   2.958 -1.0757  1.3258 -1.2971
   29MOL   H47034126   7.241   4.779   2.795  1.5722 -0.5155 -1.7875
   29MOL   H47134127   7.149   4.654   2.886  0.2081 -2.4265  0.8781
   29MOL   H47234128   7.298   4.485   2.793  1.2790 -0.9254 -0.7423
   29MOL   H47334129   7.387   4.611   2.707  0.3210 -0.1006 -0.2223
   29MOL   H47434130   7.165   4.667   2.575  1.6288  0.2722 -0.3101
   29MOL   H47534131   7.252   4.519   2.539  1.8547  0.8453  0.2626
   29MOL   H47634132   7.100   4.381   2.661 -1.1636 -1.0601  0.7667
   29MOL   H47734133   7.004   4.517   2.710  0.8965 -0.2617  0.6888
   29MOL   H47834134   7.054   4.394   2.430  1.3464  2.5648 -1.6729
   29MOL   H47934135   7.006   4.548   2.439 -2.5330  2.0228  1.3088
   29MOL   H48034136   6.827   4.434   2.619 -3.3672  1.3732 -1.7738
   29MOL   H48134137   6.785   4.473   2.456 -0.6572  0.2582  0.2362
   29MOL   O48234138   6.799   4.239   2.354  0.3662 -0.3607 -0.6095
   29MOL   C48334139   6.763   4.101   2.314  0.6962 -0.5565  0.0848
   29MOL   C48434140   6.883   4.006   2.312  0.2318 -0.4082  0.4082
   29MOL   C48534141   6.863   3.876   2.229 -0.3357  0.6599  0.3522
   29MOL   C48634142   6.992   3.805   2.199  0.3598 -0.1585 -0.0977
   29MOL   C48734143   6.971   3.655   2.172  0.8860  0.4989 -0.2784
   29MOL   C48834144   7.090   3.591   2.104 -0.5023 -0.1406  0.0499
   29MOL   C48934145   7.069   3.460   2.036  0.4410 -0.2431  0.1998
   29MOL   C49034146   7.193   3.423   1.956  0.4375  0.0174 -0.2420
   29MOL   C49134147   7.201   3.279   1.912  0.1286 -0.1991 -0.1147
   29MOL   C49234148   7.325   3.251   1.830  0.2450  0.2391 -0.2521
   29MOL   O49334149   7.301   3.137   1.756  0.9276  0.1623 -0.5919
   29MOL   C49434150   7.387   3.037   1.756 -0.7978 -0.6189 -1.0133
   29MOL   O49534151   7.496   3.040   1.823  0.1196 -0.2971  0.5356
   29MOL   C49634152   7.350   2.924   1.659  0.0204  0.2423 -0.4741
   29MOL   C49734153   7.293   2.791   1.715 -0.0927  1.0029 -0.3207
   29MOL   C49834154   7.174   2.795   1.811  0.6882  0.0531  0.7262
   29MOL   C49934155   7.147   2.667   1.889 -0.0534  0.5444 -0.1308
   29MOL   C50034156   7.002   2.653   1.917  0.0317  0.3327 -0.2504
   29MOL   C50134157   6.950   2.533   1.994  0.1894  0.3868 -0.1208
   29MOL   C50234158   6.998   2.504   2.135  0.4599 -0.0262 -0.0298
   29MOL   C50334159   6.915   2.408   2.214  0.0451 -0.1396  0.3116
   29MOL   C50434160   6.965   2.269   2.197  0.6869  0.1579 -0.3764
   29MOL   O50534161   7.063   2.225   2.264 -0.0190 -0.0494  0.2523
   29MOL   H50634162   6.691   4.071   2.390 -0.5176 -0.9225 -1.1926
   29MOL   H50734163   6.700   4.115   2.226  0.2047  1.6675  0.7477
   29MOL   H50834164   6.968   4.061   2.272  0.5681 -0.3394  1.1941
   29MOL   H50934165   6.914   3.975   2.412 -0.9239 -1.0982  0.5594
   29MOL   H51034166   6.792   3.823   2.293  0.7856 -1.5113 -0.1362
   29MOL   H51134167   6.804   3.908   2.143  0.6973  3.2807  0.5792
   29MOL   H51234168   7.036   3.850   2.110 -0.4560 -0.8028 -0.8339
   29MOL   H51334169   7.070   3.817   2.274  1.5078 -1.2241 -1.1062
   29MOL   H51434170   6.889   3.651   2.100 -1.2830  0.2754  2.1040
   29MOL   H51534171   6.934   3.601   2.260 -1.0841 -1.5365 -2.2735
   29MOL   H51634172   7.171   3.564   2.171 -1.1603 -4.7596 -0.8842
   29MOL   H51734173   7.140   3.657   2.032  0.4802  0.1645  1.0076
   29MOL   H51834174   6.984   3.471   1.968  0.6887 -0.5357 -0.1591
   29MOL   H51934175   7.041   3.377   2.101 -0.3927 -0.7539 -0.7922
   29MOL   H52034176   7.279   3.451   2.017 -0.0298  2.6074 -0.6879
   29MOL   H52134177   7.202   3.485   1.866  0.5427 -0.3230 -0.4687
   29MOL   H52234178   7.195   3.208   1.994  2.5453 -1.8224 -1.2946
   29MOL   H52334179   7.109   3.258   1.857  0.5465  1.3625 -1.4460
   29MOL   H52434180   7.329   3.331   1.756  1.8544  1.1793  0.8349
   29MOL   H52534181   7.422   3.262   1.878 -0.4243  0.7780  1.0171
   29MOL   H52634182   7.438   2.886   1.607  1.3300  0.1759  1.7318
   29MOL   H52734183   7.295   2.960   1.572  1.6813  1.6006 -0.9874
   29MOL   H52834184   7.371   2.749   1.778 -1.3419  1.7052  1.7381
   29MOL   H52934185   7.287   2.731   1.625  0.7864 -2.5045  1.8847
   29MOL   H53034186   7.086   2.824   1.754  1.4173 -0.6185 -0.7925
   29MOL   H53134187   7.184   2.882   1.877 -1.4521  1.0596 -0.2121
   29MOL   H53234188   7.198   2.675   1.985 -1.3781 -1.3523  0.7742
   29MOL   H53334189   7.193   2.583   1.837 -0.6833 -0.2819  0.6273
   29MOL   H53434190   6.966   2.744   1.966 -0.0403 -0.4651  1.2292
   29MOL   H53534191   6.953   2.656   1.820  0.2709 -0.0048 -0.3796
   29MOL   H53634192   6.845   2.561   2.000  0.3077  1.2654 -1.8019
   29MOL   H53734193   6.960   2.439   1.941 -1.9725 -0.2913  0.6332
   29MOL   H53834194   7.004   2.607   2.169  2.7142 -0.1479  0.0345
   29MOL   H53934195   7.100   2.464   2.137  0.6374  0.4969  1.7352
   29MOL   H54034196   6.923   2.425   2.322  0.1503 -0.0376  0.2879
   29MOL   H54134197   6.811   2.422   2.184  0.4175  0.5746 -0.6484
   29MOL   O54234198   6.883   2.198   2.121 -0.3185  0.5068 -0.4228
   29MOL   C54334199   6.911   2.062   2.075  0.5662  0.5169  0.0318
   29MOL   C54434200   6.792   1.995   2.010 -0.6867  0.4557 -0.2004
   29MOL   C54534201   6.692   1.949   2.119 -0.2344  0.2276  0.0417
   29MOL   C54634202   6.569   1.876   2.071  0.2757 -0.0890  0.8472
   29MOL   C54734203   6.472   1.842   2.191  0.4805 -0.1059  0.6353
   29MOL   C54834204   6.357   1.752   2.145  0.5782 -0.4422 -0.5460
   29MOL   C54934205   6.293   1.670   2.254 -0.0120 -0.0356 -0.5986
   29MOL   C55034206   6.149   1.638   2.235 -0.1357  0.2176  0.1728
   29MOL   C55134207   6.063   1.576   2.345 -0.0909  0.2887 -0.0830
   29MOL   C55234208   5.928   1.534   2.290  0.2719  0.0034  0.4978
   29MOL   O55334209   5.848   1.650   2.280  0.4400  0.1677 -0.8281
   29MOL   C55434210   5.734   1.636   2.200  0.0105  0.5724  0.9052
   29MOL   O55534211   5.694   1.529   2.148 -0.1562  0.4104 -0.2907
   29MOL   C55634212   5.667   1.773   2.190 -0.1572  1.2990  0.0788
   29MOL   C55734213   5.533   1.769   2.130  0.0723  0.0593 -0.2259
   29MOL   C55834214   5.454   1.898   2.169  0.1194 -0.2462 -0.3798
   29MOL   C55934215   5.504   2.008   2.085 -0.6912  0.0584  0.0213
   29MOL   C56034216   5.467   2.146   2.135  0.3532  0.3399 -0.2365
   29MOL   C56134217   5.552   2.261   2.073 -0.7354 -0.4250  0.3076
   29MOL   C56234218   5.689   2.302   2.128  0.1807  0.6404 -0.1057
   29MOL   C56334219   5.764   2.412   2.057 -0.1803 -0.1581 -0.3153
   29MOL   C56434220   5.828   2.381   1.922  0.2420  0.4832 -0.4017
   29MOL   O56534221   5.794   2.276   1.857 -0.5000 -0.6486 -0.3926
   29MOL   H56634222   6.998   2.069   2.009  1.3662  1.8403  1.1824
   29MOL   H56734223   6.936   1.999   2.160 -1.9507 -2.0444 -1.0762
   29MOL   H56834224   6.735   2.046   1.933  0.2262  0.6519 -0.7576
   29MOL   H56934225   6.837   1.907   1.964  0.9651 -0.8466  3.6443
   29MOL   H57034226   6.742   1.874   2.181  0.3890  0.3216 -0.3347
   29MOL   H57134227   6.675   2.029   2.190  0.4661  1.3016 -0.9844
   29MOL   H57234228   6.507   1.931   2.001  1.1345 -0.2044 -0.0179
   29MOL   H57334229   6.594   1.786   2.015  0.3462 -0.2355  1.1121
   29MOL   H57434230   6.430   1.933   2.233 -1.2305 -0.0304 -1.1810
   29MOL   H57534231   6.524   1.802   2.278 -0.0399 -2.6433 -0.1565
   29MOL   H57634232   6.404   1.688   2.070 -0.0047  0.2274 -1.4918
   29MOL   H57734233   6.275   1.814   2.109 -0.4417 -1.9134 -0.8031
   29MOL   H57834234   6.290   1.733   2.343  2.6484  0.1962 -0.6266
   29MOL   H57934235   6.349   1.579   2.276  1.9111  1.5432  1.2966
   29MOL   H58034236   6.144   1.580   2.143 -0.7231  1.0821 -0.3463
   29MOL   H58134237   6.101   1.735   2.221 -0.8365 -0.2020 -0.3658
   29MOL   H58234238   6.120   1.497   2.393  0.3631 -0.3776 -1.6794
   29MOL   H58334239   6.042   1.655   2.417 -1.2790  2.4704 -2.7129
   29MOL   H58434240   5.933   1.484   2.193  1.1696 -1.3071  1.2064
   29MOL   H58534241   5.892   1.467   2.368 -2.6567  1.0108  0.0904
   29MOL   H58634242   5.737   1.838   2.138  0.2529  0.6237 -0.2338
   29MOL   H58734243   5.674   1.808   2.292 -0.1477  1.8398 -0.1055
   29MOL   H58834244   5.481   1.678   2.158  3.4415 -2.3355 -1.5127
   29MOL   H58934245   5.534   1.774   2.022 -2.9246 -0.2046 -0.2985
   29MOL   H59034246   5.464   1.914   2.277  0.6048  1.1380 -0.6218
   29MOL   H59134247   5.348   1.884   2.149  0.0988 -1.1679  0.3214
   29MOL   H59234248   5.461   1.997   1.985 -2.8973 -1.6444  1.1055
   29MOL   H59334249   5.613   2.009   2.080 -0.5501 -2.0965  2.1358
   29MOL   H59434250   5.358   2.156   2.127  0.1173 -0.7189  1.5295
   29MOL   H59534251   5.486   2.146   2.242  0.9950  1.4551 -0.3338
   29MOL   H59634252   5.562   2.234   1.968  1.6205  0.8320  0.1736
   29MOL   H59734253   5.493   2.353   2.080  1.5085  1.0322  0.7067
   29MOL   H59834254   5.750   2.211   2.130  1.4238  1.4826  1.1731
   29MOL   H59934255   5.670   2.324   2.233 -0.6627  0.7844 -0.2878
   29MOL   H60034256   5.700   2.496   2.033 -2.2038 -2.0982 -1.9482
   29MOL   H60134257   5.843   2.453   2.120  0.1023 -0.5285 -0.4262
   29MOL   O60234258   5.930   2.463   1.898  0.3342 -0.8062  0.1464
   29MOL   C60334259   6.026   2.432   1.796  0.4275 -0.1671  0.3418
   29MOL   C60434260   6.149   2.524   1.808  0.3117 -0.3575 -0.3985
   29MOL   C60534261   6.230   2.532   1.681 -0.4549  0.4254 -0.1504
   29MOL   C60634262   6.348   2.632   1.667  0.1011  0.1802 -0.1142
   29MOL   C60734263   6.400   2.641   1.518  0.1438  0.4403 -0.1654
   29MOL   C60834264   6.530   2.732   1.517  0.1953 -0.5197  0.4554
   29MOL   C60934265   6.519   2.881   1.537  0.1241 -0.5245  0.8575
   29MOL   C61034266   6.634   2.940   1.615  0.2431  0.1656  0.1972
   29MOL   C61134267   6.762   2.943   1.537 -0.2881  0.3869 -0.8400
   29MOL   C61234268   6.885   3.001   1.619  0.0833 -0.4969  0.9516
   29MOL   O61334269   6.856   3.141   1.643 -0.0445  0.3302  0.1190
   29MOL   C61434270   6.924   3.234   1.588 -0.6056  0.2475 -0.0795
   29MOL   O61534271   6.988   3.217   1.485  0.1055  0.7598  0.2523
   29MOL   C61634272   6.912   3.376   1.640 -0.2318  0.3475  0.2964
   29MOL   C61734273   6.780   3.455   1.628  0.4756 -0.3345 -0.5513
   29MOL   C61834274   6.773   3.580   1.724  0.3744  0.1210 -0.2664
   29MOL   C61934275   6.644   3.664   1.694 -0.3730  0.3721 -0.1478
   29MOL   C62034276   6.524   3.617   1.778 -0.2790  0.3837 -0.1532
   29MOL   C62134277   6.512   3.702   1.906  0.3895 -0.1862  0.9500
   29MOL   C62234278   6.404   3.652   2.005  0.4279  0.3434 -0.8808
   29MOL   C62334279   6.406   3.724   2.138  0.4071 -1.0618  0.8586
   29MOL   C62434280   6.346   3.862   2.136 -0.4439  0.8192 -0.1116
   29MOL   O62534281   6.413   3.961   2.135  0.4218 -0.0240  0.3815
   29MOL   H62634282   6.053   2.327   1.811  0.9497 -0.2259 -0.8923
   29MOL   H62734283   5.983   2.444   1.696 -1.6969  0.3438  1.2758
   29MOL   H62834284   6.110   2.623   1.835 -0.9447 -0.4624 -1.7571
   29MOL   H62934285   6.200   2.497   1.900 -0.9133  0.9539  0.7024
   29MOL   H63034286   6.261   2.431   1.655  0.1556  1.1480 -2.2799
   29MOL   H63134287   6.157   2.571   1.610 -0.1685  0.3326 -0.4913
   29MOL   H63234288   6.329   2.733   1.702 -0.8757 -0.1590  0.3326
   29MOL   H63334289   6.429   2.596   1.729 -0.3984  1.0209  1.0395
   29MOL   H63434290   6.321   2.691   1.462 -1.3437  0.3195  1.7754
   29MOL   H63534291   6.416   2.546   1.467 -0.7753  1.4864 -2.4394
   29MOL   H63634292   6.570   2.725   1.416 -0.3968 -1.9488  0.3176
   29MOL   H63734293   6.608   2.688   1.579  0.8226  0.1073  0.1207
   29MOL   H63834294   6.436   2.917   1.598 -0.7269 -1.5408  0.3146
   29MOL   H63934295   6.494   2.936   1.446 -0.2842 -0.1967  1.1656
   29MOL   H64034296   6.642   2.888   1.710 -0.8075 -1.6781 -0.7078
   29MOL   H64134297   6.620   3.041   1.655 -1.2979  0.0100  0.0545
   29MOL   H64234298   6.783   2.844   1.497  0.3696 -0.6228  1.9092
   29MOL   H64334299   6.754   3.013   1.454 -2.0887  1.1321 -0.0745
   29MOL   H64434300   6.894   2.948   1.714 -0.8503 -1.5011  0.4964
   29MOL   H64534301   6.979   2.986   1.565  0.0867  1.1273  0.4970
   29MOL   H64634302   6.987   3.439   1.590 -0.8315  1.1424  0.3824
   29MOL   H64734303   6.934   3.363   1.746  2.9801 -1.3925 -0.5041
   29MOL   H64834304   6.697   3.386   1.646  0.0594  0.6423  1.3527
   29MOL   H64934305   6.772   3.489   1.524  0.0576  1.1187 -0.0564
   29MOL   H65034306   6.862   3.640   1.710  0.0911  1.0654  1.7785
   29MOL   H65134307   6.769   3.544   1.827 -0.9184  1.2809  0.0936
   29MOL   H65234308   6.613   3.666   1.590  0.3690 -0.2399 -0.3861
   29MOL   H65334309   6.660   3.768   1.721 -0.6036  0.3210  0.1884
   29MOL   H65434310   6.428   3.631   1.727  0.0780 -0.8374 -1.1683
   29MOL   H65534311   6.533   3.514   1.811 -1.1283  0.8417  1.6138
   29MOL   H65634312   6.604   3.698   1.964  0.8875  1.9947  0.3626
   29MOL   H65734313   6.502   3.806   1.878  1.4690 -0.6876 -1.3996
   29MOL   H65834314   6.412   3.544   2.012  1.3069  0.5900  3.0156
   29MOL   H65934315   6.308   3.679   1.960  0.3714 -0.3275 -1.1648
   29MOL   H66034316   6.352   3.658   2.206 -0.2397 -1.5537 -0.1331
   29MOL   H66134317   6.498   3.733   2.197  0.2047 -0.2282  1.0530
   29MOL   O66234318   6.209   3.862   2.135  0.7511 -0.4686  0.4488
   29MOL   C66334319   6.138   3.982   2.125 -0.1880  0.3934 -0.0196
   29MOL   C66434320   6.122   4.061   2.258  0.2043 -0.3542 -0.9068
   29MOL   C66534321   6.029   3.978   2.353 -0.1458 -0.8062  0.8380
   29MOL   C66634322   6.000   4.031   2.484  0.1215 -0.0155  0.2401
   29MOL   C66734323   5.910   4.154   2.475 -0.3678 -0.0179  0.2946
   29MOL   C66834324   5.819   4.164   2.594  0.1228  0.0980  0.4049
   29MOL   C66934325   5.738   4.296   2.602  0.2534  0.1196 -0.6120
   29MOL   C67034326   5.614   4.269   2.680  0.4975 -0.4762 -0.2273
   29MOL   C67134327   5.506   4.374   2.646 -0.7299 -0.2339  0.3227
   29MOL   C67234328   5.371   4.348   2.715 -0.0383 -0.0134  0.0324
   29MOL   O67334329   5.387   4.352   2.857 -0.1888  0.2320 -0.0912
   29MOL   C67434330   5.311   4.281   2.934 -0.0232  0.3100 -0.6296
   29MOL   O67534331   5.220   4.208   2.893  0.2456  0.0242  0.0278
   29MOL   C67634332   5.337   4.300   3.086  0.2429 -0.2153 -0.1016
   29MOL   C67734333   5.464   4.224   3.130  0.0859 -0.4415  0.8343
   29MOL   C67834334   5.452   4.070   3.137  0.1119  0.6444  0.0949
   29MOL   C67934335   5.570   4.001   3.201 -0.1304 -0.5403 -0.1254
   29MOL   C68034336   5.703   4.007   3.110 -0.5536  0.5590 -0.4688
   29MOL   C68134337   5.790   3.886   3.134  0.2458 -0.1720 -0.2704
   29MOL   C68234338   5.924   3.898   3.068  0.2266 -0.2216 -0.5499
   29MOL   C68334339   5.936   3.912   2.916 -0.8475  0.4290  0.8996
   29MOL   C68434340   5.892   3.789   2.836  0.0142  0.0768 -0.5290
   29MOL   O68534341   5.955   3.682   2.839  0.0938  0.5401  0.1177
   29MOL   H68634342   6.189   4.043   2.051  2.6165 -0.3670  1.2332
   29MOL   H68734343   6.032   3.982   2.096 -0.2611 -0.5810  0.2224
   29MOL   H68834344   6.217   4.075   2.309  0.1398 -0.6926 -0.6886
   29MOL   H68934345   6.079   4.160   2.243 -0.3392 -0.5295 -0.5438
   29MOL   H69034346   5.933   3.956   2.305 -0.3664 -1.0849  1.4055
   29MOL   H69134347   6.066   3.877   2.371 -0.3888 -1.3736 -1.5783
   29MOL   H69234348   5.949   3.961   2.550 -0.6990  0.4581  0.1219
   29MOL   H69334349   6.089   4.059   2.540  0.1059 -0.9146  0.7161
   29MOL   H69434350   5.847   4.164   2.387 -1.9507 -2.4997  1.0917
   29MOL   H69534351   5.981   4.236   2.479 -2.8657  2.3153 -1.0981
   29MOL   H69634352   5.884   4.151   2.680  1.5227  4.1272  0.0429
   29MOL   H69734353   5.760   4.073   2.605  1.0621 -0.5505  0.1412
   29MOL   H69834354   5.710   4.338   2.505 -1.6696  0.4490  0.0599
   29MOL   H69934355   5.810   4.368   2.640  1.3074  0.0375 -2.4042
   29MOL   H70034356   5.637   4.263   2.786  0.4037  0.6880 -0.1314
   29MOL   H70134357   5.574   4.171   2.655  0.0852 -0.0425 -1.3104
   29MOL   H70234358   5.534   4.475   2.677  2.0085 -0.6562 -0.6757
   29MOL   H70334359   5.484   4.364   2.540  0.6508  0.2688 -0.0226
   29MOL   H70434360   5.290   4.415   2.686 -2.1048 -3.0671 -1.5682
   29MOL   H70534361   5.340   4.250   2.678 -1.1077  0.6133 -0.7482
   29MOL   H70634362   5.253   4.257   3.139 -0.6689  1.1201 -0.4433
   29MOL   H70734363   5.340   4.409   3.092  2.3190 -0.2069 -0.6337
   29MOL   H70834364   5.484   4.258   3.232  0.0413 -3.4441  1.9075
   29MOL   H70934365   5.549   4.265   3.075  0.0011 -0.6756  0.5251
   29MOL   H71034366   5.428   4.027   3.039  1.4304  0.4386 -0.1493
   29MOL   H71134367   5.362   4.055   3.197  0.8183 -1.2956  0.6964
   29MOL   H71234368   5.538   3.899   3.218  0.5654 -0.7480 -0.0414
   29MOL   H71334369   5.590   4.059   3.292  2.4836 -0.6376 -0.5771
   29MOL   H71434370   5.691   4.027   3.004  1.2267  0.9930 -0.6059
   29MOL   H71534371   5.751   4.098   3.147 -2.3626  1.1031  0.6570
   29MOL   H71634372   5.796   3.886   3.242  0.4864  2.3206 -0.2715
   29MOL   H71734373   5.735   3.798   3.099 -1.2022 -0.2529  2.0866
   29MOL   H71834374   5.986   3.811   3.090 -0.7825 -0.5250  1.2840
   29MOL   H71934375   5.964   3.989   3.112 -0.7496  0.8190 -1.7610
   29MOL   H72034376   5.878   3.994   2.875 -0.1239  0.3498 -0.2938
   29MOL   H72134377   6.043   3.917   2.895 -1.0386  0.3153 -0.1405
   29MOL   O72234378   5.779   3.810   2.755  0.2497  0.6194 -0.0216
   29MOL   C72334379   5.706   3.709   2.689  0.5639 -0.2174 -0.3198
   29MOL   C72434380   5.562   3.713   2.744 -0.5272  0.4445 -0.3910
   29MOL   C72534381   5.472   3.825   2.684 -0.2068 -0.9021  0.6765
   29MOL   C72634382   5.327   3.824   2.743  1.3603 -0.0438 -0.6267
   29MOL   C72734383   5.232   3.927   2.669 -0.2347 -0.0283 -0.5094
   29MOL   C72834384   5.131   3.845   2.584 -0.5824 -0.0887 -0.3026
   29MOL   C72934385   5.028   3.935   2.511  0.4271  0.5637 -0.3760
   29MOL   C73034386   4.920   3.846   2.455  0.7090 -0.1306 -0.0929
   29MOL   C73134387   4.961   3.797   2.317 -0.0144  0.2828  0.3365
   29MOL   C73234388   4.858   3.731   2.236  0.1292 -0.3201 -0.0004
   29MOL   O73334389   4.820   3.617   2.307  0.3792  0.4689 -0.2628
   29MOL   C73434390   4.701   3.559   2.290 -0.3361 -0.0109 -0.5828
   29MOL   O73534391   4.600   3.619   2.247 -0.2350 -0.0097 -0.0265
   29MOL   C73634392   4.686   3.417   2.359  0.2075 -0.2979 -0.0247
   29MOL   C73734393   4.703   3.433   2.512  0.1428 -0.1738  0.3484
   29MOL   C73834394   4.651   3.320   2.592 -0.4317  0.0218 -0.3179
   29MOL   C73934395   4.720   3.187   2.558 -0.1782 -0.3936  0.4150
   29MOL   C74034396   4.691   3.068   2.646  0.3976 -0.0517 -0.2722
   29MOL   C74134397   4.745   2.933   2.592  0.1468  0.3293 -0.4457
   29MOL   C74234398   4.698   2.811   2.675  0.7310 -0.6433  0.1458
   29MOL   C74334399   4.737   2.681   2.599  0.3912 -0.2071  0.5288
   29MOL   C74434400   4.682   2.546   2.654  0.3575 -0.3485  0.1354
   29MOL   O74534401   4.752   2.446   2.657 -0.2090 -0.0338  0.5275
   29MOL   H74634402   5.718   3.718   2.581  0.9668 -0.4743 -0.2996
   29MOL   H74734403   5.734   3.608   2.718 -2.4114 -1.4364 -1.4995
   29MOL   H74834404   5.521   3.614   2.724  1.8145 -1.4184  3.5787
   29MOL   H74934405   5.551   3.700   2.852 -2.7286 -0.3366 -0.6851
   29MOL   H75034406   5.528   3.912   2.718  1.0741 -0.2986 -2.7547
   29MOL   H75134407   5.458   3.815   2.576 -1.1183  3.6141  0.2600
   29MOL   H75234408   5.293   3.721   2.743 -0.8598  0.6627  0.4946
   29MOL   H75334409   5.326   3.847   2.850 -0.6896  1.3506 -0.9223
   29MOL   H75434410   5.284   3.995   2.601  0.8896 -0.3859 -0.0012
   29MOL   H75534411   5.181   3.985   2.746  2.0147  0.6810  0.4799
   29MOL   H75634412   5.083   3.770   2.647  1.6247  0.4686  2.1528
   29MOL   H75734413   5.188   3.791   2.509 -0.0583 -1.6746  1.2031
   29MOL   H75834414   5.066   3.989   2.425 -2.0455  1.6091 -0.8512
   29MOL   H75934415   4.987   4.002   2.587  2.3550  0.2945  0.9333
   29MOL   H76034416   4.822   3.893   2.441 -0.0596 -2.0748 -1.5399
   29MOL   H76134417   4.908   3.752   2.509  0.0394 -2.3305 -3.8235
   29MOL   H76234418   5.008   3.879   2.262 -0.7587 -0.9340 -2.1848
   29MOL   H76334419   5.037   3.720   2.328  1.5149  1.0571 -3.7801
   29MOL   H76434420   4.766   3.785   2.211  0.1058 -0.3963 -0.0758
   29MOL   H76534421   4.886   3.696   2.137  0.0269  1.4157 -0.6720
   29MOL   H76634422   4.759   3.355   2.307  0.5823  1.0017 -1.0852
   29MOL   H76734423   4.592   3.371   2.330  0.0426 -0.0661  0.1418
   29MOL   H76834424   4.645   3.521   2.540  1.9667  0.7589  1.3179
   29MOL   H76934425   4.808   3.458   2.530  0.3780 -0.8637 -0.0603
   29MOL   H77034426   4.543   3.312   2.579 -0.4993  2.8391 -1.7499
   29MOL   H77134427   4.658   3.337   2.699 -2.1421  0.3883 -0.2440
   29MOL   H77234428   4.826   3.206   2.565 -0.0222 -0.5006 -1.3322
   29MOL   H77334429   4.718   3.159   2.453  0.6986 -1.5857  0.7092
   29MOL   H77434430   4.726   3.092   2.747 -0.6310  0.7538 -0.0994
   29MOL   H77534431   4.584   3.062   2.665  0.5819 -1.5283  0.3808
   29MOL   H77634432   4.719   2.927   2.486  0.6881  2.4656 -0.7281
   29MOL   H77734433   4.853   2.928   2.595  0.1400  0.6612  3.0800
   29MOL   H77834434   4.590   2.797   2.681  0.7158 -1.0347 -0.8764
   29MOL   H77934435   4.750   2.820   2.770 -0.4138  0.0932  0.7241
   29MOL   H78034436   4.689   2.681   2.501  0.8523  1.9639  0.2808
   29MOL   H78134437   4.845   2.674   2.585  0.1986 -0.5036 -0.8475
   29MOL   O78234438   4.563   2.561   2.699 -0.2581  0.1179 -0.7497
   29MOL   C78334439   4.503   2.442   2.761 -0.4052  0.1707  0.3442
   29MOL   C78434440   4.379   2.389   2.688 -0.5661 -0.2892  0.7298
   29MOL   C78534441   4.251   2.469   2.706  0.3449 -0.1274 -0.0297
   29MOL   C78634442   4.125   2.402   2.656  0.6043 -0.3433 -0.2477
   29MOL   C78734443   4.056   2.322   2.767  0.4160  0.4939  0.0590
   29MOL   C78834444   3.925   2.261   2.718  0.3933 -0.3527 -0.4672
   29MOL   C78934445   3.812   2.361   2.688 -0.3755 -0.1632 -0.1292
   29MOL   C79034446   3.688   2.296   2.626 -0.4165  0.0577 -0.0414
   29MOL   C79134447   3.568   2.388   2.605  0.9148  0.3021  0.6144
   29MOL   C79234448   3.432   2.319   2.593  0.4822  0.3541  0.1176
   29MOL   O79334449   3.322   2.405   2.593  0.0190 -0.5174  0.1967
   29MOL   C79434450   3.202   2.345   2.606  0.6184 -0.3022 -0.0424
   29MOL   O79534451   3.181   2.222   2.602  0.0884 -0.0119  0.4334
   29MOL   C79634452   3.092   2.443   2.642  0.3302 -0.2127  0.2242
   29MOL   C79734453   3.070   2.538   2.525 -0.3980 -0.0124 -0.3444
   29MOL   C79834454   3.161   2.667   2.517  0.2987  0.2644  0.1140
   29MOL   C79934455   3.109   2.775   2.422 -0.6854 -0.3356 -0.2766
   29MOL   C80034456   3.083   2.729   2.282 -0.1406 -0.8694 -0.3775
   29MOL   C80134457   3.041   2.835   2.189  1.0002  0.0624  0.3065
   29MOL   C80234458   3.017   2.785   2.043 -0.3588 -0.8508  0.0736
   29MOL   C80334459   2.996   2.893   1.943 -0.3085  0.2341  0.5370
   29MOL   C80434460   2.942   2.846   1.807  0.0374  0.0384  0.1488
   29MOL   O80534461   2.953   2.728   1.764  0.2345  0.1813  0.2360
   29MOL   H80634462   4.569   2.355   2.756 -1.0037 -0.4786  2.7058
   29MOL   H80734463   4.476   2.463   2.865 -1.0447 -0.3198  0.2831
   29MOL   H80834464   4.393   2.362   2.583 -1.2596 -4.4899  1.6301
   29MOL   H80934465   4.356   2.294   2.736  1.2556 -3.7738 -4.7597
   29MOL   H81034466   4.238   2.496   2.811  2.9144  0.9401  0.0584
   29MOL   H81134467   4.252   2.566   2.657  0.1008  0.2732  0.7417
   29MOL   H81234468   4.058   2.475   2.612 -0.6689 -0.4852  1.4363
   29MOL   H81334469   4.147   2.338   2.570  0.9644  0.5363 -0.8211
   29MOL   H81434470   4.021   2.403   2.832  1.5526 -0.3614  1.7656
   29MOL   H81534471   4.115   2.253   2.826 -0.8443 -0.5866  0.0749
   29MOL   H81634472   3.884   2.198   2.797  0.8344  1.6323  1.4057
   29MOL   H81734473   3.945   2.195   2.634 -1.7036  0.0263 -1.2967
   29MOL   H81834474   3.845   2.447   2.630  0.5667 -0.7874 -0.5180
   29MOL   H81934475   3.782   2.403   2.784  1.1289 -1.2602  0.8524
   29MOL   H82034476   3.644   2.220   2.691 -1.7588  0.0101 -0.9739
   29MOL   H82134477   3.719   2.241   2.537  1.6661 -0.8071  1.1916
   29MOL   H82234478   3.568   2.476   2.670  2.4476  2.5652 -2.2934
   29MOL   H82334479   3.594   2.440   2.513  1.6607 -3.4149 -1.3687
   29MOL   H82434480   3.438   2.244   2.516 -2.4099  1.2283 -1.0147
   29MOL   H82534481   3.414   2.250   2.676 -0.3014  0.3883 -0.0289
   29MOL   H82634482   3.104   2.505   2.731 -1.1042 -0.0125  0.2905
   29MOL   H82734483   3.002   2.383   2.657  0.3119  0.0495  1.2186
   29MOL   H82834484   2.974   2.589   2.533  0.1058  1.2258 -1.9505
   29MOL   H82934485   3.063   2.485   2.430 -0.8005  1.5271 -1.1812
   29MOL   H83034486   3.254   2.629   2.475 -0.2911  0.0619 -1.0070
   29MOL   H83134487   3.179   2.707   2.617  0.9746 -0.0868  0.1346
   29MOL   H83234488   3.188   2.851   2.418  0.4902 -1.1466  4.2191
   29MOL   H83334489   3.021   2.824   2.463 -1.3441 -0.8856 -1.0317
   29MOL   H83434490   3.166   2.670   2.244  1.5668  0.9721  0.3870
   29MOL   H83534491   3.008   2.650   2.282 -1.2413  0.1587 -0.4638
   29MOL   H83634492   2.954   2.891   2.222  1.0889 -0.2975  1.1690
   29MOL   H83734493   3.124   2.905   2.182 -0.8668  2.2431 -0.7766
   29MOL   H83834494   2.923   2.729   2.053 -0.7265 -0.3159 -0.3618
   29MOL   H83934495   3.099   2.721   2.010 -0.2255 -1.1942  1.0523
   29MOL   H84034496   2.917   2.953   1.988 -1.0322 -0.6996  0.5278
   29MOL   H84134497   3.077   2.965   1.932 -2.0984  2.1336 -0.4573
   29MOL   O84234498   2.882   2.942   1.747 -0.3200 -0.0795 -0.0998
   29MOL   C84334499   2.826   2.918   1.614  0.5747  0.0936 -0.3209
   29MOL   C84434500   2.768   3.047   1.566 -0.4276 -0.3742  0.3696
   29MOL   C84534501   2.749   3.040   1.415 -0.4223 -0.5201 -0.1335
   29MOL   C84634502   2.674   3.151   1.353 -0.0708 -0.6612 -0.3632
   29MOL   C84734503   2.671   3.168   1.198  0.2231 -0.5166 -0.4049
   29MOL   C84834504   2.585   3.287   1.149  0.1796 -0.2357 -0.7249
   29MOL   C84934505   2.595   3.322   1.003  0.4921  0.1350 -0.5908
   29MOL   C85034506   2.501   3.427   0.958  0.4204  0.0044 -0.0271
   29MOL   C85134507   2.358   3.386   0.949  0.4203  0.1027  0.8090
   29MOL   C85234508   2.269   3.511   0.928  0.3330 -0.8680  0.2224
   29MOL   O85334509   2.259   3.581   1.047  0.4898  0.6278 -0.3693
   29MOL   C85434510   2.196   3.698   1.053  0.3066  0.0304  0.1462
   29MOL   O85534511   2.126   3.751   0.967  0.5884 -0.1827  0.6020
   29MOL   C85634512   2.209   3.772   1.185  0.0395  0.5221  0.0996
   29MOL   C85734513   2.355   3.830   1.208  0.2701  0.1488  0.0273
   29MOL   C85834514   2.371   3.937   1.322 -0.1837 -0.7592  0.2821
   29MOL   C85934515   2.508   4.018   1.316 -0.4182  0.8547  0.3245
   29MOL   C86034516   2.544   4.123   1.415  0.2078 -0.1718 -0.1752
   29MOL   C86134517   2.458   4.254   1.397 -0.3368 -1.0023 -0.1388
   29MOL   C86234518   2.493   4.372   1.493  0.2454  0.0128 -0.4464
   29MOL   C86334519   2.450   4.342   1.639 -0.2549  0.3859  0.5388
   29MOL   C86434520   2.306   4.321   1.665 -0.2518  0.3236  0.0943
   29MOL   O86534521   2.215   4.368   1.597 -0.0035 -0.0895 -0.0410
   29MOL   H86634522   2.903   2.898   1.541 -0.6728  2.8528 -2.4832
   29MOL   H86734523   2.760   2.832   1.615 -0.2820  0.7265 -1.4903
   29MOL   H86834524   2.670   3.053   1.614 -0.1365 -0.3985  0.9728
   29MOL   H86934525   2.832   3.127   1.603 -0.6215  0.4402 -1.0399
   29MOL   H87034526   2.850   3.024   1.376  0.5140 -1.8459  2.7229
   29MOL   H87134527   2.695   2.947   1.399  0.2246 -0.9270  0.0605
   29MOL   H87234528   2.567   3.143   1.374 -0.4652  0.9064 -1.6710
   29MOL   H87334529   2.716   3.246   1.386 -1.9899  1.0994 -2.7918
   29MOL   H87434530   2.623   3.078   1.163  0.7157 -0.6886 -0.6396
   29MOL   H87534531   2.773   3.174   1.159  0.7825 -1.5713  0.8473
   29MOL   H87634532   2.622   3.378   1.195  0.6088  0.0398 -1.5997
   29MOL   H87734533   2.480   3.267   1.173  0.5904  0.4389  1.7137
   29MOL   H87834534   2.598   3.239   0.933 -0.7340  0.0506 -0.5546
   29MOL   H87934535   2.696   3.363   0.997  1.0334 -1.0496  0.2117
   29MOL   H88034536   2.534   3.464   0.861  1.0123  2.0328  0.9135
   29MOL   H88134537   2.508   3.518   1.018  2.4754  0.7803 -1.4134
   29MOL   H88234538   2.365   3.321   0.862  0.8834 -0.3217  1.1594
   29MOL   H88334539   2.322   3.321   1.029 -1.4927  2.7153  2.1407
   29MOL   H88434540   2.297   3.576   0.845  0.1918  0.7343  1.4128
   29MOL   H88534541   2.171   3.474   0.899 -0.1102  1.4807 -1.5031
   29MOL   H88634542   2.172   3.715   1.270 -1.8956  1.8235  0.1652
   29MOL   H88734543   2.139   3.855   1.183 -0.8499 -0.2447 -1.8836
   29MOL   H88834544   2.375   3.879   1.113 -0.2793 -2.3964 -1.4425
   29MOL   H88934545   2.421   3.743   1.210  1.4016  0.9557 -1.3068
   29MOL   H89034546   2.359   3.889   1.420 -0.5597 -1.2406  0.0032
   29MOL   H89134547   2.291   4.009   1.305  0.7695  0.5023  1.0478
   29MOL   H89234548   2.510   4.079   1.226 -2.7269 -1.6860 -1.5630
   29MOL   H89334549   2.584   3.941   1.306 -1.5209 -0.0124 -1.9667
   29MOL   H89434550   2.538   4.074   1.512  1.7964  1.8428  0.9821
   29MOL   H89534551   2.647   4.156   1.411  0.3902 -1.0256 -3.9133
   29MOL   H89634552   2.475   4.295   1.298  2.1408 -1.7643 -0.0690
   29MOL   H89734553   2.353   4.228   1.402 -0.5728 -0.0196  0.1600
   29MOL   H89834554   2.445   4.466   1.465 -1.1711 -0.6506 -0.2779
   29MOL   H89934555   2.602   4.382   1.491  0.0495  2.1938 -0.9902
   29MOL   H90034556   2.502   4.252   1.671  0.0851  0.7082  0.8952
   29MOL   H90134557   2.490   4.425   1.698  1.8222  0.5043 -1.0118
   29MOL   O90234558   2.282   4.255   1.776  0.3807 -0.1434  0.3455
   29MOL   C90334559   2.149   4.222   1.812 -0.2119 -0.1260 -0.2282
   29MOL   C90434560   2.148   4.161   1.948  0.4806  0.3009 -0.7049
   29MOL   C90534561   2.203   4.015   1.941  0.7426  0.4288 -0.1497
   29MOL   C90634562   2.223   3.953   2.078  0.1467  0.0162 -0.7765
   29MOL   C90734563   2.249   3.803   2.070 -0.0538  0.0417 -0.0458
   29MOL   C90834564   2.219   3.731   2.203  0.1724  0.7161  0.4855
   29MOL   C90934565   2.311   3.614   2.228 -0.0552  0.1556  0.4195
   29MOL   C91034566   2.275   3.536   2.356  0.5347 -0.3484  0.4363
   29MOL   C91134567   2.378   3.431   2.398 -0.0346 -0.1336  0.1483
   29MOL   C91234568   2.354   3.377   2.539 -0.0540 -0.0777 -0.0847
   29MOL   O91334569   2.220   3.331   2.563  0.6350 -0.3322  0.1202
   29MOL   C91434570   2.180   3.216   2.514  0.2687  0.0082 -0.2135
   29MOL   O91534571   2.241   3.151   2.434  0.0163  0.3183  0.4142
   29MOL   C91634572   2.047   3.169   2.578  0.4079 -0.7917  0.3642
   29MOL   C91734573   1.931   3.174   2.479 -0.6727  0.0951  0.0651
   29MOL   C91834574   1.918   3.311   2.401 -0.0760 -0.1440 -0.1586
   29MOL   C91934575   1.771   3.360   2.386 -0.5459 -0.0613  0.3801
   29MOL   C92034576   1.736   3.471   2.291  0.3866  0.1315  0.5987
   29MOL   C92134577   1.799   3.604   2.320  0.5517 -0.4923  0.0294
   29MOL   C92234578   1.769   3.704   2.205  0.3859 -0.4444 -0.2176
   29MOL   C92334579   1.824   3.848   2.216  0.5475 -0.3836 -0.2077
   29MOL   C92434580   1.821   3.922   2.084  0.1008 -0.0977 -0.4791
   29MOL   O92534581   1.871   3.874   1.985  0.2331  0.0159  0.6922
   29MOL   H92634582   2.081   4.305   1.796 -0.6502 -0.7126 -1.4874
   29MOL   H92734583   2.123   4.143   1.741  1.5103 -1.4176  0.5438
   29MOL   H92834584   2.212   4.219   2.016  0.3671  2.2423 -2.1967
   29MOL   H92934585   2.043   4.164   1.978 -0.0316 -1.9494 -2.2263
   29MOL   H93034586   2.131   3.965   1.876  1.6485 -1.2966  0.1536
   29MOL   H93134587   2.302   4.012   1.895 -0.0360 -0.6119 -1.8234
   29MOL   H93234588   2.290   4.017   2.136 -0.8901 -0.0701  0.5456
   29MOL   H93334589   2.130   3.958   2.134  1.4541  1.2685  1.3759
   29MOL   H93434590   2.352   3.782   2.040  0.1664  0.8593  0.1417
   29MOL   H93534591   2.201   3.759   1.982  0.8008 -0.9311 -0.0385
   29MOL   H93634592   2.114   3.700   2.196  0.3399  0.3802 -0.6405
   29MOL   H93734593   2.235   3.794   2.291  0.2035  0.0014  1.0021
   29MOL   H93834594   2.413   3.650   2.233  1.3882 -3.6915  0.4739
   29MOL   H93934595   2.305   3.545   2.144 -1.0803 -3.0943  3.0457
   29MOL   H94034596   2.181   3.486   2.332  0.3183  0.3329 -0.1930
   29MOL   H94134597   2.270   3.616   2.430 -0.7251 -1.4037  1.5135
   29MOL   H94234598   2.362   3.342   2.337 -0.8585 -1.4680  2.2568
   29MOL   H94334599   2.484   3.456   2.392 -0.2197  1.1028  1.7675
   29MOL   H94434600   2.423   3.295   2.559  1.8739  0.9195 -2.4645
   29MOL   H94534601   2.379   3.454   2.613  0.8160  0.5009 -0.9815
   29MOL   H94634602   2.019   3.239   2.657  0.1006 -0.6838  0.1619
   29MOL   H94734603   2.060   3.067   2.612 -0.5630 -0.9981  0.1383
   29MOL   H94834604   1.838   3.175   2.536 -2.0008  0.7574 -2.0263
   29MOL   H94934605   1.922   3.087   2.412 -2.3534  0.3201 -0.0280
   29MOL   H95034606   1.962   3.303   2.301 -2.3511  3.2355 -1.5348
   29MOL   H95134607   1.976   3.389   2.452  0.9198 -1.2463  0.4107
   29MOL   H95234608   1.741   3.396   2.484  0.4403  0.4211  0.5171
   29MOL   H95334609   1.716   3.270   2.362  0.8623 -0.9492  0.3901
   29MOL   H95434610   1.753   3.460   2.184 -2.0607  0.6931  0.1299
   29MOL   H95534611   1.627   3.481   2.294  0.3783  1.4911 -2.3385
   29MOL   H95634612   1.763   3.643   2.416  1.6187 -0.1919  0.3138
   29MOL   H95734613   1.907   3.601   2.330  0.6392 -1.8084 -1.2413
   29MOL   H95834614   1.665   3.711   2.171  0.4879 -0.5789 -0.5548
   29MOL   H95934615   1.821   3.668   2.116 -0.5574 -0.1902 -0.8905
   29MOL   H96034616   1.758   3.894   2.290  1.1701 -1.1220  0.8086
   29MOL   H96134617   1.922   3.851   2.263  0.7375 -1.1938 -0.5599
   29MOL   O96234618   1.770   4.039   2.092 -0.0230  0.2152  0.3531
   29MOL   C96334619   1.762   4.120   1.972  0.1749  0.2150 -0.4214
   29MOL   C96434620   1.797   4.268   2.016 -0.4723 -0.0679 -0.2068
   29MOL   C96534621   1.806   4.362   1.896 -0.2762  0.0812  0.3571
   29MOL   C96634622   1.898   4.484   1.929  0.2713  0.1893  0.3036
   29MOL   C96734623   1.905   4.591   1.820 -0.3215  0.0864 -0.2395
   29MOL   C96834624   1.939   4.550   1.672 -0.0268  0.5565  0.5711
   29MOL   C96934625   1.934   4.678   1.589  0.2674 -0.2196  0.0741
   29MOL   C97034626   1.959   4.640   1.435 -0.1788 -0.1829  0.0924
   29MOL   C97134627   1.908   4.759   1.353 -0.6368 -0.1215  0.5982
   29MOL   C97234628   1.983   4.893   1.387 -0.5474  0.3228  0.8521
   29MOL   O97334629   2.120   4.871   1.388 -0.0577  0.4086  0.4979
   29MOL   C97434630   2.183   4.948   1.474 -0.2396  0.2052 -1.1665
   29MOL   O97534631   2.140   5.043   1.541  0.1533  0.1914 -0.4625
   29MOL   C97634632   2.326   4.913   1.503  0.5352  0.4765  0.3382
   29MOL   C97734633   2.334   4.790   1.598  0.3127 -0.6629  0.7152
   29MOL   C97834634   2.351   4.820   1.753 -0.6538 -0.0082  1.0973
   29MOL   C97934635   2.314   4.696   1.834 -0.4076 -0.0983 -0.4497
   29MOL   C98034636   2.312   4.710   1.988 -0.1892 -0.4823  0.6795
   29MOL   C98134637   2.310   4.576   2.063 -0.4963 -0.2442 -0.1074
   29MOL   C98234638   2.288   4.575   2.216 -1.0597  0.2495 -0.5620
   29MOL   C98334639   2.398   4.664   2.287 -0.3364  0.6714  0.1323
   29MOL   C98434640   2.390   4.639   2.441 -0.3235  0.2440  0.1054
   29MOL   O98534641   2.473   4.565   2.502 -0.1322 -0.3734 -0.9036
   29MOL   H98634642   1.812   4.090   1.880 -1.2042 -0.3721 -0.9854
   29MOL   H98734643   1.660   4.124   1.935 -0.9307 -1.1433  2.4154
   29MOL   H98834644   1.722   4.286   2.093  0.0498  0.0950  0.2715
   29MOL   H98934645   1.888   4.273   2.077  0.2622 -2.1463 -1.1109
   29MOL   H99034646   1.844   4.307   1.810  2.0179  0.3266  1.1949
   29MOL   H99134647   1.711   4.410   1.870 -1.7165 -3.0865 -0.4659
   29MOL   H99234648   1.858   4.533   2.018  0.7645  1.1109  0.0197
   29MOL   H99334649   2.001   4.455   1.951 -0.3814 -0.8759  2.1088
   29MOL   H99434650   1.980   4.657   1.864  0.6100  0.0158 -1.6946
   29MOL   H99534651   1.815   4.653   1.816  0.4698  1.2216 -1.1045
   29MOL   H99634652   1.871   4.475   1.632 -0.0348  1.0669 -0.3998
   29MOL   H99734653   2.038   4.505   1.674 -0.1281  0.3360  0.5990
   29MOL   H99834654   2.013   4.740   1.632 -1.9840  0.9598  2.6235
   29MOL   H99934655   1.840   4.730   1.607  1.6496  1.2521  3.5858
   29MOL     H134656   1.908   4.553   1.394  2.4010 -1.8358  0.3001
   29MOL     H234657   2.066   4.627   1.417 -0.3988 -2.5977  0.4614
   29MOL     H334658   1.918   4.734   1.247  2.5324 -1.1043  1.0546
   29MOL     H434659   1.802   4.761   1.377 -0.2652  0.1043  2.2672
   29MOL     H534660   1.974   4.969   1.309 -0.3644 -0.9905 -0.4774
   29MOL     H634661   1.937   4.921   1.481  0.6408  1.0301  1.2340
   29MOL     H734662   2.386   4.994   1.542 -1.7722  2.9922 -1.1824
   29MOL     H834663   2.367   4.879   1.408  2.7232 -0.4836  1.5919
   29MOL     H934664   2.415   4.721   1.574 -0.2962 -0.2923 -2.5446
   29MOL    H1034665   2.259   4.713   1.579  1.0062 -1.4041  0.9382
   29MOL    H1134666   2.283   4.898   1.788  0.6960  1.3260  0.8203
   29MOL    H1234667   2.448   4.868   1.766 -0.3383 -0.0079 -0.9812
   29MOL    H1334668   2.377   4.612   1.807 -1.1828 -0.0976 -2.2997
   29MOL    H1434669   2.212   4.681   1.800 -0.8864  2.0798 -0.0422
   29MOL    H1534670   2.400   4.764   2.022 -0.2374 -1.0908  1.8016
   29MOL    H1634671   2.230   4.769   2.029 -0.2486  0.1548 -0.3298
   29MOL    H1734672   2.233   4.514   2.015 -1.1783 -1.6957  2.7294
   29MOL    H1834673   2.405   4.524   2.052 -0.0461  0.1258  1.9241
   29MOL    H1934674   2.282   4.477   2.263  0.5957 -0.5524 -1.9684
   29MOL    H2034675   2.191   4.624   2.224 -0.6550  1.1631 -1.1968
   29MOL    H2134676   2.501   4.639   2.258  1.0865  1.6937  4.0061
   29MOL    H2234677   2.378   4.770   2.279  0.2186  0.9284  1.8239
   29MOL    O2334678   2.290   4.708   2.496  0.1271  0.1816 -0.6275
   29MOL    C2434679   2.275   4.707   2.642  0.4372  0.1000  0.5167
   29MOL    C2534680   2.131   4.725   2.684  0.8608  0.2715  1.0017
   29MOL    C2634681   2.088   4.873   2.699 -0.8833  0.0627  0.0708
   29MOL    C2734682   1.941   4.889   2.735  0.0585 -0.6522 -0.3853
   29MOL    C2834683   1.903   5.029   2.721  0.6313 -0.3217  0.0410
   29MOL    C2934684   1.770   5.053   2.792  0.0152  0.7005  0.6543
   29MOL    C3034685   1.712   5.195   2.786  0.5292  0.1965  0.2254
   29MOL    C3134686   1.567   5.208   2.841  0.1399 -0.1184  0.0336
   29MOL    C3234687   1.531   5.354   2.842 -0.0479  0.1290 -0.0929
   29MOL    C3334688   1.381   5.376   2.881 -0.6998  0.7293  0.1613
   29MOL    O3434689   1.361   5.514   2.915  0.5131  0.6636 -0.2334
   29MOL    C3534690   1.336   5.594   2.807  0.4315  0.1262  0.1116
   29MOL    O3634691   1.309   5.539   2.699  0.5725  0.4051  0.2277
   29MOL    C3734692   1.338   5.748   2.823  0.4312  0.2769 -0.0320
   29MOL    C3834693   1.214   5.796   2.908 -0.1775 -0.1911  0.4606
   29MOL    C3934694   1.077   5.786   2.846  0.2715  0.4092 -0.5141
   29MOL    C4034695   1.060   5.882   2.725  0.1538  0.0840  0.4403
   29MOL    C4134696   0.912   5.885   2.673  0.1246  0.2595  0.8703
   29MOL    C4234697   0.895   5.965   2.541  0.1348  0.1669 -1.1975
   29MOL    C4334698   0.759   6.024   2.515  0.1009  0.6461  0.5044
   29MOL    C4434699   0.663   5.925   2.448  0.3573 -0.3325  0.1758
   29MOL    C4534700   0.605   5.953   2.310 -0.0986  0.3046  0.2951
   29MOL    O4634701   0.479   5.969   2.298 -0.0831 -0.7288  0.0296
   29MOL    H4734702   2.319   4.620   2.691  0.4237  1.3980  2.9398
   29MOL    H4834703   2.334   4.790   2.680  0.5163  0.8834 -1.2932
   29MOL    H4934704   2.064   4.688   2.606  1.5484  0.7360  0.1833
   29MOL    H5034705   2.098   4.665   2.769 -0.8364  1.3244  1.1063
   29MOL    H5134706   2.147   4.909   2.784  0.9021 -2.3715 -0.0617
   29MOL    H5234707   2.123   4.933   2.615  1.2113 -0.6244  0.3988
   29MOL    H5334708   1.882   4.822   2.672 -0.6538 -0.4291  0.0414
   29MOL    H5434709   1.937   4.854   2.839  1.1818  0.7937  0.1544
   29MOL    H5534710   1.904   5.060   2.617  1.8532  0.5549  0.2984
   29MOL    H5634711   1.978   5.097   2.763  1.0153 -0.8528  0.2147
   29MOL    H5734712   1.769   5.015   2.895 -0.3554  0.4490  0.5591
   29MOL    H5834713   1.697   4.988   2.743  1.1562 -0.3679  0.3331
   29MOL    H5934714   1.712   5.238   2.686  1.0531  0.5430  0.3760
   29MOL    H6034715   1.776   5.265   2.839 -0.7968  0.9703  0.8174
   29MOL    H6134716   1.554   5.164   2.940  0.6481 -0.3785 -0.0111
   29MOL    H6234717   1.504   5.159   2.766 -1.5890  3.2970 -0.8130
   29MOL    H6334718   1.591   5.404   2.918 -1.0750  1.6282 -0.2600
   29MOL    H6434719   1.560   5.400   2.748 -0.8952  3.6125  1.2583
   29MOL    H6534720   1.315   5.340   2.802  1.5411  1.5878 -2.1369
   29MOL    H6634721   1.358   5.309   2.965 -0.6901 -1.0132 -1.1886
   29MOL    H6734722   1.329   5.789   2.723 -0.4764 -1.7518 -0.8075
   29MOL    H6834723   1.434   5.779   2.864 -0.4875  0.5104  2.0312
   29MOL    H6934724   1.227   5.898   2.945 -1.0714 -1.1872  3.6722
   29MOL    H7034725   1.217   5.738   3.000  1.7107 -2.2305 -0.8371
   29MOL    H7134726   1.002   5.805   2.922 -0.9290 -0.6959 -1.4057
   29MOL    H7234727   1.060   5.686   2.806  1.3865 -0.2901  0.7042
   29MOL    H7334728   1.127   5.865   2.641  0.1351  0.6401  0.3111
   29MOL    H7434729   1.088   5.984   2.751  3.1594 -0.6375  0.1780
   29MOL    H7534730   0.887   5.780   2.658  1.8389 -0.0582  0.2051
   29MOL    H7634731   0.838   5.929   2.740 -0.1311  0.8647  0.1918
   29MOL    H7734732   0.959   6.052   2.552  0.0473  0.3094 -1.7851
   29MOL    H7834733   0.922   5.891   2.465 -2.5944  0.3575 -2.4404
   29MOL    H7934734   0.779   6.107   2.446 -0.5945  0.8788  0.5735
   29MOL    H8034735   0.726   6.064   2.611 -1.8215  0.8454 -0.2062
   29MOL    H8134736   0.712   5.828   2.439 -1.0936 -1.0415 -0.2664
   29MOL    H8234737   0.572   5.924   2.508  0.1428  1.5603 -0.0840
   29MOL    O8334738   0.695   5.946   2.214 -0.2351 -0.3514  0.0442
   29MOL    C8434739   0.656   5.924   2.078  0.3660 -0.9702 -0.3581
   29MOL    C8534740   0.676   5.781   2.025 -0.3781  0.0363 -0.1471
   29MOL    C8634741   0.545   5.699   2.058  0.1586  0.2145  0.2116
   29MOL    C8734742   0.567   5.547   2.063 -0.0865 -0.2311 -0.3953
   29MOL    C8834743   0.585   5.493   1.922 -0.1400  0.7663 -0.2518
   29MOL    C8934744   0.550   5.342   1.912  0.1053  0.0247  0.5822
   29MOL    C9034745   0.594   5.275   1.785 -0.4643  1.6003  0.2449
   29MOL    C9134746   0.526   5.140   1.763 -0.0644 -0.1395  0.9027
   29MOL    C9234747   0.550   5.079   1.617 -0.6238 -0.5257  0.7777
   29MOL    C9334748   0.700   5.079   1.580 -0.0626  0.1965 -0.7609
   29MOL    O9434749   0.789   4.998   1.660  0.3822  0.2841  0.1501
   29MOL    C9534750   0.837   4.887   1.606  0.5342 -0.3154  0.7124
   29MOL    O9634751   0.802   4.838   1.499 -0.1311 -0.2823  0.1081
   29MOL    C9734752   0.942   4.819   1.695 -0.2578  0.3421 -0.1549
   29MOL    C9834753   1.021   4.694   1.635 -0.0535  0.2897 -0.1432
   29MOL    C9934754   0.987   4.567   1.716 -0.7075  0.1435  0.1501
   29MOL   C10034755   1.056   4.437   1.679 -0.4717  0.8384 -0.3395
   29MOL   C10134756   1.033   4.321   1.777  0.3473 -0.7437  0.5616
   29MOL   C10234757   1.141   4.320   1.887  0.0068 -0.0182 -0.3229
   29MOL   C10334758   1.291   4.285   1.842  0.0403  0.0605  0.4188
   29MOL   C10434759   1.401   4.303   1.944  0.2400 -0.3901 -0.4051
   29MOL   C10534760   1.383   4.221   2.070 -0.3387  0.9336  0.1901
   29MOL   O10634761   1.436   4.109   2.076  0.3467  0.0230 -0.2221
   29MOL   H10734762   0.554   5.962   2.068  1.3309  2.6621  2.4583
   29MOL   H10834763   0.721   5.992   2.023 -0.6528 -0.7540 -1.2945
   29MOL   H10934764   0.684   5.783   1.916  0.7033 -2.2118 -0.1441
   29MOL   H11034765   0.769   5.737   2.062  0.9683  1.2342 -2.0378
   29MOL   H11134766   0.523   5.737   2.158 -0.3677  0.9414 -0.1719
   29MOL   H11234767   0.458   5.718   1.994 -0.6906 -0.0145  1.2773
   29MOL   H11334768   0.651   5.510   2.122 -0.8057  2.4753  2.4651
   29MOL   H11434769   0.476   5.504   2.104 -1.1389  0.9660 -1.4144
   29MOL   H11534770   0.686   5.519   1.891  0.5554 -0.4469  0.8974
   29MOL   H11634771   0.520   5.541   1.849  1.3564  0.7550 -1.6146
   29MOL   H11734772   0.442   5.330   1.916  0.1278  0.1950  1.7521
   29MOL   H11834773   0.594   5.298   2.001  1.9904  1.6943  0.5176
   29MOL   H11934774   0.701   5.252   1.793 -0.3490  2.6983  2.0726
   29MOL   H12034775   0.574   5.346   1.706 -0.9847 -0.8806 -1.9054
   29MOL   H12134776   0.420   5.140   1.787  0.0799 -1.3753  1.5724
   29MOL   H12234777   0.560   5.071   1.840  0.4756  0.1960  0.9650
   29MOL   H12334778   0.516   4.977   1.608 -2.3984  0.2650 -1.9270
   29MOL   H12434779   0.486   5.129   1.545 -1.1735 -2.3884 -0.0276
   29MOL   H12534780   0.731   5.059   1.477  0.2903 -2.3761 -0.1844
   29MOL   H12634781   0.748   5.177   1.588 -0.4716  0.3970 -0.7492
   29MOL   H12734782   0.895   4.794   1.791  2.7168 -0.0520  1.2444
   29MOL   H12834783   1.018   4.891   1.722  1.8097 -2.0734  0.6049
   29MOL   H12934784   1.129   4.711   1.630  0.3751 -1.9564  0.6348
   29MOL   H13034785   0.992   4.674   1.532  1.1389  1.0990 -0.6386
   29MOL   H13134786   0.881   4.544   1.718 -0.9296  1.0797 -0.7779
   29MOL   H13234787   0.998   4.588   1.823  0.5664 -0.7489  0.2036
   29MOL   H13334788   1.160   4.456   1.653 -0.0293 -2.2200 -1.0099
   29MOL   H13434789   1.012   4.413   1.582 -2.4324 -0.8436  0.9205
   29MOL   H13534790   0.941   4.352   1.827 -0.3071 -2.5607  0.5261
   29MOL   H13634791   1.034   4.228   1.721 -0.1908 -1.2304  1.3452
   29MOL   H13734792   1.129   4.409   1.949  0.8723 -0.3925  0.3798
   29MOL   H13834793   1.111   4.245   1.960 -1.4801 -0.1245 -1.0266
   29MOL   H13934794   1.309   4.346   1.754 -0.9641 -0.6951 -0.3328
   29MOL   H14034795   1.287   4.180   1.814 -1.6189 -0.0813  1.1183
   29MOL   H14134796   1.497   4.283   1.897  0.9395 -1.0269  1.2677
   29MOL   H14234797   1.405   4.409   1.968  0.0039 -0.3851 -0.3874
   29MOL   O14334798   1.304   4.275   2.171 -0.3175 -0.0952 -0.2727
   29MOL   C14434799   1.258   4.191   2.275 -0.3856 -0.1947  0.9020
   29MOL   C14534800   1.172   4.272   2.371 -1.0848 -0.1848  0.5602
   29MOL   C14634801   1.048   4.333   2.307  0.1432 -0.5645 -0.0597
   29MOL   C14734802   0.984   4.430   2.404  0.1705  0.1248  0.0627
   29MOL   C14834803   0.846   4.477   2.349  0.6745  0.0500  0.7462
   29MOL   C14934804   0.786   4.584   2.439  0.2008 -0.5097 -0.0512
   29MOL   C15034805   0.639   4.609   2.405 -0.7708  0.9194 -0.8492
   29MOL   C15134806   0.582   4.715   2.493 -0.5641  0.2627  0.1151
   29MOL   C15234807   0.431   4.728   2.483 -0.2537  0.4931  0.4587
   29MOL   C15334808   0.365   4.845   2.562 -0.8663  0.5237 -0.3317
   29MOL   O15434809   0.410   4.971   2.528  0.5165 -0.7070 -0.6186
   29MOL   C15534810   0.385   5.080   2.605 -0.0142 -0.5506 -0.1070
   29MOL   O15634811   0.330   5.070   2.714  0.4266 -0.2205  0.2601
   29MOL   C15734812   0.433   5.218   2.555 -0.1957 -0.2436 -0.0396
   29MOL   C15834813   0.586   5.253   2.567  0.4328  0.5087 -0.6892
   29MOL   C15934814   0.672   5.151   2.501  0.0396 -0.0824 -0.1648
   29MOL   C16034815   0.665   5.169   2.353  0.2792  0.4768 -0.1310
   29MOL   C16134816   0.762   5.078   2.273  0.4794 -0.2666 -0.0196
   29MOL   C16234817   0.729   5.093   2.120 -0.0714 -0.3126 -0.3502
   29MOL   C16334818   0.789   4.976   2.035  0.1526 -0.2703  0.1667
   29MOL   C16434819   0.743   4.831   2.068  0.0815  0.2626  0.2305
   29MOL   C16534820   0.594   4.817   2.056  0.1190 -0.1817  0.7242
   29MOL   O16634821   0.520   4.757   2.133 -0.0648  0.0918  0.1631
   29MOL   H16734822   1.212   4.104   2.228  1.0287 -0.8093  0.6265
   29MOL   H16834823   1.338   4.135   2.323  0.6130 -1.9371 -2.5860
   29MOL   H16934824   1.138   4.213   2.456  2.2774 -2.3820  0.4746
   29MOL   H17034825   1.241   4.352   2.400  2.2857 -1.7244 -2.7806
   29MOL   H17134826   1.079   4.384   2.216 -0.6046 -1.0825 -0.6157
   29MOL   H17234827   0.976   4.255   2.282 -0.1923 -0.2910  0.0404
   29MOL   H17334828   0.953   4.380   2.496  1.4218 -0.0745  0.3751
   29MOL   H17434829   1.038   4.524   2.403 -1.7935  1.2861 -0.3559
   29MOL   H17534830   0.790   4.387   2.321 -0.3547  1.1082 -0.7002
   29MOL   H17634831   0.854   4.518   2.248  1.5702  1.9384  1.5721
   29MOL   H17734832   0.835   4.676   2.406 -0.2080  0.3527  1.6367
   29MOL   H17834833   0.800   4.558   2.544 -2.8009 -3.1358 -0.2180
   29MOL   H17934834   0.589   4.513   2.418  0.9151 -0.0051 -1.0528
   29MOL   H18034835   0.638   4.636   2.299  2.2259 -0.8924 -1.3967
   29MOL   H18134836   0.630   4.806   2.456  2.3435 -1.4109 -0.4200
   29MOL   H18234837   0.617   4.710   2.596 -0.5170  0.4997  0.1116
   29MOL   H18334838   0.397   4.733   2.380  0.8552 -0.6906  0.0217
   29MOL   H18434839   0.384   4.637   2.520 -0.5743  0.4114 -0.1430
   29MOL   H18534840   0.257   4.841   2.552 -0.7725 -1.2901 -0.8104
   29MOL   H18634841   0.382   4.826   2.668  1.0763  1.5939 -0.4168
   29MOL   H18734842   0.376   5.296   2.606 -0.1538 -0.0152 -0.3412
   29MOL   H18834843   0.400   5.231   2.452 -0.2561 -0.5761 -0.0657
   29MOL   H18934844   0.606   5.251   2.674 -1.1051 -0.0970 -0.3938
   29MOL   H19034845   0.605   5.353   2.527 -1.5087  0.5693 -1.5500
   29MOL   H19134846   0.651   5.050   2.537 -0.8472 -0.0382 -0.5634
   29MOL   H19234847   0.773   5.167   2.540 -0.9817 -1.9270  3.4692
   29MOL   H19334848   0.692   5.269   2.319 -0.7801  0.3506 -1.4015
   29MOL   H19434849   0.562   5.147   2.324  1.0015 -1.2278 -1.4599
   29MOL   H19534850   0.864   5.113   2.286  0.9546 -2.3286  2.1530
   29MOL   H19634851   0.763   4.979   2.318 -1.1692 -0.3938 -0.2174
   29MOL   H19734852   0.623   5.108   2.102 -0.0571 -1.1398 -1.1207
   29MOL   H19834853   0.779   5.184   2.085 -1.4110 -0.1053 -1.7675
   29MOL   H19934854   0.897   4.981   2.033  0.2893 -2.2772  1.5152
   29MOL   H20034855   0.768   4.995   1.929  0.4217 -0.2994  0.1087
   29MOL   H20134856   0.800   4.762   2.006  1.5249  1.4651  0.1890
   29MOL   H20234857   0.756   4.810   2.174 -1.4434 -1.5866  0.0653
   29MOL   H20334858   0.556   4.865   1.965  0.5096 -0.6846  0.2879
   30MOL     O134859   5.968   1.775   3.236  0.0072  0.5292  0.0802
   30MOL     C234860   5.896   1.884   3.290  0.7237  0.3965 -0.7419
   30MOL     C334861   5.774   1.844   3.370 -0.3358  0.5515 -0.8005
   30MOL     C434862   5.720   1.960   3.452  0.4130 -0.2676 -0.6352
   30MOL     C534863   5.587   1.934   3.519  0.2384 -0.3415 -0.0442
   30MOL     C634864   5.588   1.823   3.626 -1.0446  0.4152  0.1582
   30MOL     C734865   5.458   1.806   3.702  0.5753 -0.0175 -0.4134
   30MOL     C834866   5.462   1.703   3.820  0.0480 -0.2954 -0.5859
   30MOL     C934867   5.329   1.669   3.882  0.7784 -0.0810 -0.5764
   30MOL    C1034868   5.341   1.578   4.005 -0.1108 -0.0791 -0.5965
   30MOL    C1134869   5.207   1.542   4.060  0.3523  0.7458  0.2091
   30MOL    O1234870   5.152   1.664   4.125 -0.4020  0.1129 -0.5904
   30MOL    C1334871   5.110   1.650   4.250 -0.6863  0.5382 -0.2461
   30MOL    O1434872   5.111   1.547   4.315 -0.2842 -0.0208 -0.4900
   30MOL    C1534873   5.078   1.790   4.324 -0.3517  1.0170  0.1817
   30MOL    C1634874   4.959   1.760   4.422  0.4554 -0.3189  0.1345
   30MOL    C1734875   4.830   1.767   4.349  0.7261  0.1174 -0.4624
   30MOL    C1834876   4.715   1.699   4.433  0.5270  0.3496 -0.1974
   30MOL    C1934877   4.571   1.731   4.387 -0.0150  0.5864  0.0033
   30MOL    C2034878   4.470   1.658   4.483  0.4291  0.2658  0.3030
   30MOL    C2134879   4.323   1.688   4.440 -0.4823  0.2036  0.0974
   30MOL    C2234880   4.282   1.645   4.303 -0.5118 -0.4160 -0.0010
   30MOL    C2334881   4.139   1.608   4.289 -0.1158 -0.6454 -0.7448
   30MOL    O2434882   4.064   1.699   4.249  0.0440 -0.3854 -0.5251
   30MOL    H2534883   5.966   1.949   3.342  1.3233 -0.1249 -0.8957
   30MOL    H2634884   5.857   1.950   3.212  0.5453  0.3719 -0.6739
   30MOL    H2734885   5.699   1.790   3.311  0.0385 -0.4191 -0.4069
   30MOL    H2834886   5.818   1.762   3.427  0.2911  0.0962 -1.9397
   30MOL    H2934887   5.785   2.017   3.519 -1.2750  0.0319  0.7716
   30MOL    H3034888   5.689   2.032   3.376  0.6033  0.0920 -0.3757
   30MOL    H3134889   5.557   2.019   3.580  0.1286 -2.2229  2.6569
   30MOL    H3234890   5.505   1.927   3.448  1.7111  1.7824 -2.0140
   30MOL    H3334891   5.658   1.858   3.701 -0.1922  0.1062 -0.4910
   30MOL    H3434892   5.620   1.732   3.575 -4.5548  0.0818 -1.6521
   30MOL    H3534893   5.373   1.790   3.636  0.1852  1.7109 -0.3420
   30MOL    H3634894   5.445   1.903   3.750  2.4679 -0.0574  0.2439
   30MOL    H3734895   5.529   1.735   3.900 -0.5810 -0.7448  0.1258
   30MOL    H3834896   5.498   1.604   3.789  0.5305 -0.5818  0.8592
   30MOL    H3934897   5.271   1.623   3.802  2.1123 -1.1002 -0.9756
   30MOL    H4034898   5.276   1.763   3.899 -0.2440 -0.6584 -0.5420
   30MOL    H4134899   5.382   1.484   3.968 -0.7087 -0.1893 -0.9774
   30MOL    H4234900   5.403   1.623   4.083 -0.5988 -1.5540  0.6782
   30MOL    H4334901   5.141   1.513   3.978 -2.8949  0.9551  2.6448
   30MOL    H4434902   5.212   1.452   4.120 -2.0351  0.4256  0.0047
   30MOL    H4534903   5.058   1.867   4.248  1.4756  1.3057 -0.0211
   30MOL    H4634904   5.166   1.809   4.385  0.1142 -3.0721  0.9568
   30MOL    H4734905   4.956   1.835   4.501 -2.6447 -0.5523  0.2771
   30MOL    H4834906   4.975   1.667   4.476  2.5729  0.3344  0.6879
   30MOL    H4934907   4.834   1.725   4.249 -0.4184 -0.4976 -0.2506
   30MOL    H5034908   4.798   1.870   4.333  0.0338  0.0837  0.6170
   30MOL    H5134909   4.727   1.715   4.540  1.9008 -1.2810 -0.0857
   30MOL    H5234910   4.730   1.593   4.414 -1.4113  0.0788 -0.2969
   30MOL    H5334911   4.550   1.838   4.388  0.9845  0.7841  1.5287
   30MOL    H5434912   4.564   1.698   4.284  0.5230 -2.2956  0.8480
   30MOL    H5534913   4.472   1.549   4.477  1.2359  0.3758 -1.9199
   30MOL    H5634914   4.496   1.689   4.585 -0.4135  2.3174 -0.0757
   30MOL    H5734915   4.309   1.797   4.442  0.6185  0.4240 -2.5243
   30MOL    H5834916   4.249   1.643   4.506  0.5783 -1.4743  0.1538
   30MOL    H5934917   4.311   1.719   4.229 -0.2873 -2.3588 -1.8815
   30MOL    H6034918   4.340   1.557   4.278 -0.7432 -0.3486 -0.7741
   30MOL    H6134919   5.932   1.697   3.276 -2.9038  1.1679 -1.1235
   30MOL    O6234920   4.109   1.474   4.309  0.6312 -0.0273 -0.9793
   30MOL    C6334921   3.983   1.416   4.304  0.3850 -0.3189  0.7475
   30MOL    C6434922   4.001   1.266   4.319  1.1073  0.6441 -0.1060
   30MOL    C6534923   3.868   1.189   4.298 -0.7240 -0.1485 -0.3104
   30MOL    C6634924   3.876   1.038   4.342 -0.1963  0.4115  0.2311
   30MOL    C6734925   3.737   0.976   4.350 -0.4094  0.9183 -0.1302
   30MOL    C6834926   3.683   0.936   4.212  0.0834  0.0394 -0.1578
   30MOL    C6934927   3.530   0.922   4.203 -0.0394  0.0932  0.2363
   30MOL    C7034928   3.476   0.918   4.059 -0.2192  0.7798 -0.6486
   30MOL    C7134929   3.334   0.964   4.045 -0.1111 -0.2670 -0.2580
   30MOL    C7234930   3.264   0.938   3.911 -0.2211 -0.2337  0.3125
   30MOL    O7334931   3.223   1.062   3.861 -0.0234 -0.7463 -0.0498
   30MOL    C7434932   3.090   1.111   3.878  0.1797  0.6237 -0.3401
   30MOL    O7534933   3.001   1.047   3.936 -0.2032  0.2930 -0.0817
   30MOL    C7634934   3.064   1.241   3.797  0.0951 -0.1322 -0.2767
   30MOL    C7734935   3.160   1.357   3.840  0.6311 -0.2463  0.3024
   30MOL    C7834936   3.154   1.473   3.748  0.5788 -0.1163  0.2645
   30MOL    C7934937   3.245   1.598   3.789 -1.0861 -0.2639 -0.3197
   30MOL    C8034938   3.210   1.649   3.930 -0.2338  0.1797 -0.2890
   30MOL    C8134939   3.282   1.777   3.969  0.0553 -0.5007  0.3919
   30MOL    C8234940   3.290   1.809   4.119  0.1214 -0.5040  0.1254
   30MOL    C8334941   3.371   1.721   4.208  0.4038 -0.5105  0.6577
   30MOL    C8434942   3.519   1.763   4.213  0.2244  0.2871 -0.0167
   30MOL    O8534943   3.555   1.850   4.286 -0.4975 -0.5097  0.1576
   30MOL    H8634944   3.927   1.453   4.391 -1.9662 -2.2183  0.1145
   30MOL    H8734945   3.924   1.440   4.216 -0.1101  0.0529  1.1758
   30MOL    H8834946   4.075   1.230   4.248  3.0228 -0.6187  2.4584
   30MOL    H8934947   4.034   1.248   4.421 -0.8209  1.8668  0.7689
   30MOL    H9034948   3.781   1.243   4.335 -1.9712 -2.2692 -0.0263
   30MOL    H9134949   3.844   1.190   4.191 -0.8827 -0.8800 -0.2859
   30MOL    H9234950   3.935   0.967   4.284  2.0863  2.0660  0.4726
   30MOL    H9334951   3.927   1.031   4.438  0.2292  0.9888  0.0449
   30MOL    H9434952   3.675   1.050   4.401 -2.4256 -0.5563 -0.3546
   30MOL    H9534953   3.734   0.885   4.411 -0.1473  1.4896  0.7501
   30MOL    H9634954   3.735   0.852   4.166 -2.6801 -2.3533  0.9459
   30MOL    H9734955   3.716   1.012   4.142 -0.5894 -1.6293 -2.3247
   30MOL    H9834956   3.494   1.005   4.263 -1.2934  0.7288 -1.3492
   30MOL    H9934957   3.488   0.841   4.263 -1.3895  0.4616 -0.1852
   30MOL   H10034958   3.469   0.813   4.028 -1.1486  0.6628 -0.0608
   30MOL   H10134959   3.545   0.970   3.992  0.5774  0.1626 -0.3198
   30MOL   H10234960   3.269   0.937   4.128  0.0956 -3.8157 -1.1844
   30MOL   H10334961   3.339   1.069   4.075  0.6985  0.0773 -1.5578
   30MOL   H10434962   3.331   0.898   3.835 -3.0272 -1.4274 -1.6062
   30MOL   H10534963   3.189   0.862   3.931 -0.0201 -0.0646  1.7937
   30MOL   H10634964   2.956   1.259   3.800  0.2202  1.1610 -2.2259
   30MOL   H10734965   3.079   1.202   3.696  0.2854  0.0733 -0.3295
   30MOL   H10834966   3.263   1.322   3.831  0.5978 -0.2507 -0.0538
   30MOL   H10934967   3.151   1.383   3.946 -0.9177  0.2730  0.0640
   30MOL   H11034968   3.054   1.516   3.760  0.3870 -0.7839  1.0732
   30MOL   H11134969   3.156   1.446   3.642 -0.1616  1.0082 -0.0555
   30MOL   H11234970   3.232   1.682   3.721 -2.0693 -0.3823 -0.2888
   30MOL   H11334971   3.351   1.576   3.802 -0.8224  0.8485 -0.5829
   30MOL   H11434972   3.102   1.659   3.942 -0.2930  0.2204 -0.8475
   30MOL   H11534973   3.238   1.576   4.005 -0.9315 -2.8125 -2.8196
   30MOL   H11634974   3.383   1.767   3.929 -0.1885  0.4771 -0.4911
   30MOL   H11734975   3.236   1.861   3.918  0.2084 -0.4371  0.3594
   30MOL   H11834976   3.184   1.806   4.148  0.4096 -0.2671  1.2379
   30MOL   H11934977   3.319   1.911   4.144 -0.9053  0.3074 -1.8757
   30MOL   H12034978   3.336   1.728   4.311  0.5726 -2.3177  0.8582
   30MOL   H12134979   3.364   1.617   4.175 -1.4695 -1.0221  2.5479
   30MOL   O12234980   3.599   1.696   4.124 -0.2915 -0.0682  0.2810
   30MOL   C12334981   3.736   1.718   4.121 -0.1310  0.0167 -0.0487
   30MOL   C12434982   3.771   1.830   4.026  0.1088 -0.1034 -0.0362
   30MOL   C12534983   3.771   1.787   3.884  0.1647 -0.8137  0.3438
   30MOL   C12634984   3.770   1.891   3.774  0.2803 -0.2346 -0.0331
   30MOL   C12734985   3.901   1.966   3.757 -0.6209 -0.0901 -0.5909
   30MOL   C12834986   3.918   2.071   3.642 -0.2903  0.5047 -0.2965
   30MOL   C12934987   3.974   2.011   3.507 -0.9280 -0.5147  0.3418
   30MOL   C13034988   4.005   2.120   3.397  0.0275 -0.1940 -0.4921
   30MOL   C13134989   4.063   2.048   3.269  0.5526  0.0971  0.1370
   30MOL   C13234990   4.048   2.150   3.140 -0.0049 -1.0062  0.1439
   30MOL   O13334991   4.110   2.276   3.150  0.1210  0.7883 -0.1472
   30MOL   C13434992   4.240   2.280   3.118 -0.2226  0.3572  0.3362
   30MOL   O13534993   4.302   2.189   3.069 -0.3532  1.4875  0.4011
   30MOL   C13634994   4.299   2.417   3.133 -0.4316  0.9120  0.2780
   30MOL   C13734995   4.320   2.466   3.277 -0.3294  0.2011  0.5948
   30MOL   C13834996   4.452   2.436   3.335 -0.0011 -0.2367  0.3340
   30MOL   C13934997   4.476   2.488   3.473 -0.4369  1.0189  1.1384
   30MOL   C14034998   4.623   2.471   3.517  0.0211 -0.5059  0.7788
   30MOL   C14134999   4.660   2.326   3.547  0.2281  0.2263 -0.2272
   30MOL   C14235000   4.788   2.307   3.623 -0.8310 -0.4129 -0.3932
   30MOL   C14335001   4.803   2.162   3.670 -0.1839  0.2612  0.0498
   30MOL   C14435002   4.866   2.078   3.568 -0.1770 -0.9506  0.0945
   30MOL   O14535003   4.802   1.986   3.520 -0.2782  0.3582  0.4028
   30MOL   H14635004   3.770   1.725   4.224 -1.6016  0.3549  0.4325
   30MOL   H14735005   3.772   1.629   4.070 -1.3666 -0.5439  0.0328
   30MOL   H14835006   3.716   1.922   4.044  1.8538  0.9015  0.3360
   30MOL   H14935007   3.872   1.858   4.058 -0.4113  0.0014  1.5731
   30MOL   H15035008   3.855   1.720   3.867  1.8995  1.7191 -1.5350
   30MOL   H15135009   3.677   1.735   3.867  0.5436 -1.5089  0.3637
   30MOL   H15235010   3.742   1.846   3.679 -1.0317 -0.9121  0.6639
   30MOL   H15335011   3.694   1.968   3.790 -0.8453 -0.6642 -2.9710
   30MOL   H15435012   3.973   1.886   3.742 -0.7499 -0.4471  0.6004
   30MOL   H15535013   3.932   2.013   3.851  1.0765 -0.9043 -0.7266
   30MOL   H15635014   3.985   2.149   3.677 -0.0126  0.2458 -0.2544
   30MOL   H15735015   3.825   2.126   3.625 -1.1772 -0.3771  1.5135
   30MOL   H15835016   3.912   1.926   3.481  0.2573 -1.0236 -0.8901
   30MOL   H15935017   4.074   1.982   3.538 -0.9314 -2.3658 -1.3526
   30MOL   H16035018   4.068   2.203   3.429 -1.6883  1.3246 -0.9992
   30MOL   H16135019   3.912   2.165   3.363  1.1288  0.5894 -2.5025
   30MOL   H16235020   4.163   2.019   3.301  0.3535  2.1630  2.7926
   30MOL   H16335021   4.015   1.955   3.237  1.2183 -0.4180  0.6113
   30MOL   H16435022   4.053   2.090   3.049  0.0378  0.5018 -0.8576
   30MOL   H16535023   3.947   2.190   3.140  0.0964 -0.5854 -2.9766
   30MOL   H16635024   4.225   2.478   3.082 -0.8362  0.7201  0.6338
   30MOL   H16735025   4.390   2.426   3.073 -0.2601  0.4916  0.4698
   30MOL   H16835026   4.235   2.439   3.340 -0.8334  2.7257  1.0556
   30MOL   H16935027   4.312   2.575   3.269  1.3644  0.3844  1.3321
   30MOL   H17035028   4.528   2.462   3.262 -0.6163 -1.3105 -0.7211
   30MOL   H17135029   4.456   2.328   3.352  1.0065  0.3428  4.2489
   30MOL   H17235030   4.407   2.468   3.555  1.2991 -1.0408  2.1293
   30MOL   H17335031   4.480   2.597   3.472  0.4023  0.9903  0.6479
   30MOL   H17435032   4.693   2.512   3.445  0.6944 -0.3351  1.5280
   30MOL   H17535033   4.652   2.539   3.597  0.3154 -1.0512  1.1415
   30MOL   H17635034   4.579   2.296   3.613  0.9819 -0.1109  0.5597
   30MOL   H17735035   4.652   2.272   3.453  1.1808 -0.5309  0.1174
   30MOL   H17835036   4.779   2.357   3.719  0.2465  0.8753 -0.9590
   30MOL   H17935037   4.878   2.346   3.577  0.5227 -1.9514  0.8999
   30MOL   H18035038   4.863   2.155   3.761 -0.1246 -1.1992 -0.0898
   30MOL   H18135039   4.699   2.137   3.691  0.1648 -1.2922  0.0050
   30MOL   O18235040   4.995   2.109   3.543 -1.2659  0.6089 -0.4851
   30MOL   C18335041   5.069   2.041   3.436  0.1146 -0.4316 -0.0529
   30MOL   C18435042   5.186   2.136   3.399 -0.0016  0.8254 -0.0777
   30MOL   C18535043   5.132   2.272   3.340 -0.2000  0.8749  0.5062
   30MOL   C18635044   5.237   2.388   3.324 -0.1880 -0.2931  0.2091
   30MOL   C18735045   5.179   2.520   3.286  0.1203  0.3872  0.1789
   30MOL   C18835046   5.274   2.637   3.281 -0.1007 -0.6221 -0.1008
   30MOL   C18935047   5.338   2.676   3.416 -0.6693 -0.6793  1.2867
   30MOL   C19035048   5.406   2.817   3.394 -0.5714  0.6853  0.4127
   30MOL   C19135049   5.471   2.879   3.517 -0.0427  0.2623 -0.3197
   30MOL   C19235050   5.536   3.015   3.479  0.3298  0.3524  0.7875
   30MOL   O19335051   5.616   3.063   3.581  0.8047  0.4723 -0.5415
   30MOL   C19435052   5.682   3.188   3.567  0.1631  1.3491  0.4247
   30MOL   O19535053   5.661   3.267   3.474 -0.6246 -0.2877 -0.6730
   30MOL   C19635054   5.776   3.219   3.677  0.3345 -0.2061  0.1666
   30MOL   C19735055   5.910   3.140   3.660 -0.5346  0.1319  0.6587
   30MOL   C19835056   6.002   3.208   3.552 -0.3251 -0.3335 -0.1547
   30MOL   C19935057   6.139   3.133   3.557 -0.0563  0.5757  0.0953
   30MOL   C20035058   6.233   3.161   3.449  0.0068 -0.5079  0.7203
   30MOL   C20135059   6.204   3.086   3.314 -0.8857  0.1916 -0.6307
   30MOL   C20235060   6.310   3.119   3.206 -0.1734  0.2971 -0.0950
   30MOL   C20335061   6.300   3.038   3.069 -0.0547 -0.8685  0.0634
   30MOL   C20435062   6.171   3.053   2.991  0.4237  0.8737  0.5088
   30MOL   O20535063   6.135   2.968   2.908  0.7269 -0.1066  0.3694
   30MOL   H20635064   5.106   1.945   3.473 -0.9887 -1.2880 -1.1285
   30MOL   H20735065   4.992   2.012   3.364 -0.5962 -0.9303  0.9009
   30MOL   H20835066   5.238   2.154   3.493 -0.2679 -1.5424  0.5643
   30MOL   H20935067   5.255   2.097   3.325  1.6480  1.1945  1.2151
   30MOL   H21035068   5.069   2.257   3.252  1.6139  1.2205 -0.8930
   30MOL   H21135069   5.066   2.306   3.420 -1.0239 -1.5875  0.9142
   30MOL   H21235070   5.290   2.403   3.418  0.3046  0.2709 -0.1538
   30MOL   H21335071   5.310   2.353   3.250  0.7409 -2.3560  2.0368
   30MOL   H21435072   5.108   2.537   3.366 -0.4652 -1.0114 -0.0113
   30MOL   H21535073   5.116   2.523   3.197  0.3924 -0.7358 -0.0670
   30MOL   H21635074   5.228   2.724   3.234  1.6410  1.1798  1.4440
   30MOL   H21735075   5.349   2.595   3.213 -0.7035 -0.6231 -0.7678
   30MOL   H21835076   5.411   2.600   3.442  0.5172 -0.2602 -0.6629
   30MOL   H21935077   5.251   2.684   3.481 -0.3740  1.1621  1.4777
   30MOL   H22035078   5.334   2.883   3.347 -1.1534  0.0948  0.4660
   30MOL   H22135079   5.485   2.799   3.321  0.0812  1.4451  0.9270
   30MOL   H22235080   5.400   2.879   3.599  2.1785  1.4170  1.6626
   30MOL   H22335081   5.548   2.814   3.559 -1.3731 -0.3590  1.2153
   30MOL   H22435082   5.604   3.010   3.395 -1.4303  0.1827 -0.6565
   30MOL   H22535083   5.457   3.087   3.457 -0.0188 -0.8401 -1.9678
   30MOL   H22635084   5.724   3.196   3.771  0.2338  0.4496  0.2771
   30MOL   H22735085   5.789   3.327   3.678 -0.7381 -0.0681  2.1736
   30MOL   H22835086   5.893   3.038   3.625 -0.3270 -0.7328  2.9878
   30MOL   H22935087   5.967   3.124   3.751 -0.1908 -0.7611  0.2865
   30MOL   H23035088   6.012   3.315   3.573 -0.2613 -0.2200 -0.7626
   30MOL   H23135089   5.944   3.196   3.461 -0.6308 -0.6744  0.0830
   30MOL   H23235090   6.133   3.025   3.551 -0.2185  0.5896  0.0137
   30MOL   H23335091   6.180   3.155   3.656 -0.5462 -0.3570  0.5093
   30MOL   H23435092   6.220   3.269   3.441  0.5072 -0.3222  2.2967
   30MOL   H23535093   6.333   3.141   3.488  0.6986 -0.1163 -0.7995
   30MOL   H23635094   6.192   2.979   3.333 -0.5218  0.0582 -1.1677
   30MOL   H23735095   6.108   3.113   3.270 -1.0678 -2.0740 -1.6824
   30MOL   H23835096   6.413   3.102   3.236 -0.0925  0.6276 -0.1868
   30MOL   H23935097   6.310   3.226   3.187 -1.9616  0.4857  0.8110
   30MOL   H24035098   6.384   3.063   3.004 -0.9275 -1.8121 -1.4210
   30MOL   H24135099   6.310   2.937   3.108  1.8928 -0.2821  1.1540
   30MOL   O24235100   6.114   3.174   3.008  0.2779  0.0705 -0.8512
   30MOL   C24335101   5.985   3.199   2.958  0.1956 -0.1974 -0.3633
   30MOL   C24435102   5.994   3.237   2.812  0.3736 -0.2076 -0.0973
   30MOL   C24535103   6.069   3.365   2.782 -0.4086 -0.1522 -0.8042
   30MOL   C24635104   6.083   3.374   2.629  0.6326 -0.3504 -0.3020
   30MOL   C24735105   6.118   3.522   2.583  0.3770  0.4315 -0.2682
   30MOL   C24835106   6.255   3.580   2.620  0.3080  0.1966 -0.1605
   30MOL   C24935107   6.285   3.719   2.551 -1.3041  0.0674 -0.0918
   30MOL   C25035108   6.435   3.753   2.564 -0.0067  0.1783  0.3496
   30MOL   C25135109   6.481   3.883   2.498  0.5968 -0.7245 -1.0539
   30MOL   C25235110   6.421   4.006   2.565 -0.0506 -0.8401 -0.4096
   30MOL   O25335111   6.448   4.012   2.704 -0.3170  0.1183  0.5496
   30MOL   C25435112   6.352   4.047   2.796  0.0636  0.0645  0.1620
   30MOL   O25535113   6.232   4.068   2.777 -0.5490 -0.9120 -0.5990
   30MOL   C25635114   6.423   4.069   2.930 -0.1213 -1.1347  0.0792
   30MOL   C25735115   6.332   4.101   3.055  0.0936  0.3453 -0.4744
   30MOL   C25835116   6.284   4.246   3.037 -0.0586 -0.1958  0.3825
   30MOL   C25935117   6.175   4.267   3.142 -0.2674  0.2034 -0.2491
   30MOL   C26035118   6.139   4.417   3.160  0.0141 -0.2696 -0.6038
   30MOL   C26135119   6.025   4.450   3.064  0.0277  0.0780 -0.0593
   30MOL   C26235120   6.011   4.601   3.037  0.6834 -0.1008  0.6271
   30MOL   C26335121   5.882   4.647   2.985 -0.0391 -0.3189 -0.2803
   30MOL   C26435122   5.775   4.630   3.085 -0.2643 -0.2464 -0.2347
   30MOL   O26535123   5.790   4.586   3.199 -0.0275  0.2342  0.2246
   30MOL   H26635124   5.920   3.111   2.963 -0.3881  0.1146 -2.0812
   30MOL   H26735125   5.934   3.281   3.008 -0.1640 -0.7417  0.1626
   30MOL   H26835126   6.029   3.152   2.754  0.3936 -1.0552  1.1326
   30MOL   H26935127   5.894   3.247   2.769 -0.0720 -1.7873  0.5186
   30MOL   H27035128   6.005   3.446   2.817  0.3163 -0.4166  1.1748
   30MOL   H27135129   6.165   3.364   2.834 -0.9157  1.2151  0.1603
   30MOL   H27235130   6.160   3.307   2.591  0.0443 -0.1057 -1.9660
   30MOL   H27335131   6.001   3.326   2.575  1.2050 -0.7530 -0.8150
   30MOL   H27435132   6.047   3.593   2.624  0.7131  1.0158 -0.6889
   30MOL   H27535133   6.101   3.524   2.475 -3.2291  0.7720  0.2551
   30MOL   H27635134   6.334   3.510   2.593  1.4052  1.8035 -1.1698
   30MOL   H27735135   6.254   3.602   2.726  0.1227  1.4551 -0.4162
   30MOL   H27835136   6.221   3.802   2.583 -0.1614  0.8877  0.0790
   30MOL   H27935137   6.281   3.705   2.443  0.4678 -0.8474 -0.0530
   30MOL   H28035138   6.489   3.666   2.528  1.4716  1.6169 -0.9995
   30MOL   H28135139   6.462   3.773   2.668 -2.0089 -0.9765  1.1034
   30MOL   H28235140   6.588   3.883   2.517  0.5228 -0.8519 -0.6306
   30MOL   H28335141   6.470   3.888   2.389 -1.2417  0.6965 -0.8222
   30MOL   H28435142   6.447   4.095   2.508 -0.8219  0.2505  0.9180
   30MOL   H28535143   6.312   4.001   2.559  0.1260 -2.2428 -2.7534
   30MOL   H28635144   6.490   4.154   2.923 -1.4623  0.1805  2.5031
   30MOL   H28735145   6.485   3.985   2.960 -0.3823 -0.5413  2.3488
   30MOL   H28835146   6.381   4.081   3.150  1.3235  0.1141 -1.1332
   30MOL   H28935147   6.252   4.027   3.058  0.7346 -0.3161  0.5747
   30MOL   H29035148   6.240   4.265   2.939 -0.4012  2.4107  1.0061
   30MOL   H29135149   6.375   4.303   3.049 -1.8083  3.1019 -1.3778
   30MOL   H29235150   6.211   4.231   3.239  0.1252  2.0092  0.2908
   30MOL   H29335151   6.088   4.206   3.119  0.6071 -1.1110 -0.1509
   30MOL   H29435152   6.107   4.433   3.263  0.3120 -0.2489 -0.5133
   30MOL   H29535153   6.232   4.470   3.141 -0.3865  0.2436 -1.1670
   30MOL   H29635154   6.031   4.403   2.966  0.4287 -1.5011  0.7052
   30MOL   H29735155   5.940   4.416   3.123 -1.1559  1.8167 -0.7094
   30MOL   H29835156   6.089   4.629   2.965 -1.2145 -1.3156 -1.9907
   30MOL   H29935157   6.024   4.657   3.129  1.1176  1.1495 -0.1778
   30MOL   H30035158   5.893   4.754   2.964 -1.6373 -0.0482  0.2065
   30MOL   H30135159   5.849   4.602   2.891  1.7136  0.6885 -1.4164
   30MOL   O30235160   5.657   4.642   3.025  0.4903 -0.2085  0.3277
   30MOL   C30335161   5.542   4.605   3.092 -0.3051  0.3921 -0.7383
   30MOL   C30435162   5.432   4.691   3.038  0.0761  0.1777  0.5294
   30MOL   C30535163   5.417   4.684   2.877 -0.5494 -0.6134 -0.7244
   30MOL   C30635164   5.305   4.772   2.827  0.2875  0.5846  0.2686
   30MOL   C30735165   5.277   4.761   2.675  0.1481 -0.5455 -0.0817
   30MOL   C30835166   5.372   4.830   2.580 -0.2602  0.2318 -0.3129
   30MOL   C30935167   5.361   4.778   2.441 -0.0155  0.4740  0.1396
   30MOL   C31035168   5.468   4.842   2.351  0.0331 -0.9802 -0.3830
   30MOL   C31135169   5.451   4.795   2.210 -0.9824  0.1570 -1.0583
   30MOL   C31235170   5.558   4.844   2.112 -0.0839  0.2982 -0.1457
   30MOL   O31335171   5.563   4.990   2.089 -0.0273 -0.2826 -0.1338
   30MOL   C31435172   5.681   5.062   2.094  0.2949  0.6008 -0.5254
   30MOL   O31535173   5.793   5.012   2.122  0.5720  0.1519  0.5768
   30MOL   C31635174   5.665   5.211   2.059  0.5510 -0.3366  0.3812
   30MOL   C31735175   5.703   5.253   1.919 -0.4530 -0.4798  0.9473
   30MOL   C31835176   5.652   5.171   1.803  0.3345  0.2227  0.1327
   30MOL   C31935177   5.680   5.229   1.662 -0.4451 -0.0638 -0.2248
   30MOL   C32035178   5.615   5.150   1.545  0.1690  0.7694 -0.0428
   30MOL   C32135179   5.634   5.209   1.406  0.2869 -0.3516  0.0401
   30MOL   C32235180   5.567   5.141   1.288  0.2419  0.1186 -0.2115
   30MOL   C32335181   5.562   5.206   1.149  0.2378 -0.7224 -0.5159
   30MOL   C32435182   5.693   5.187   1.074 -0.1365 -0.2289  0.2948
   30MOL   O32535183   5.735   5.077   1.040 -0.5247 -0.0945  0.4406
   30MOL   H32635184   5.516   4.500   3.082 -1.1074  0.5778 -0.5961
   30MOL   H32735185   5.536   4.607   3.201 -0.9352  0.1992 -0.7690
   30MOL   H32835186   5.334   4.675   3.083 -0.5960 -0.0590 -0.9912
   30MOL   H32935187   5.455   4.794   3.066  3.4411 -0.1267 -0.9269
   30MOL   H33035188   5.515   4.689   2.829 -0.6786 -1.6709 -1.1000
   30MOL   H33135189   5.378   4.584   2.861  1.8578 -1.3209 -2.5231
   30MOL   H33235190   5.207   4.751   2.869 -0.1507  1.8026 -0.1381
   30MOL   H33335191   5.332   4.874   2.854  2.2281 -0.5789  2.9999
   30MOL   H33435192   5.183   4.813   2.657 -0.8509 -1.5712  2.0042
   30MOL   H33535193   5.280   4.656   2.643 -2.1479 -0.2562 -1.3372
   30MOL   H33635194   5.475   4.812   2.610 -1.3375 -2.4869  1.9570
   30MOL   H33735195   5.342   4.934   2.585 -1.2036 -0.0044 -0.8403
   30MOL   H33835196   5.262   4.798   2.400  0.7379 -2.2653 -3.2953
   30MOL   H33935197   5.372   4.670   2.457 -0.6157 -0.0249 -2.5527
   30MOL   H34035198   5.566   4.823   2.393  1.1811 -0.3189 -2.6696
   30MOL   H34135199   5.456   4.951   2.348  0.2989 -0.9319  0.2394
   30MOL   H34235200   5.462   4.687   2.213  0.6408  0.3611  2.7897
   30MOL   H34335201   5.353   4.818   2.168 -0.7945 -0.4187 -1.8358
   30MOL   H34435202   5.653   4.804   2.148  0.0237  0.3021 -0.4215
   30MOL   H34535203   5.542   4.810   2.010  2.2318 -1.1046 -0.0703
   30MOL   H34635204   5.728   5.271   2.124  2.2562 -1.5833 -0.0772
   30MOL   H34735205   5.561   5.231   2.087  0.1548 -1.8560  0.0341
   30MOL   H34835206   5.811   5.250   1.902 -0.9714 -0.0186 -3.0895
   30MOL   H34935207   5.680   5.359   1.904 -2.6785 -1.1605 -0.7226
   30MOL   H35035208   5.543   5.169   1.805  0.3457 -1.1027 -0.1755
   30MOL   H35135209   5.684   5.067   1.809  0.6041  0.3187  0.3333
   30MOL   H35235210   5.785   5.236   1.632  0.2369 -2.0959  1.6263
   30MOL   H35335211   5.650   5.334   1.654 -2.3274 -0.7296 -2.1836
   30MOL   H35435212   5.654   5.048   1.549  1.0245  1.0651 -0.5702
   30MOL   H35535213   5.508   5.141   1.559  0.2106 -1.2433 -0.8768
   30MOL   H35635214   5.582   5.304   1.417 -0.9306 -1.0920  0.7879
   30MOL   H35735215   5.740   5.224   1.387 -0.1329  0.7924 -1.4564
   30MOL   H35835216   5.461   5.136   1.313  0.0369  2.0609 -0.6203
   30MOL   H35935217   5.584   5.033   1.289  1.1328  0.2443 -1.3812
   30MOL   H36035218   5.489   5.148   1.092 -2.4633  1.1108  0.9778
   30MOL   H36135219   5.532   5.310   1.150 -0.2651 -0.8691  0.1981
   30MOL   O36235220   5.760   5.304   1.063  0.0565 -0.3124  0.2151
   30MOL   C36335221   5.869   5.310   0.976  0.0530  0.1054  0.2117
   30MOL   C36435222   5.987   5.249   1.057 -0.0855 -0.5154  0.2304
   30MOL   C36535223   6.034   5.338   1.172  0.1699  1.4979 -0.4566
   30MOL   C36635224   6.150   5.271   1.243 -0.2804 -0.5444  0.0787
   30MOL   C36735225   6.205   5.338   1.373 -0.4033 -0.4440 -0.3548
   30MOL   C36835226   6.317   5.262   1.438  0.4689 -0.6232  0.3266
   30MOL   C36935227   6.394   5.327   1.555 -0.1107  0.3693  0.6012
   30MOL   C37035228   6.432   5.475   1.528 -0.2039 -0.2071  0.0642
   30MOL   C37135229   6.537   5.529   1.620 -0.7273 -0.0405  0.0867
   30MOL   C37235230   6.540   5.679   1.602 -0.2920  0.0703 -0.1538
   30MOL   O37335231   6.648   5.746   1.668 -0.2836 -0.0872 -0.4163
   30MOL   C37435232   6.770   5.743   1.625 -0.1009  0.1794  0.0948
   30MOL   O37535233   6.801   5.685   1.522  0.3186 -0.3970  0.3239
   30MOL   C37635234   6.872   5.804   1.707 -0.0332  0.2902 -0.2757
   30MOL   C37735235   6.848   5.931   1.787  0.8710  0.4009 -0.2975
   30MOL   C37835236   6.972   5.974   1.875 -0.3134 -0.0380 -0.4209
   30MOL   C37935237   6.934   6.060   2.001 -0.2016 -0.0473  0.2857
   30MOL   C38035238   7.051   6.136   2.063 -0.1995  1.2278  0.0192
   30MOL   C38135239   7.011   6.205   2.196 -0.2530 -0.7180  0.4228
   30MOL   C38235240   7.124   6.293   2.235  0.1740 -0.3213 -0.6670
   30MOL   C38335241   7.108   6.358   2.368  0.1420  0.0983 -0.0807
   30MOL   C38435242   7.001   6.462   2.370 -0.9204 -0.3309  0.1708
   30MOL   O38535243   7.005   6.565   2.300 -0.5474 -0.0819 -0.1825
   30MOL   H38635244   5.841   5.258   0.884 -0.2135  1.1671 -0.3152
   30MOL   H38735245   5.890   5.412   0.946 -2.1286  0.2147 -0.9820
   30MOL   H38835246   5.966   5.142   1.066 -2.8741 -0.0829 -0.4927
   30MOL   H38935247   6.063   5.259   0.979  1.0415  0.6628  1.4670
   30MOL   H39035248   6.067   5.438   1.144  1.3747  1.7803  1.8648
   30MOL   H39135249   5.953   5.350   1.243 -0.9723 -0.7972 -1.2935
   30MOL   H39235250   6.130   5.166   1.266  1.4316 -0.9831 -0.3446
   30MOL   H39335251   6.239   5.269   1.181 -1.0792  0.2111 -1.0929
   30MOL   H39435252   6.121   5.346   1.442  1.6470  1.8489  1.9748
   30MOL   H39535253   6.223   5.444   1.360  0.7659 -0.3745  1.6579
   30MOL   H39635254   6.395   5.228   1.369  0.3738  0.0719 -0.1357
   30MOL   H39735255   6.274   5.166   1.465 -0.9322 -0.0757  0.0794
   30MOL   H39835256   6.491   5.281   1.571  0.1139  1.4102  2.4160
   30MOL   H39935257   6.330   5.322   1.643 -1.1391  1.2371 -0.0729
   30MOL   H40035258   6.344   5.539   1.538 -0.1592 -0.4041  1.8104
   30MOL   H40135259   6.467   5.488   1.426 -0.2186 -1.1448 -0.0700
   30MOL   H40235260   6.506   5.505   1.721  1.1893 -0.9912  0.4600
   30MOL   H40335261   6.632   5.477   1.609  0.0697  1.1189  1.3724
   30MOL   H40435262   6.538   5.693   1.494  0.6764  1.6560  0.0137
   30MOL   H40535263   6.439   5.714   1.625 -0.2396 -0.2459  0.5487
   30MOL   H40635264   6.952   5.805   1.633  1.3906  0.8792  1.2661
   30MOL   H40735265   6.904   5.728   1.778 -1.3523  0.2740  0.3127
   30MOL   H40835266   6.763   5.919   1.856  1.9146 -0.5277  0.8594
   30MOL   H40935267   6.820   6.007   1.714 -0.4424  0.0543 -0.1725
   30MOL   H41035268   7.042   6.032   1.814 -0.4372  0.4921 -0.0682
   30MOL   H41135269   7.009   5.879   1.914 -1.0330  0.3959  1.3311
   30MOL   H41235270   6.897   5.991   2.076 -1.1209 -0.5329 -0.6092
   30MOL   H41335271   6.849   6.121   1.971 -0.3270 -1.0296 -1.4041
   30MOL   H41435272   7.133   6.067   2.081 -2.5360 -1.8721 -0.8462
   30MOL   H41535273   7.097   6.204   1.990 -1.1363  0.5515 -1.2257
   30MOL   H41635274   6.920   6.264   2.182 -0.4652 -1.2407 -0.4534
   30MOL   H41735275   6.995   6.126   2.269 -2.7038 -0.7336 -0.0817
   30MOL   H41835276   7.137   6.368   2.157 -1.1928  0.6593  0.0357
   30MOL   H41935277   7.210   6.225   2.239  0.8286  0.4918 -0.8191
   30MOL   H42035278   7.096   6.280   2.443 -3.1561 -0.9907 -1.6296
   30MOL   H42135279   7.203   6.407   2.390  0.1877  1.1478 -2.4260
   30MOL   O42235280   6.904   6.441   2.452 -0.6726  0.0564 -0.0936
   30MOL   C42335281   6.784   6.525   2.457 -0.1317 -0.3594 -0.0063
   30MOL   C42435282   6.671   6.482   2.356  0.2244 -0.2467  0.0893
   30MOL   C42535283   6.668   6.329   2.327 -0.3347  0.6225 -0.5088
   30MOL   C42635284   6.596   6.297   2.195 -0.2681 -0.4333 -0.0093
   30MOL   C42735285   6.588   6.146   2.159  0.5901  0.2159  0.5407
   30MOL   C42835286   6.493   6.124   2.038 -0.0906  0.1823  0.8223
   30MOL   C42935287   6.477   5.975   2.008 -0.2795  0.0624 -0.5144
   30MOL   C43035288   6.398   5.958   1.875 -0.5106  0.1770  0.8406
   30MOL   C43135289   6.252   6.016   1.881  0.4490 -0.2300  0.3124
   30MOL   C43235290   6.162   5.981   1.758 -0.4079 -0.3360  0.6263
   30MOL   O43335291   6.047   6.063   1.736  0.0959 -0.0862 -0.0798
   30MOL   C43435292   6.055   6.170   1.645 -0.2871  0.6919  0.4389
   30MOL   O43535293   6.163   6.209   1.595 -0.3475 -0.2881 -0.2708
   30MOL   C43635294   5.923   6.248   1.625  0.1390  0.3910 -0.3959
   30MOL   C43735295   5.927   6.352   1.506  0.6791  0.9435 -0.3858
   30MOL   C43835296   5.903   6.277   1.375  0.2208 -0.3722 -0.3280
   30MOL   C43935297   5.757   6.227   1.344 -0.1634  0.0482  0.2911
   30MOL   C44035298   5.740   6.155   1.206 -0.6506  0.3889  0.2721
   30MOL   C44135299   5.682   6.255   1.097 -0.2564  0.8194 -0.7119
   30MOL   C44235300   5.642   6.173   0.968 -0.1344 -0.3461 -0.5593
   30MOL   C44335301   5.493   6.115   0.970  0.1968  0.0821  0.3717
   30MOL   C44435302   5.400   6.201   0.885  0.1786 -0.1420  0.0459
   30MOL   O44535303   5.306   6.264   0.934 -0.4162 -0.0497 -0.0168
   30MOL   H44635304   6.751   6.516   2.560  2.1767 -0.8341  0.7286
   30MOL   H44735305   6.802   6.630   2.436  0.9298 -0.8763 -1.8030
   30MOL   H44835306   6.570   6.521   2.365  0.0698 -0.4323 -0.7975
   30MOL   H44935307   6.683   6.536   2.262 -2.0683  0.0835 -0.0323
   30MOL   H45035308   6.768   6.285   2.327  0.3943  2.2276 -0.4449
   30MOL   H45135309   6.631   6.265   2.407  0.9901 -1.2504 -1.3408
   30MOL   H45235310   6.496   6.341   2.190 -1.0475 -1.6242  3.6543
   30MOL   H45335311   6.654   6.355   2.124  0.2497 -2.4201 -1.2465
   30MOL   H45435312   6.540   6.100   2.245 -0.1268  3.0542  1.7299
   30MOL   H45535313   6.678   6.090   2.134 -0.6426 -1.8481  0.5925
   30MOL   H45635314   6.535   6.167   1.948  2.5707 -0.3086  1.8004
   30MOL   H45735315   6.397   6.168   2.066 -0.5503 -0.8398  0.8913
   30MOL   H45835316   6.417   5.924   2.083 -2.3109  2.7475 -0.2247
   30MOL   H45935317   6.574   5.926   1.996 -0.6667 -0.5600 -1.1428
   30MOL   H46035318   6.403   5.853   1.844  0.3333  0.2749  0.6265
   30MOL   H46135319   6.452   6.018   1.802  1.5887  0.1350  2.3288
   30MOL   H46235320   6.198   5.995   1.973 -0.2436 -0.2823 -0.1007
   30MOL   H46335321   6.270   6.123   1.891 -0.9110  0.0162  0.2882
   30MOL   H46435322   6.229   5.992   1.672  0.2102 -2.1251  0.8597
   30MOL   H46535323   6.124   5.879   1.748  1.6339 -0.9925 -0.7592
   30MOL   H46635324   5.902   6.304   1.716  0.8936 -0.9507  0.6340
   30MOL   H46735325   5.841   6.181   1.601 -1.3473  2.9248 -2.7229
   30MOL   H46835326   6.027   6.394   1.496  0.6697  0.9537 -0.4362
   30MOL   H46935327   5.858   6.436   1.515  0.4575  0.6064  1.1701
   30MOL   H47035328   5.980   6.203   1.355  0.1822 -0.5684  0.2416
   30MOL   H47135329   5.910   6.354   1.298 -3.5441 -0.1899 -0.5747
   30MOL   H47235330   5.680   6.304   1.352 -1.0917 -0.7797 -0.4344
   30MOL   H47335331   5.739   6.152   1.421 -1.5200  1.8738  1.8059
   30MOL   H47435332   5.835   6.108   1.183  0.5434  2.1501  1.5370
   30MOL   H47535333   5.672   6.072   1.225  1.7630 -2.1159 -1.6342
   30MOL   H47635334   5.602   6.307   1.150  2.1443  2.1608  1.7135
   30MOL   H47735335   5.739   6.346   1.078  1.9927 -0.7300 -1.5322
   30MOL   H47835336   5.708   6.088   0.952  0.9518  0.3580  0.0941
   30MOL   H47935337   5.663   6.235   0.881 -1.9867  1.9001  0.5590
   30MOL   H48035338   5.499   6.008   0.949  0.7241  0.0576  0.6336
   30MOL   H48135339   5.466   6.116   1.076 -0.7950  0.9785  0.1142
   30MOL   O48235340   5.433   6.204   0.753  0.7913 -0.0394  0.0220
   30MOL   C48335341   5.373   6.304   0.671  0.0289  0.3415 -0.0568
   30MOL   C48435342   5.387   6.283   0.517 -1.1432  0.8013  0.5277
   30MOL   C48535343   5.511   6.199   0.490 -0.0473 -0.4906 -0.2301
   30MOL   C48635344   5.534   6.171   0.339 -0.0300 -0.7822 -0.3596
   30MOL   C48735345   5.675   6.108   0.319  0.6490 -0.0232  0.3745
   30MOL   C48835346   5.708   6.088   0.168 -0.1052 -0.6957  1.0429
   30MOL   C48935347   5.842   6.023   0.127 -0.5447  0.1779 -0.6717
   30MOL   C49035348   5.853   6.000   7.732  0.0138 -0.1276  0.0589
   30MOL   C49135349   5.965   5.910   7.698  0.1131 -0.0743 -0.7435
   30MOL   C49235350   5.986   5.881   7.544 -0.3894 -0.6233  0.2042
   30MOL   O49335351   5.870   5.825   7.483  0.1958  0.0902  0.2542
   30MOL   C49435352   5.787   5.904   7.407 -0.0720  1.0104  0.2397
   30MOL   O49535353   5.798   6.029   7.391 -0.0341  0.4151  0.4868
   30MOL   C49635354   5.684   5.820   7.334 -0.3051  0.0940  0.5232
   30MOL   C49735355   5.741   5.707   7.246 -0.0476 -0.1249 -0.3298
   30MOL   C49835356   5.822   5.745   7.119 -0.2395 -0.3315 -0.0123
   30MOL   C49935357   5.731   5.808   7.016 -0.1898 -0.0031 -0.4340
   30MOL   C50035358   5.808   5.851   6.890 -0.2352 -0.0580 -0.3181
   30MOL   C50135359   5.735   5.947   6.798 -0.2707 -0.1611 -0.2548
   30MOL   C50235360   5.807   5.962   6.658 -0.2190  0.1923  0.1894
   30MOL   C50335361   5.737   6.069   6.572  0.3269 -0.0883 -0.0793
   30MOL   C50435362   5.787   6.209   6.589 -0.1769 -0.8019 -0.0423
   30MOL   O50535363   5.712   6.301   6.634 -0.3380 -0.0394  0.1289
   30MOL   H50635364   5.270   6.310   0.706 -0.1072 -1.2401 -0.1347
   30MOL   H50735365   5.420   6.398   0.700 -0.7033  0.5951  0.3300
   30MOL   H50835366   5.301   6.220   0.495 -0.5965  0.1314  0.2890
   30MOL   H50935367   5.386   6.373   0.455 -0.5260 -0.8060 -1.9137
   30MOL   H51035368   5.598   6.262   0.511 -0.0043 -1.0625  1.3875
   30MOL   H51135369   5.517   6.108   0.549 -3.1228  0.1086  1.0814
   30MOL   H51235370   5.458   6.101   0.305 -2.3125  1.0902  0.8235
   30MOL   H51335371   5.537   6.264   0.282 -0.8592 -0.8239 -0.4665
   30MOL   H51435372   5.666   6.015   0.375  0.2742 -1.3355 -1.8185
   30MOL   H51535373   5.757   6.150   0.377 -0.2515 -0.4958  2.0060
   30MOL   H51635374   5.691   6.180   0.111  0.2286 -0.8784  0.6468
   30MOL   H51735375   5.635   6.023   0.122 -2.3601  1.9456  0.7509
   30MOL   H51835376   5.855   5.934   0.189 -0.0705  0.5288 -0.2575
   30MOL   H51935377   5.920   6.095   0.155 -1.9754  1.3174  0.4390
   30MOL   H52035378   5.857   6.098   7.683 -1.9584 -0.3622 -0.6038
   30MOL   H52135379   5.756   5.972   7.693 -0.8140  3.2536 -0.4781
   30MOL   H52235380   6.051   5.961   7.741  0.9825 -1.3765 -0.9369
   30MOL   H52335381   5.950   5.813   7.744  2.8641  0.4285  1.3002
   30MOL   H52435382   6.031   5.967   7.494 -0.2361 -1.4973 -1.2157
   30MOL   H52535383   6.071   5.813   7.538  0.1432  0.2292 -2.5610
   30MOL   H52635384   5.614   5.877   7.273  0.2847 -1.6571 -1.8485
   30MOL   H52735385   5.623   5.768   7.408  0.0825  0.1199  0.8577
   30MOL   H52835386   5.656   5.644   7.220 -0.4000 -0.1564  0.8646
   30MOL   H52935387   5.809   5.651   7.310  3.8702  3.5890 -0.9427
   30MOL   H53035388   5.881   5.659   7.086 -0.1298  0.0814 -0.9304
   30MOL   H53135389   5.890   5.825   7.145 -0.2605  0.0567 -1.1062
   30MOL   H53235390   5.665   5.887   7.051 -1.8980 -1.5351 -0.0775
   30MOL   H53335391   5.650   5.744   6.981 -0.1515 -0.2909  0.0000
   30MOL   H53435392   5.906   5.890   6.914  0.2935  0.3732 -2.9998
   30MOL   H53535393   5.818   5.752   6.846  0.9298  0.7142 -1.8387
   30MOL   H53635394   5.632   5.910   6.795 -0.3403 -0.2298  2.4075
   30MOL   H53735395   5.719   6.047   6.837  0.7585  0.2949 -1.0020
   30MOL   H53835396   5.803   5.874   6.593 -0.8456  0.9905 -0.8641
   30MOL   H53935397   5.911   5.977   6.686 -0.5944 -0.4526  1.9938
   30MOL   H54035398   5.745   6.038   6.468 -3.2320 -1.3607 -0.0492
   30MOL   H54135399   5.628   6.070   6.584  0.5583  3.2274  2.5182
   30MOL   O54235400   5.906   6.229   6.538  0.0041 -0.6812  0.3080
   30MOL   C54335401   5.971   6.347   6.557 -0.7019 -1.1129 -0.5032
   30MOL   C54435402   6.081   6.350   6.446  0.4017  0.0748  0.1326
   30MOL   C54535403   6.184   6.461   6.468  0.3207  0.4184  0.1591
   30MOL   C54635404   6.128   6.605   6.441 -0.8416 -0.5747  0.2489
   30MOL   C54735405   6.244   6.702   6.393  0.2054 -0.3151 -0.0331
   30MOL   C54835406   6.224   6.850   6.425 -0.1413 -0.0572  0.5201
   30MOL   C54935407   6.122   6.922   6.343 -0.0370  0.2520 -0.3215
   30MOL   C55035408   6.097   7.062   6.400  0.0439  0.0257  0.1534
   30MOL   C55135409   5.979   7.126   6.327 -0.7805  0.0531 -0.1983
   30MOL   C55235410   5.948   7.269   6.364  0.4455  0.0133  0.1389
   30MOL   O55335411   5.854   7.338   6.284  0.4474 -0.4021  0.2580
   30MOL   C55435412   5.810   7.458   6.310  0.4157  0.3928 -0.5187
   30MOL   O55535413   5.857   7.544   6.380 -0.2590 -0.4799  0.0750
   30MOL   C55635414   5.688   7.496   6.222 -0.2698 -0.4709 -0.6093
   30MOL   C55735415   5.566   7.414   6.261  0.1114  0.4401 -0.1540
   30MOL   C55835416   5.462   7.408   6.148 -0.2095 -0.2089  0.3049
   30MOL   C55935417   5.365   7.296   6.183 -0.0361 -0.1257 -1.2132
   30MOL   C56035418   5.238   7.306   6.104 -0.3270 -0.0857  0.0356
   30MOL   C56135419   5.253   7.303   5.945  0.6716  0.0536  0.2253
   30MOL   C56235420   5.118   7.293   5.873 -0.4044  0.2462 -0.1059
   30MOL   C56335421   5.151   7.266   5.725  0.1784  0.3741 -0.6407
   30MOL   C56435422   5.118   7.123   5.687 -0.9474  0.0178 -0.0424
   30MOL   O56535423   5.204   7.045   5.646 -0.0638  0.3720  0.6588
   30MOL   H56635424   5.904   6.430   6.534 -1.0250 -0.6377  2.0966
   30MOL   H56735425   6.006   6.369   6.657  2.4120  2.2291 -2.2184
   30MOL   H56835426   6.140   6.258   6.437 -0.3285 -0.9581  4.5700
   30MOL   H56935427   6.029   6.361   6.351 -0.2406 -0.6959  0.3800
   30MOL   H57035428   6.228   6.447   6.566  0.9785  0.0743 -0.1819
   30MOL   H57135429   6.271   6.449   6.403 -0.4334 -0.5475 -0.6701
   30MOL   H57235430   6.033   6.604   6.386 -0.1855 -2.6762 -0.9058
   30MOL   H57335431   6.093   6.650   6.534 -1.9911 -0.3756 -0.2714
   30MOL   H57435432   6.259   6.687   6.286 -0.6522  0.8955 -0.3313
   30MOL   H57535433   6.342   6.680   6.435  0.0307  2.1580  1.7731
   30MOL   H57635434   6.319   6.896   6.398 -0.3206  0.0623  0.0802
   30MOL   H57735435   6.213   6.869   6.532  1.6107 -1.6327  1.0037
   30MOL   H57835436   6.031   6.862   6.351  0.4546 -0.3599  0.9012
   30MOL   H57935437   6.145   6.920   6.237 -0.3095 -0.2550 -0.3737
   30MOL   H58035438   6.181   7.129   6.377  1.5940 -1.7752  0.4900
   30MOL   H58135439   6.082   7.067   6.508  2.0264 -0.8163  0.4892
   30MOL   H58235440   6.016   7.106   6.227  0.3298  0.6080  0.0912
   30MOL   H58335441   5.898   7.062   6.362 -0.2714 -0.9558 -0.8437
   30MOL   H58435442   5.908   7.266   6.466  0.5593  0.1737  0.1892
   30MOL   H58535443   6.041   7.327   6.363 -0.6487  1.7942 -0.3703
   30MOL   H58635444   5.728   7.478   6.122 -0.9035 -0.7415 -0.8162
   30MOL   H58735445   5.672   7.603   6.225 -1.9378 -0.7476  1.8238
   30MOL   H58835446   5.517   7.458   6.347 -1.1368 -1.0084 -0.1047
   30MOL   H58935447   5.588   7.315   6.302 -0.3157  0.5745  0.3975
   30MOL   H59035448   5.507   7.391   6.050 -0.1747  0.3134  0.2318
   30MOL   H59135449   5.411   7.503   6.151  2.2725  1.2390 -1.2810
   30MOL   H59235450   5.338   7.317   6.286  0.2828 -1.7111 -0.7875
   30MOL   H59335451   5.422   7.203   6.179  0.5102  0.1616 -0.2255
   30MOL   H59435452   5.171   7.224   6.132  1.6086 -1.3256  1.1365
   30MOL   H59535453   5.198   7.406   6.121  1.2876  0.5102  0.3701
   30MOL   H59635454   5.308   7.388   5.905  1.7429 -0.8808 -0.3205
   30MOL   H59735455   5.322   7.225   5.912  0.2814 -0.6125  0.9736
   30MOL   H59835456   5.064   7.387   5.886 -0.0583  0.3697  0.4699
   30MOL   H59935457   5.056   7.213   5.911 -0.6759  0.7148  0.4495
   30MOL   H60035458   5.088   7.335   5.668  0.5188  1.6048  0.4690
   30MOL   H60135459   5.257   7.288   5.712  0.9875 -3.1658 -0.4030
   30MOL   O60235460   4.989   7.094   5.695 -0.0906 -0.0290 -0.3416
   30MOL   C60335461   4.946   6.963   5.656  0.0709  0.6286 -0.0805
   30MOL   C60435462   4.956   6.867   5.783  0.2387  0.5991  0.2557
   30MOL   C60535463   4.866   6.909   5.895  0.7791  0.4110 -0.2006
   30MOL   C60635464   4.912   6.838   6.025  0.6680  0.3556 -0.2980
   30MOL   C60735465   4.845   6.877   6.158  0.1704 -0.3156 -0.1482
   30MOL   C60835466   4.940   6.861   6.271  0.3111 -0.2640 -0.0822
   30MOL   C60935467   5.044   6.974   6.279  0.5853 -0.5747  0.3746
   30MOL   C61035468   5.138   6.973   6.398 -0.6191 -0.7467 -0.2238
   30MOL   C61135469   5.237   7.087   6.381 -0.1839 -0.4133 -0.4659
   30MOL   C61235470   5.333   7.104   6.501 -0.7014  0.2259  0.4337
   30MOL   O61335471   5.412   7.224   6.508 -0.4063 -0.1378  0.3996
   30MOL   C61435472   5.486   7.248   6.619  0.6788  0.2321  0.2477
   30MOL   O61535473   5.515   7.168   6.709 -0.0547 -0.8030 -0.0579
   30MOL   C61635474   5.556   7.387   6.620  0.1195  0.8255  0.4548
   30MOL   C61735475   5.639   7.409   6.739 -0.4153  0.1838  0.7618
   30MOL   C61835476   5.721   7.545   6.726  0.2316  0.1911 -0.4798
   30MOL   C61935477   5.841   7.555   6.816  0.4460 -0.0980  0.6192
   30MOL   C62035478   5.959   7.468   6.773  0.7964  0.6433  0.8347
   30MOL   C62135479   6.075   7.449   6.881  0.2834 -0.2069  0.5955
   30MOL   C62235480   6.146   7.578   6.904  0.4186 -0.0007 -0.4121
   30MOL   C62335481   6.266   7.586   7.001 -0.7217 -0.1642  0.6836
   30MOL   C62435482   6.227   7.566   7.143  0.1630  0.0205 -0.1508
   30MOL   O62535483   6.256   7.464   7.199  0.1788  0.3592  0.3364
   30MOL   H62635484   4.844   6.985   5.624  1.0307  2.3103 -2.1529
   30MOL   H62735485   5.001   6.928   5.569  1.6213 -1.7780  1.8145
   30MOL   H62835486   4.944   6.765   5.748  0.4765  0.8141 -0.4514
   30MOL   H62935487   5.059   6.863   5.821  1.4868  0.4808 -2.9994
   30MOL   H63035488   4.869   7.014   5.924  0.1652  0.2093  0.5991
   30MOL   H63135489   4.762   6.884   5.870  0.5663 -0.6074  1.6256
   30MOL   H63235490   4.893   6.730   6.025 -0.3092  0.5170  0.6798
   30MOL   H63335491   5.020   6.844   6.030  0.6182  0.2422  1.2683
   30MOL   H63435492   4.755   6.819   6.179 -0.2106  0.7963  1.3252
   30MOL   H63535493   4.825   6.984   6.159  1.8743  0.0027  1.0709
   30MOL   H63635494   4.987   6.763   6.277 -0.9926 -0.9376 -0.5564
   30MOL   H63735495   4.882   6.857   6.363 -1.6386  0.2681 -1.2497
   30MOL   H63835496   4.989   7.067   6.263  0.8726 -0.7984 -2.0375
   30MOL   H63935497   5.101   6.954   6.189  0.8754  0.4975  0.3129
   30MOL   H64035498   5.191   6.878   6.392 -0.1127 -0.3879 -1.7692
   30MOL   H64135499   5.086   6.977   6.494  1.0316 -0.3711  0.6970
   30MOL   H64235500   5.300   7.068   6.295 -0.8233 -1.3548 -0.7347
   30MOL   H64335501   5.183   7.182   6.375  0.9589  0.2616 -0.3244
   30MOL   H64435502   5.287   7.093   6.600  2.6431 -1.4950  1.8662
   30MOL   H64535503   5.398   7.018   6.486  0.0715  1.1190 -1.4931
   30MOL   H64635504   5.480   7.464   6.607  1.9130  2.1910 -2.4104
   30MOL   H64735505   5.625   7.391   6.536  2.9743  1.8344  2.7553
   30MOL   H64835506   5.708   7.326   6.752 -1.7109 -0.5967  2.9958
   30MOL   H64935507   5.581   7.410   6.831 -0.5868 -0.0216  0.6557
   30MOL   H65035508   5.652   7.626   6.751  1.1088  1.0456 -0.7696
   30MOL   H65135509   5.773   7.554   6.631  1.1771  0.4258  0.0517
   30MOL   H65235510   5.812   7.526   6.917 -0.5027 -1.4108 -0.0174
   30MOL   H65335511   5.875   7.657   6.836  2.0343 -0.3933 -0.5067
   30MOL   H65435512   5.930   7.366   6.750  1.4940  0.2769  1.5141
   30MOL   H65535513   6.017   7.505   6.688  0.1695 -3.4646 -1.5513
   30MOL   H65635514   6.026   7.402   6.967  1.5685 -0.4967  1.1745
   30MOL   H65735515   6.142   7.374   6.841  0.2398 -0.4275  0.9368
   30MOL   H65835516   6.072   7.652   6.937  0.8171 -0.1893  0.9514
   30MOL   H65935517   6.178   7.619   6.808 -2.3354 -0.8685 -1.7517
   30MOL   H66035518   6.349   7.521   6.975 -1.1535 -0.4294 -0.0629
   30MOL   H66135519   6.305   7.687   6.988  2.8278 -1.3510  1.7692
   30MOL   O66235520   6.147   7.660   7.195 -0.2884  0.5914 -0.6221
   30MOL   C66335521   6.078   7.632   7.311  0.0606 -0.2628 -0.5437
   30MOL   C66435522   5.926   7.611   7.281  0.3743  0.6081 -0.4301
   30MOL   C66535523   5.886   7.476   7.227 -0.1732  0.2811  0.4041
   30MOL   C66635524   5.731   7.454   7.237  0.5754 -0.1410 -0.6648
   30MOL   C66735525   5.691   7.323   7.177  0.2674  0.2239 -0.6381
   30MOL   C66835526   5.544   7.301   7.162 -0.6435 -0.2358 -0.3472
   30MOL   C66935527   5.450   7.413   7.107 -0.9506  0.4242 -0.1932
   30MOL   C67035528   5.300   7.364   7.089 -0.0196  0.0158  0.0364
   30MOL   C67135529   5.285   7.231   7.013  0.6777 -0.2058  0.2531
   30MOL   C67235530   5.150   7.213   6.944  0.3079 -0.8889 -0.0515
   30MOL   O67335531   5.116   7.328   6.863 -0.3499  0.1773  0.0555
   30MOL   C67435532   5.098   7.307   6.731 -0.1386 -0.2646 -0.3673
   30MOL   O67535533   5.080   7.199   6.673  0.0660 -0.3122  0.6536
   30MOL   C67635534   5.076   7.446   6.673 -0.1408  0.0430 -0.5196
   30MOL   C67735535   5.090   7.467   6.525 -0.0630  0.1776  0.3106
   30MOL   C67835536   4.957   7.422   6.464 -0.1184 -0.1934 -0.0295
   30MOL   C67935537   4.951   7.447   6.316  0.4744 -0.8495 -0.1990
   30MOL   C68035538   4.819   7.394   6.243 -0.0320  0.1040 -0.1244
   30MOL   C68135539   4.833   7.391   6.093 -0.0320 -0.0016  0.5478
   30MOL   C68235540   4.700   7.349   6.026  0.2359  0.2785 -0.9305
   30MOL   C68335541   4.700   7.352   5.868  0.1711  0.0694  0.4071
   30MOL   C68435542   4.604   7.244   5.823 -0.1043  0.0078 -0.1591
   30MOL   O68535543   4.641   7.124   5.801  0.3938  0.4268 -0.0804
   30MOL   H68635544   6.122   7.558   7.378  0.8722 -0.1491 -0.9394
   30MOL   H68735545   6.093   7.724   7.367  1.5235 -0.6559 -0.2483
   30MOL   H68835546   5.880   7.640   7.376 -1.9681 -2.4049 -0.5678
   30MOL   H68935547   5.904   7.689   7.207  2.4474 -0.7428 -2.5345
   30MOL   H69035548   5.914   7.466   7.123  0.1019 -0.4042  0.5413
   30MOL   H69135549   5.939   7.391   7.270 -3.3615 -2.7721 -1.4314
   30MOL   H69235550   5.689   7.471   7.336  1.6615 -0.3083 -0.1637
   30MOL   H69335551   5.681   7.537   7.187  2.6413  1.9177  0.5827
   30MOL   H69435552   5.735   7.238   7.230  4.7803  2.3576 -0.7436
   30MOL   H69535553   5.735   7.316   7.078  0.0216  2.1810 -0.8979
   30MOL   H69635554   5.504   7.274   7.260 -0.7200 -0.6544 -0.4944
   30MOL   H69735555   5.530   7.210   7.105  1.5414 -1.2922  0.7351
   30MOL   H69835556   5.478   7.450   7.009 -1.4302  0.2697 -0.3866
   30MOL   H69935557   5.451   7.505   7.165 -0.8077  0.3898 -0.1398
   30MOL   H70035558   5.236   7.447   7.057 -0.6445  0.2838  1.9001
   30MOL   H70135559   5.256   7.340   7.186  0.5029  1.1403  0.5669
   30MOL   H70235560   5.351   7.237   6.927  1.4437 -1.8833  0.7181
   30MOL   H70335561   5.323   7.145   7.068  0.3069 -0.7519 -0.3509
   30MOL   H70435562   5.140   7.115   6.897 -2.6659  0.3457 -2.1804
   30MOL   H70535563   5.072   7.202   7.019 -0.3938  3.0745 -0.0529
   30MOL   H70635564   5.151   7.512   6.716 -2.1195  0.7426  1.9683
   30MOL   H70735565   4.979   7.480   6.710 -0.3115  0.7487 -1.6307
   30MOL   H70835566   5.175   7.417   6.479 -1.0094 -1.9223  0.7601
   30MOL   H70935567   5.101   7.573   6.502  0.8709  0.0066 -0.0564
   30MOL   H71035568   4.868   7.463   6.512  0.6690  0.4324  0.9113
   30MOL   H71135569   4.941   7.319   6.496  2.5186 -0.4366  0.6523
   30MOL   H71235570   5.022   7.381   6.266  0.0880 -1.5909  0.2148
   30MOL   H71335571   4.979   7.547   6.285 -1.3163 -0.5809 -1.0430
   30MOL   H71435572   4.808   7.293   6.281  0.7292 -0.2299 -0.7746
   30MOL   H71535573   4.731   7.443   6.284 -0.4667 -0.8199  0.0490
   30MOL   H71635574   4.875   7.486   6.061 -1.4277  0.7209  0.8141
   30MOL   H71735575   4.909   7.316   6.073  1.0629  0.8090  1.6112
   30MOL   H71835576   4.621   7.422   6.044  1.9010  1.6990  0.8636
   30MOL   H71935577   4.669   7.252   6.064  0.3113  0.4150 -0.5217
   30MOL   H72035578   4.664   7.443   5.820  0.9443  1.0173  1.5965
   30MOL   H72135579   4.797   7.332   5.822  0.8351 -0.8969  2.1894
   30MOL   O72235580   4.480   7.289   5.810 -0.2300 -0.0923 -0.0821
   30MOL   C72335581   4.374   7.194   5.777 -1.1335  0.1648 -0.6142
   30MOL   C72435582   4.233   7.236   5.798  0.9619  0.0209 -0.1804
   30MOL   C72535583   4.201   7.376   5.740 -0.1584 -0.3434 -0.3813
   30MOL   C72635584   4.059   7.422   5.768 -0.2661 -0.5330  0.4267
   30MOL   C72735585   3.943   7.341   5.706 -0.6443  0.0596  0.0283
   30MOL   C72835586   3.804   7.415   5.707  0.0240  0.0836 -0.2533
   30MOL   C72935587   3.682   7.332   5.665 -0.5137 -0.2734  0.3687
   30MOL   C73035588   3.546   7.402   5.691 -0.5374 -0.1149 -0.7842
   30MOL   C73135589   3.430   7.307   5.685 -0.5581 -0.3987 -0.2869
   30MOL   C73235590   3.292   7.378   5.682  0.1865 -0.0312  0.3022
   30MOL   O73335591   3.186   7.280   5.674 -0.7404 -0.1607  0.0209
   30MOL   C73435592   3.134   7.226   5.782  0.5864 -0.4470 -0.3167
   30MOL   O73535593   3.168   7.251   5.898  0.2621 -0.6431 -0.1724
   30MOL   C73635594   3.016   7.142   5.743 -0.4347  0.1580  0.0984
   30MOL   C73735595   3.052   7.002   5.693  0.6126 -0.0130  0.3099
   30MOL   C73835596   3.071   6.905   5.813 -0.2869  0.4217  0.0040
   30MOL   C73935597   3.068   6.751   5.775 -0.1055  0.0047  0.0911
   30MOL   C74035598   3.069   6.640   5.884 -0.7978  0.6511  0.8570
   30MOL   C74135599   3.029   6.503   5.821  0.2253  0.5296 -0.0124
   30MOL   C74235600   3.054   6.395   5.924  0.0883 -0.5778 -0.1706
   30MOL   C74335601   3.022   6.255   5.884  0.4301 -0.0390  0.5656
   30MOL   C74435602   2.876   6.229   5.840  1.3369 -0.3401  0.8823
   30MOL   O74535603   2.833   6.250   5.724 -0.2792 -0.1083  0.5168
   30MOL   H74635604   4.389   7.142   5.682 -0.8615 -1.2072  0.1659
   30MOL   H74735605   4.397   7.107   5.838  0.1452  0.8936 -0.0570
   30MOL   H74835606   4.164   7.162   5.758  0.7180  1.0234 -1.6548
   30MOL   H74935607   4.221   7.241   5.906 -0.8824  0.0464 -0.3669
   30MOL   H75035608   4.266   7.439   5.800 -0.9358 -0.9920  1.1769
   30MOL   H75135609   4.239   7.385   5.638  1.2338 -0.0083  0.1589
   30MOL   H75235610   4.041   7.434   5.875  0.6541 -0.1496  0.5479
   30MOL   H75335611   4.052   7.518   5.718  0.4588 -1.8410 -2.2661
   30MOL   H75435612   3.938   7.245   5.757 -0.4000 -0.4248 -0.8617
   30MOL   H75535613   3.965   7.323   5.601  1.1088 -1.1340  0.5806
   30MOL   H75635614   3.802   7.509   5.652  0.7782 -0.0538 -0.5207
   30MOL   H75735615   3.781   7.464   5.802 -0.0323 -1.4820  0.5515
   30MOL   H75835616   3.680   7.232   5.707 -1.7235 -0.7158 -0.6913
   30MOL   H75935617   3.681   7.313   5.558  1.9475 -3.4257  0.8272
   30MOL   H76035618   3.531   7.497   5.641 -1.1411  0.0864 -0.2259
   30MOL   H76135619   3.545   7.427   5.797  0.5271 -0.1060 -0.7712
   30MOL   H76235620   3.441   7.247   5.595 -0.5891 -1.4957  0.4271
   30MOL   H76335621   3.437   7.237   5.769 -0.1398 -0.6197 -0.5044
   30MOL   H76435622   3.278   7.433   5.774 -1.2802 -0.3691  0.3020
   30MOL   H76535623   3.272   7.443   5.596  0.3082 -0.8078 -0.3228
   30MOL   H76635624   2.960   7.197   5.668  1.0355 -2.6579 -3.1863
   30MOL   H76735625   2.957   7.144   5.834 -0.8940 -0.8778 -0.1677
   30MOL   H76835626   3.126   7.002   5.613  1.5192 -2.9701  1.1037
   30MOL   H76935627   2.965   6.964   5.638 -0.4157  0.1216  1.8019
   30MOL   H77035628   2.983   6.908   5.878 -0.6721  2.7569 -0.6047
   30MOL   H77135629   3.165   6.925   5.865 -0.3724 -2.0109  1.1835
   30MOL   H77235630   3.142   6.729   5.698  0.0732  0.9131 -0.0101
   30MOL   H77335631   2.974   6.735   5.723 -0.0973  0.4598 -0.0688
   30MOL   H77435632   3.159   6.634   5.946 -0.5134 -1.1100  0.3083
   30MOL   H77535633   2.986   6.660   5.952  0.5774  2.6725  2.0117
   30MOL   H77635634   2.924   6.497   5.791  0.9899 -1.8827 -2.5605
   30MOL   H77735635   3.096   6.469   5.742 -1.9186 -3.0585 -0.4263
   30MOL   H77835636   3.001   6.403   6.019  0.1621 -1.7675 -0.0204
   30MOL   H77935637   3.159   6.393   5.954  0.2880 -0.4753 -0.8730
   30MOL   H78035638   3.079   6.240   5.792  1.3446  2.2974  0.7209
   30MOL   H78135639   3.058   6.179   5.953  0.0292 -0.2297  0.5719
   30MOL   O78235640   2.803   6.188   5.942  0.3669 -0.1575 -0.3140
   30MOL   C78335641   2.675   6.131   5.936  0.6438  0.0566  0.2386
   30MOL   C78435642   2.567   6.239   5.961  0.1347  0.1679  0.3316
   30MOL   C78535643   2.563   6.293   6.109  0.3315 -0.4321 -0.0963
   30MOL   C78635644   2.446   6.390   6.121 -0.6058  0.1861 -0.1173
   30MOL   C78735645   2.445   6.517   6.038  0.8273 -0.7955 -0.0593
   30MOL   C78835646   2.561   6.610   6.079 -0.8292  0.3486  0.4382
   30MOL   C78935647   2.570   6.747   6.001 -0.4025  0.6798  0.0189
   30MOL   C79035648   2.704   6.824   6.026  0.0644  0.2233  0.3672
   30MOL   C79135649   2.701   6.970   5.971 -0.2068  0.3354 -0.7809
   30MOL   C79235650   2.597   7.065   6.045  0.3905 -0.7775 -0.5339
   30MOL   O79335651   2.601   7.194   5.991  0.3641  0.0527 -0.2307
   30MOL   C79435652   2.517   7.225   5.888  0.7534  0.2258 -0.4316
   30MOL   O79535653   2.432   7.148   5.838 -0.1521 -0.4488  0.2463
   30MOL   C79635654   2.539   7.366   5.825 -0.3332  0.0478 -0.5911
   30MOL   C79735655   2.652   7.365   5.718  0.0670 -0.4745 -0.2908
   30MOL   C79835656   2.742   7.494   5.714  0.5905 -0.0377  0.0458
   30MOL   C79935657   2.848   7.498   5.605  0.1511  1.0386 -0.7225
   30MOL   C80035658   2.950   7.605   5.628 -0.0968 -0.1543  0.2562
   30MOL   C80135659   3.058   7.621   5.517  0.1777  0.3178  0.4715
   30MOL   C80235660   3.169   7.721   5.555 -0.3449 -0.3763 -0.3348
   30MOL   C80335661   3.263   0.001   5.440  0.0193  0.5410  0.7990
   30MOL   C80435662   3.378   0.097   5.484 -0.5567  0.8144 -0.0866
   30MOL   O80535663   3.406   0.190   5.407  0.0498  0.4167  0.7878
   30MOL   H80635664   2.662   6.082   5.839  0.9078 -1.0099  0.7369
   30MOL   H80735665   2.666   6.052   6.010  0.1786 -0.5115 -0.4145
   30MOL   H80835666   2.593   6.314   5.886 -1.1289 -0.3206 -0.6149
   30MOL   H80935667   2.469   6.205   5.928  1.1591 -1.9971 -0.6283
   30MOL   H81035668   2.541   6.205   6.170 -0.5401 -1.6998 -2.1923
   30MOL   H81135669   2.658   6.338   6.137 -0.3369  0.9156  0.0735
   30MOL   H81235670   2.352   6.335   6.108 -0.5275  0.2980 -1.2067
   30MOL   H81335671   2.440   6.432   6.221  3.8442  0.5209  0.1258
   30MOL   H81435672   2.355   6.578   6.039  1.6301  0.4322 -0.7589
   30MOL   H81535673   2.460   6.488   5.935  1.0867  1.6403 -0.7410
   30MOL   H81635674   2.661   6.567   6.073 -1.2898 -0.8339  1.1705
   30MOL   H81735675   2.553   6.643   6.183  0.9757  2.0170  0.0955
   30MOL   H81835676   2.479   6.800   6.030  0.0916  1.6551 -0.1940
   30MOL   H81935677   2.565   6.725   5.894  0.3551 -0.2652  0.1736
   30MOL   H82035678   2.786   6.776   5.973 -0.6137 -2.8680  2.0331
   30MOL   H82135679   2.739   6.818   6.129 -0.3714 -1.7849  0.4194
   30MOL   H82235680   2.800   7.016   5.966  0.8024 -1.6768  0.4134
   30MOL   H82335681   2.682   6.955   5.865  1.4666 -0.0876 -1.0281
   30MOL   H82435682   2.495   7.031   6.028 -0.2202  1.8028 -2.2423
   30MOL   H82535683   2.621   7.068   6.151  0.7968 -1.3571 -0.6113
   30MOL   H82635684   2.565   7.435   5.905 -0.7775 -0.5738  0.0986
   30MOL   H82735685   2.442   7.399   5.786 -0.8952 -1.7086 -0.7233
   30MOL   H82835686   2.605   7.347   5.622 -1.3428  0.1037  0.2762
   30MOL   H82935687   2.719   7.279   5.726  0.6304 -0.1057 -1.0614
   30MOL   H83035688   2.794   7.492   5.810 -0.2510 -0.1563  0.5054
   30MOL   H83135689   2.668   7.574   5.714 -0.6937 -1.2033 -0.8858
   30MOL   H83235690   2.789   7.505   5.513 -1.2403  1.7766  0.1964
   30MOL   H83335691   2.895   7.400   5.602 -0.2319  0.9039 -3.6970
   30MOL   H83435692   2.912   7.707   5.631 -0.9781 -0.4828  0.4883
   30MOL   H83535693   2.991   7.588   5.727 -1.5254 -3.5156  0.3423
   30MOL   H83635694   3.112   7.526   5.509 -1.0349 -0.6216  3.0567
   30MOL   H83735695   3.008   7.644   5.423 -0.2572 -0.3646  0.5379
   30MOL   H83835696   3.230   7.660   5.622 -1.3384 -1.4100 -0.3605
   30MOL   H83935697   3.137   0.057   5.604  0.0125 -0.2485 -0.3385
   30MOL   H84035698   3.309   7.667   5.400 -1.0260  0.7852 -1.0157
   30MOL   H84135699   3.199   0.042   5.362 -2.2565 -0.0275  2.3386
   30MOL   O84235700   3.450   0.052   5.589 -0.1024 -0.3773 -0.3095
   30MOL   C84335701   3.572   0.108   5.611 -0.2755  0.1837  0.7535
   30MOL   C84435702   3.633   0.027   5.730 -0.8008  0.2399  0.1602
   30MOL   C84535703   3.761   0.071   5.790 -1.1779  0.1997 -0.7450
   30MOL   C84635704   3.873   0.067   5.686 -0.5819 -0.4747 -0.3494
   30MOL   C84735705   4.010   0.089   5.742  0.7222  0.5111 -1.0490
   30MOL   C84835706   4.029   0.223   5.806  0.6172  0.3485 -0.1110
   30MOL   C84935707   4.169   0.275   5.808  0.1227  0.1600 -0.3611
   30MOL   C85035708   4.172   0.400   5.897 -0.5276 -0.3848 -0.1090
   30MOL   C85135709   4.127   0.533   5.829 -0.0276  0.1479  0.5732
   30MOL   C85235710   4.133   0.654   5.925  0.0928 -0.7667 -0.6335
   30MOL   O85335711   4.265   0.667   5.959 -0.0530 -0.4574 -0.3450
   30MOL   C85435712   4.328   0.789   5.973 -0.1799 -0.3113  0.3046
   30MOL   O85535713   4.278   0.899   5.984 -0.6000 -0.0734  0.5687
   30MOL   C85635714   4.483   0.771   5.981 -0.0342 -0.4524  1.1348
   30MOL   C85735715   4.551   0.677   5.878 -0.3616  0.4632  0.5835
   30MOL   C85835716   4.556   0.525   5.922 -0.7714 -0.8284  0.6683
   30MOL   C85935717   4.571   0.426   5.803  0.4125  0.7036  0.3330
   30MOL   C86035718   4.653   0.290   5.827 -0.1983  0.8281 -0.5303
   30MOL   C86135719   4.578   0.208   5.938 -0.0993  0.1154 -0.6422
   30MOL   C86235720   4.657   0.073   5.959  0.0273 -0.2018  0.2849
   30MOL   C86335721   4.613   7.756   6.085 -0.7807  0.3358 -0.5024
   30MOL   C86435722   4.485   7.677   6.054 -0.2484 -0.1528 -0.2209
   30MOL   O86535723   4.419   7.682   5.946  0.5117 -0.0739  0.1941
   30MOL   H86635724   3.627   0.089   5.519 -1.9005  0.5799 -0.3059
   30MOL   H86735725   3.567   0.213   5.638 -0.3572 -0.3874  3.1170
   30MOL   H86835726   3.563   0.048   5.811  0.5708  0.1548  1.3881
   30MOL   H86935727   3.628   7.678   5.707 -1.5316  0.4572 -0.7195
   30MOL   H87035728   3.761   0.170   5.836  0.1451 -0.5698  0.9572
   30MOL   H87135729   3.787   7.756   5.867 -0.0737  0.7167 -0.6191
   30MOL   H87235730   3.856   7.729   5.634 -0.6755  0.7249 -2.5680
   30MOL   H87335731   3.848   0.149   5.619  1.0265  1.5280  1.4501
   30MOL   H87435732   4.091   0.054   5.679 -0.3405 -0.8105 -1.7244
   30MOL   H87535733   4.027   0.014   5.820 -1.0840  0.9646 -0.1891
   30MOL   H87635734   3.989   0.216   5.907 -0.4766  1.6070 -0.4381
   30MOL   H87735735   3.968   0.296   5.751  0.7723  0.0040 -0.7483
   30MOL   H87835736   4.209   0.305   5.711 -1.0197 -1.8731 -1.4685
   30MOL   H87935737   4.235   0.201   5.854 -0.5416 -1.2709 -1.6829
   30MOL   H88035738   4.276   0.411   5.928 -0.6086  0.4224 -0.1263
   30MOL   H88135739   4.116   0.387   5.990  0.1797  0.5285  0.4512
   30MOL   H88235740   4.192   0.547   5.742 -1.5243  1.4094 -0.3695
   30MOL   H88335741   4.020   0.522   5.809 -0.2668  1.7094  0.9547
   30MOL   H88435742   4.099   0.745   5.876  2.1126  1.1185  1.3720
   30MOL   H88535743   4.063   0.630   6.005  0.6938 -1.4352 -0.2912
   30MOL   H88635744   4.510   0.726   6.077  0.2665 -0.1022  1.2193
   30MOL   H88735745   4.544   0.861   5.990 -0.8450  0.6194 -3.1073
   30MOL   H88835746   4.655   0.704   5.860 -0.2865 -1.8038 -2.9321
   30MOL   H88935747   4.507   0.688   5.779  1.5415 -0.9450 -0.4557
   30MOL   H89035748   4.474   0.497   5.988 -2.5629 -2.7284 -2.2874
   30MOL   H89135749   4.649   0.513   5.977 -0.5214  1.6119  0.8638
   30MOL   H89235750   4.624   0.470   5.718  0.8118 -2.3185 -1.0501
   30MOL   H89335751   4.470   0.410   5.765  0.0046  1.4819  1.0739
   30MOL   H89435752   4.654   0.239   5.730 -0.5888 -0.4249  0.1118
   30MOL   H89535753   4.757   0.313   5.852  0.2404  0.5901 -2.0397
   30MOL   H89635754   4.578   0.259   6.034  0.1959 -1.1018  0.0175
   30MOL   H89735755   4.473   0.182   5.923 -0.2766  1.3728 -1.7367
   30MOL   H89835756   4.764   0.093   5.964  0.3939 -1.8216 -0.7357
   30MOL   H89935757   4.637   0.009   5.873 -2.4892 -0.3797  0.9672
   30MOL   H90035758   4.691   7.685   6.111 -0.6214  1.1268  1.2691
   30MOL   H90135759   4.605   0.046   6.184 -1.4571 -1.1598  0.1691
   30MOL   O90235760   4.456   7.594   6.147  0.1980  0.1135  0.1919
   30MOL   C90335761   4.353   7.501   6.133  0.3329 -1.0435  0.0024
   30MOL   C90435762   4.365   7.389   6.238 -0.0036 -0.5537  0.5301
   30MOL   C90535763   4.236   7.312   6.276 -0.7355 -0.2663  0.0498
   30MOL   C90635764   4.166   7.236   6.163  0.1179  0.3368 -0.7280
   30MOL   C90735765   4.062   7.146   6.226 -0.6437 -0.4650 -0.0135
   30MOL   C90835766   3.992   7.065   6.114  0.2449  0.4910 -0.3164
   30MOL   C90935767   3.884   6.979   6.176  0.2216  0.1490 -0.0146
   30MOL   C91035768   3.836   6.874   6.080 -0.1962  0.0365  0.8143
   30MOL   C91135769   3.740   6.779   6.144  0.3427 -0.1334 -0.6593
   30MOL   C91235770   3.622   6.850   6.220 -0.3415 -0.3564  0.2968
   30MOL   O91335771   3.565   6.940   6.129 -0.0993 -0.0256  0.3377
   30MOL   C91435772   3.454   7.009   6.161  0.0302  0.0039 -0.1815
   30MOL   O91535773   3.385   6.996   6.265 -0.0753 -0.1961 -0.1601
   30MOL   C91635774   3.411   7.123   6.058  0.4055 -0.0443  0.3386
   30MOL   C91735775   3.475   7.261   6.088  0.8888  0.2605  0.2469
   30MOL   C91835776   3.626   7.263   6.099  0.1118  0.4166  0.0307
   30MOL   C91935777   3.673   7.404   6.113  0.1758 -0.6627  1.0184
   30MOL   C92035778   3.817   7.410   6.161  0.0971 -0.0499 -0.2382
   30MOL   C92135779   3.893   7.545   6.134 -0.3564  0.0830  0.6093
   30MOL   C92235780   3.851   7.659   6.229 -0.3749  0.6681 -0.3610
   30MOL   C92335781   3.904   0.044   6.197  0.1743  0.5938  0.3342
   30MOL   C92435782   4.059   0.048   6.203  0.4789 -0.1723  0.1568
   30MOL   O92535783   4.124   7.721   6.268  0.2927 -0.2827 -0.1901
   30MOL   H92635784   4.257   7.541   6.166  0.4429  0.4100 -1.4066
   30MOL   H92735785   4.342   7.462   6.032 -0.3274 -1.9371  0.4145
   30MOL   H92835786   4.443   7.324   6.201 -0.0884  0.4828 -1.5309
   30MOL   H92935787   4.424   7.430   6.320 -1.2986  1.7773  0.3623
   30MOL   H93035788   4.263   7.233   6.347  0.5970  0.2915  0.1834
   30MOL   H93135789   4.174   7.390   6.319  0.3640 -0.2719  1.7408
   30MOL   H93235790   4.129   7.308   6.090 -0.4851  0.2354 -0.5283
   30MOL   H93335791   4.245   7.179   6.115  0.8007  1.1751 -0.6063
   30MOL   H93435792   3.987   7.209   6.275 -1.8298 -1.5101 -0.4294
   30MOL   H93535793   4.115   7.093   6.306 -0.2943 -0.5483 -0.3021
   30MOL   H93635794   4.065   7.001   6.064 -1.3308 -0.9155 -0.8684
   30MOL   H93735795   3.950   7.137   6.044 -0.4432  0.4274  0.0313
   30MOL   H93835796   3.801   7.038   6.216  0.2906 -1.0366  1.9681
   30MOL   H93935797   3.924   6.918   6.257 -2.0227 -1.5665 -0.1380
   30MOL   H94035798   3.924   6.813   6.061 -0.2616 -0.1264  1.0416
   30MOL   H94135799   3.806   6.895   5.978 -0.9519 -3.3342  0.3034
   30MOL   H94235800   3.709   6.705   6.069  0.4151  0.6054 -1.4313
   30MOL   H94335801   3.795   6.716   6.213  2.0381 -0.4572 -2.2647
   30MOL   H94435802   3.556   6.772   6.255  1.2691 -1.9783 -0.1945
   30MOL   H94535803   3.657   6.899   6.311 -0.7410  0.9565 -0.2332
   30MOL   H94635804   3.303   7.116   6.049  0.0134  2.3989  2.6653
   30MOL   H94735805   3.440   7.099   5.955 -0.3061  2.1210 -0.3805
   30MOL   H94835806   3.447   7.302   6.186 -2.2132 -0.8696 -0.1193
   30MOL   H94935807   3.433   7.325   6.010  0.2141 -1.8613 -1.1667
   30MOL   H95035808   3.689   7.219   6.022  0.8584 -1.6502  1.7735
   30MOL   H95135809   3.651   7.222   6.197 -3.6177  0.2244  0.9741
   30MOL   H95235810   3.602   7.469   6.165  1.0052 -0.7027  2.2047
   30MOL   H95335811   3.683   7.440   6.010  4.3682 -3.9245  0.1447
   30MOL   H95435812   3.820   7.373   6.263  1.7548 -2.6072 -1.1567
   30MOL   H95535813   3.875   7.338   6.104 -0.3813  0.1338 -0.9788
   30MOL   H95635814   4.001   7.532   6.126 -0.3165  1.6588 -2.0153
   30MOL   H95735815   3.858   7.584   6.039  3.0666  0.5529 -0.5067
   30MOL   H95835816   3.895   7.644   6.327  0.6867 -0.5444 -1.0097
   30MOL   H95935817   3.743   7.663   6.247  0.2127 -1.6617  4.2233
   30MOL   H96035818   3.868   0.098   6.110 -0.0571 -1.2013 -0.6994
   30MOL   H96135819   3.875   0.116   6.274  0.1953 -0.4667  1.3316
   30MOL   O96235820   4.115   0.150   6.146  0.1403  0.2975  0.2153
   30MOL   C96335821   4.259   0.169   6.145 -0.4513  0.0617  0.4340
   30MOL   C96435822   4.313   0.243   6.268 -0.2233  0.5543 -0.3808
   30MOL   C96535823   4.299   0.393   6.246  0.1339  0.2841  0.5107
   30MOL   C96635824   4.345   0.476   6.365  0.4319 -0.4086 -0.0924
   30MOL   C96735825   4.493   0.501   6.400 -0.4698  0.3986 -0.7844
   30MOL   C96835826   4.560   0.565   6.286  0.0825 -0.1655 -0.1076
   30MOL   C96935827   4.696   0.610   6.326  0.3198  0.3203  0.2218
   30MOL   C97035828   4.769   0.705   6.223 -0.2820 -1.2426  0.5762
   30MOL   C97135829   4.909   0.743   6.281  0.4424 -0.4616 -0.2138
   30MOL   C97235830   4.981   0.854   6.209 -0.2424  0.1294 -0.8395
   30MOL   O97335831   5.121   0.858   6.251 -0.7905 -0.4237  0.2418
   30MOL   C97435832   5.199   0.956   6.210  0.1323 -0.6241 -0.1439
   30MOL   O97535833   5.167   1.048   6.136 -0.6847 -0.0380 -0.0616
   30MOL   C97635834   5.340   0.941   6.256  0.3936 -0.2692 -0.1425
   30MOL   C97735835   5.425   1.069   6.232  0.3899 -0.5694 -0.9204
   30MOL   C97835836   5.570   1.069   6.289  0.1255  0.3970 -0.2607
   30MOL   C97935837   5.642   1.204   6.270  0.4544  0.4271 -0.4818
   30MOL   C98035838   5.697   1.217   6.126  0.5552  0.0461 -0.2972
   30MOL   C98135839   5.786   1.342   6.110 -0.1760  0.4274  0.1520
   30MOL   C98235840   5.692   1.463   6.073  0.1091  0.8043  0.7797
   30MOL   C98335841   5.765   1.593   6.040 -0.5318 -0.0829  0.7562
   30MOL   C98435842   5.856   1.652   6.149 -0.0647 -0.6449  0.4901
   30MOL   O98535843   5.977   1.676   6.127  0.3661  0.0683 -0.3528
   30MOL   H98635844   4.309   0.072   6.141 -1.2377 -0.3041 -0.8468
   30MOL   H98735845   4.276   0.217   6.049 -2.3330 -1.7165 -0.8416
   30MOL   H98835846   4.256   0.208   6.354 -1.0454 -1.4641 -1.7025
   30MOL   H98935847   4.417   0.212   6.279 -1.1091 -3.2251 -1.5396
   30MOL   H99035848   4.335   0.426   6.149 -0.9833 -1.2474 -0.4465
   30MOL   H99135849   4.196   0.425   6.234  0.1033 -0.1169 -0.3197
   30MOL   H99235850   4.303   0.572   6.334  2.3171  0.3554 -0.3726
   30MOL   H99335851   4.294   0.434   6.451  1.5797 -1.1587  0.2301
   30MOL   H99435852   4.554   0.412   6.415  1.0357  1.0082 -3.0444
   30MOL   H99535853   4.501   0.567   6.486 -0.3271 -3.2442  2.1331
   30MOL   H99635854   4.490   0.642   6.252 -0.8035 -0.9938 -0.1545
   30MOL   H99735855   4.570   0.493   6.205  0.8289  0.9318 -1.0208
   30MOL   H99835856   4.763   0.526   6.342  2.3400  1.4205 -2.0676
   30MOL   H99935857   4.676   0.660   6.421  1.9411  0.1471  0.6674
   30MOL     H135858   4.715   0.799   6.206  1.8697 -0.0870 -0.0169
   30MOL     H235859   4.780   0.669   6.121  0.1461  1.4411 -0.3563
   30MOL     H335860   4.898   0.775   6.385 -0.0807  2.7816 -1.2001
   30MOL     H435861   4.964   0.649   6.283  1.9493  0.4218  0.8426
   30MOL     H535862   4.976   0.845   6.101 -0.0628  0.5108 -0.8803
   30MOL     H635863   4.933   0.950   6.224 -0.2634  0.0557 -0.4242
   30MOL     H735864   5.376   0.852   6.205 -0.1673 -1.2279  1.1225
   30MOL     H835865   5.336   0.926   6.363 -0.9140 -2.2565 -0.4533
   30MOL     H935866   5.376   1.161   6.264  0.1972 -1.4950  1.4956
   30MOL    H1035867   5.427   1.079   6.123  2.1986  3.2787 -0.6255
   30MOL    H1135868   5.629   0.987   6.249 -0.5992 -0.0055 -0.5137
   30MOL    H1235869   5.563   1.047   6.396  2.1194 -0.8727 -0.3583
   30MOL    H1335870   5.731   1.214   6.331 -0.7303 -1.3836  1.6031
   30MOL    H1435871   5.570   1.284   6.286 -1.5017 -1.4131  0.0951
   30MOL    H1535872   5.759   1.130   6.103  1.3932  0.0073  2.0424
   30MOL    H1635873   5.615   1.203   6.055  0.2192 -1.1630  0.3305
   30MOL    H1735874   5.824   1.369   6.208  0.5336  0.5911 -0.1706
   30MOL    H1835875   5.869   1.325   6.042 -1.6182 -0.8336 -1.3556
   30MOL    H1935876   5.621   1.474   6.154 -0.9712  2.7749 -0.3959
   30MOL    H2035877   5.633   1.435   5.986 -0.6855  0.3839  1.4495
   30MOL    H2135878   5.825   1.580   5.950 -1.8111  0.2293 -0.1494
   30MOL    H2235879   5.686   1.662   6.012 -1.1486 -1.2172 -0.3434
   30MOL    O2335880   5.791   1.665   6.268 -0.0899  0.4876 -0.2056
   30MOL    C2435881   5.870   1.706   6.380 -0.0526 -0.2496  0.0818
   30MOL    C2535882   5.891   1.597   6.480  0.2126 -0.6465 -0.5751
   30MOL    C2635883   5.995   1.497   6.450  0.2714  0.3946 -0.3450
   30MOL    C2735884   5.960   1.355   6.511 -0.1880  0.4266  0.0128
   30MOL    C2835885   6.084   1.261   6.508 -0.5371 -0.4002  0.4619
   30MOL    C2935886   6.090   1.167   6.625  0.2627  0.2890  0.1376
   30MOL    C3035887   6.218   1.075   6.630 -0.2146  0.3289 -0.7650
   30MOL    C3135888   6.244   1.008   6.767 -0.4559 -1.0190  0.3622
   30MOL    C3235889   6.151   0.893   6.804  0.1057  0.0397  0.0705
   30MOL    C3335890   6.207   0.797   6.911 -0.1151 -0.1085  0.0735
   30MOL    O3435891   6.327   0.741   6.854  0.2917  0.6550 -0.6916
   30MOL    C3535892   6.402   0.661   6.934  0.0133  0.0004  0.3600
   30MOL    O3635893   6.368   0.624   7.040  0.2415  0.2155 -0.5365
   30MOL    C3735894   6.533   0.607   6.870 -0.9724 -0.4146  0.3395
   30MOL    C3835895   6.648   0.573   6.966  0.3213 -0.1454  0.8701
   30MOL    C3935896   6.760   0.496   6.889  0.1624  0.9696  0.1951
   30MOL    C4035897   6.882   0.442   6.966  0.4494  0.5791  0.3928
   30MOL    C4135898   6.972   0.346   6.885  0.5441 -0.0790  0.1491
   30MOL    C4235899   7.092   0.415   6.807  0.3359 -0.0809 -0.4375
   30MOL    C4335900   7.235   0.399   6.856  0.1281 -0.6296 -0.7129
   30MOL    C4435901   7.289   0.254   6.866  0.0818 -0.8195 -0.1516
   30MOL    C4535902   7.441   0.253   6.874  0.0261 -0.0621 -0.1857
   30MOL    O4635903   7.494   0.339   6.949 -0.4997  0.0042  0.0742
   30MOL    H4735904   5.967   1.753   6.362  0.1176 -1.4639 -2.3633
   30MOL    H4835905   5.801   1.781   6.419 -0.3199 -0.8208  0.6923
   30MOL    H4935906   5.906   1.641   6.578 -0.0621 -1.8123  0.0023
   30MOL    H5035907   5.802   1.538   6.501  1.0943 -1.8428 -0.1089
   30MOL    H5135908   6.015   1.493   6.342  4.6607 -1.0497  0.4162
   30MOL    H5235909   6.086   1.545   6.486 -0.5047  1.2416  0.4992
   30MOL    H5335910   5.931   1.372   6.615 -1.3457  0.5894 -0.3290
   30MOL    H5435911   5.879   1.298   6.466  0.6212 -0.3790 -0.4396
   30MOL    H5535912   6.176   1.318   6.499 -0.2042 -1.2222 -1.4640
   30MOL    H5635913   6.087   1.197   6.420 -0.1881 -1.0831  0.9597
   30MOL    H5735914   5.999   1.108   6.622  0.2080  0.4453 -1.6741
   30MOL    H5835915   6.085   1.222   6.719  0.9408 -2.3889  1.8108
   30MOL    H5935916   6.309   1.134   6.620 -1.5657  2.7085  0.4807
   30MOL    H6035917   6.222   0.996   6.555 -1.7076  1.0808 -1.6548
   30MOL    H6135918   6.242   1.086   6.844 -0.9802  0.6908 -1.3470
   30MOL    H6235919   6.350   0.983   6.763 -0.0415  0.4709  1.4508
   30MOL    H6335920   6.051   0.933   6.821 -0.5414  0.0021 -3.2073
   30MOL    H6435921   6.130   0.833   6.716 -0.2434 -0.8061  0.7239
   30MOL    H6535922   6.242   0.866   6.988  1.7896  1.4079 -2.0871
   30MOL    H6635923   6.136   0.724   6.950 -0.9445  0.5320 -0.2273
   30MOL    H6735924   6.560   0.686   6.800 -2.5815 -0.0081  0.1560
   30MOL    H6835925   6.501   0.521   6.811 -1.0664  1.2352 -2.0956
   30MOL    H6935926   6.606   0.509   7.044  3.0894 -1.5573  1.2672
   30MOL    H7035927   6.693   0.657   7.020 -3.9087  2.7311  0.1339
   30MOL    H7135928   6.816   0.561   6.822  3.1206 -0.5456  1.0913
   30MOL    H7235929   6.720   0.422   6.820  1.1009 -1.1890  1.9008
   30MOL    H7335930   6.843   0.387   7.051 -0.7196  0.2295 -0.3521
   30MOL    H7435931   6.936   0.523   7.015 -0.3084 -0.4207  2.9401
   30MOL    H7535932   7.015   0.264   6.942  2.1542  0.6856  0.0475
   30MOL    H7635933   6.903   0.296   6.816 -1.0175 -1.3097  2.5177
   30MOL    H7735934   7.085   0.380   6.704 -0.0012 -1.5617  0.0828
   30MOL    H7835935   7.063   0.520   6.802  0.3721 -0.1644 -2.9319
   30MOL    H7935936   7.251   0.462   6.944 -1.2521  0.3295 -1.1219
   30MOL    H8035937   7.301   0.451   6.786  1.6778 -1.1629  0.3292
   30MOL    H8135938   7.250   0.206   6.957 -0.2106  1.6986  1.0802
   30MOL    H8235939   7.258   0.190   6.784  0.0019  0.2454 -0.9567
   30MOL    O8335940   7.511   0.167   6.797 -0.1718  0.5424  0.1440
   30MOL    C8435941   7.649   0.177   6.786 -0.3984 -0.2255 -0.5692
   30MOL    C8535942   7.701   0.083   6.675  0.9760 -0.0769 -0.9312
   30MOL    C8635943   0.097   0.050   6.691 -0.5116 -0.4635  0.3651
   30MOL    C8735944   0.186   0.158   6.621  0.1295 -0.3461  0.3969
   30MOL    C8835945   0.228   0.285   6.709  0.6790 -0.6421  0.4217
   30MOL    C8935946   0.300   0.394   6.628  0.1350 -0.2152 -0.4557
   30MOL    C9035947   0.335   0.511   6.718 -0.6332  0.5464  0.4025
   30MOL    C9135948   0.236   0.625   6.753 -0.0968 -0.5290  0.5667
   30MOL    C9235949   0.304   0.727   6.843 -0.1875  0.7699 -0.7701
   30MOL    C9335950   0.216   0.851   6.861 -0.3297 -0.4396 -0.7577
   30MOL    O9435951   0.217   0.929   6.746  0.0354 -0.3427 -0.0745
   30MOL    C9535952   0.203   1.058   6.760  0.5815  0.1803 -0.2319
   30MOL    O9635953   0.182   1.111   6.870 -0.0499 -0.2332  0.0799
   30MOL    C9735954   0.197   1.135   6.626  0.9052  0.1604  0.4856
   30MOL    C9835955   0.061   1.114   6.553  0.9288 -0.0532  1.0116
   30MOL    C9935956   0.045   1.216   6.443 -0.0169  0.1334  0.2838
   30MOL   C10035957   7.660   1.217   6.379 -0.9235  0.2830  0.1341
   30MOL   C10135958   7.558   1.286   6.455  0.0809  0.0356  0.3357
   30MOL   C10235959   7.414   1.237   6.453  0.5798 -0.2349 -0.2423
   30MOL   C10335960   7.327   1.283   6.564 -0.4724  0.1846 -0.0993
   30MOL   C10435961   7.183   1.222   6.545 -0.2448 -0.4008  0.0200
   30MOL   C10535962   7.078   1.297   6.630 -0.3100  1.0645 -0.1117
   30MOL   O10635963   7.107   1.310   6.749  0.0873 -0.3246  0.4710
   30MOL   H10735964   7.686   0.278   6.764  1.0224 -0.5713  0.1946
   30MOL   H10835965   7.689   0.156   6.885 -0.8908 -1.0091 -0.5358
   30MOL   H10935966   7.650   7.744   6.688 -0.3950  0.8471  0.6493
   30MOL   H11035967   7.679   0.116   6.574  1.2371  0.1075 -0.9266
   30MOL   H11135968   0.133   0.020   6.789  0.6862  0.6460  0.2711
   30MOL   H11235969   0.113   7.723   6.623 -0.1841 -0.1652  0.0706
   30MOL   H11335970   0.275   0.109   6.581  0.7795  1.9397 -1.0187
   30MOL   H11435971   0.140   0.187   6.526 -0.0624  0.0131  0.6002
   30MOL   H11535972   0.290   0.244   6.789  0.0205 -1.3195  0.6012
   30MOL   H11635973   0.136   0.319   6.757  0.8198  1.5430 -0.8203
   30MOL   H11735974   0.236   0.427   6.546 -0.5516 -1.3298 -0.3854
   30MOL   H11835975   0.390   0.356   6.581  1.2059  0.4943  0.9795
   30MOL   H11935976   0.426   0.557   6.680  0.8176 -3.3124 -1.0882
   30MOL   H12035977   0.353   0.477   6.820  0.9166  1.0062  0.2870
   30MOL   H12135978   0.142   0.591   6.795 -0.2131 -0.7597  0.1268
   30MOL   H12235979   0.203   0.672   6.660  2.5832  2.2913  0.9709
   30MOL   H12335980   0.310   0.682   6.942  1.1328 -1.1901 -1.7147
   30MOL   H12435981   0.397   0.758   6.796  0.7971 -0.5696  0.2602
   30MOL   H12535982   0.114   0.843   6.897 -1.0431  1.8294 -2.1672
   30MOL   H12635983   0.257   0.914   6.941 -0.5975  0.4630 -1.3255
   30MOL   H12735984   0.288   1.119   6.569  0.0501  0.0090 -0.8634
   30MOL   H12835985   0.204   1.241   6.649 -0.2431  0.8285 -1.9876
   30MOL   H12935986   7.737   1.128   6.625  1.2216  3.3208  0.7454
   30MOL   H13035987   0.068   1.015   6.508  0.3950  0.7486 -0.8534
   30MOL   H13135988   0.117   1.212   6.362 -0.4586 -0.1740 -0.1000
   30MOL   H13235989   0.058   1.318   6.479 -0.1908 -0.2712  1.5175
   30MOL   H13335990   7.630   1.113   6.367  1.5165 -0.1661 -3.0486
   30MOL   H13435991   7.654   1.247   6.274 -1.6080 -0.1489  0.0495
   30MOL   H13535992   7.594   1.275   6.558  0.5206  1.5744  0.3587
   30MOL   H13635993   7.570   1.393   6.442 -0.0811 -0.3558 -3.5283
   30MOL   H13735994   7.365   1.276   6.364  1.3598 -1.2800 -1.1384
   30MOL   H13835995   7.419   1.129   6.462 -1.0449 -0.1685  1.8332
   30MOL   H13935996   7.311   1.390   6.564 -0.2935  0.2114  0.2001
   30MOL   H14035997   7.381   1.248   6.652  2.9391 -3.2520 -3.3658
   30MOL   H14135998   7.137   1.240   6.448  0.2025  0.6248 -0.0094
   30MOL   H14235999   7.185   1.117   6.574  1.7911  0.5461  3.6374
   30MOL   O14336000   6.965   1.325   6.569  0.1536 -0.3557 -0.4898
   30MOL   C14436001   6.851   1.350   6.650 -0.4540 -1.4590 -0.3696
   30MOL   C14536002   6.721   1.315   6.582 -0.0836 -0.1398  0.1622
   30MOL   C14636003   6.690   1.382   6.452  0.0852 -0.3842 -0.8333
   30MOL   C14736004   6.538   1.404   6.420 -0.5067 -0.4486 -0.4892
   30MOL   C14836005   6.512   1.461   6.286  0.6783 -0.0949 -0.1840
   30MOL   C14936006   6.360   1.470   6.249  0.0231  0.4562 -0.1563
   30MOL   C15036007   6.335   1.487   6.097 -0.8311 -0.4655 -0.5175
   30MOL   C15136008   6.212   1.408   6.057 -0.3733 -0.1302 -0.6333
   30MOL   C15236009   6.196   1.413   5.902  0.0597  1.0555  0.2061
   30MOL   C15336010   6.305   1.335   5.818  0.8536 -0.0955  0.6725
   30MOL   O15436011   6.298   1.195   5.851 -0.3381 -0.5565  0.1310
   30MOL   C15536012   6.391   1.122   5.803 -0.1110  0.0056 -0.0161
   30MOL   O15636013   6.455   1.135   5.700  0.6189 -0.9077 -0.1164
   30MOL   C15736014   6.403   0.996   5.883 -0.2515  0.8605 -0.5226
   30MOL   C15836015   6.532   0.914   5.855  0.4055  0.0384  0.0621
   30MOL   C15936016   6.529   0.830   5.722 -0.2622 -0.4337 -0.3565
   30MOL   C16036017   6.658   0.752   5.701 -0.2724 -0.0941 -0.3287
   30MOL   C16136018   6.642   0.640   5.593 -0.3504  0.5393 -0.3708
   30MOL   C16236019   6.771   0.570   5.569  0.3845  0.5679  0.2206
   30MOL   C16336020   6.756   0.463   5.463 -0.2137 -0.1259 -0.7490
   30MOL   C16436021   6.888   0.387   5.439 -0.0724  0.4457 -0.1971
   30MOL   C16536022   6.906   0.260   5.531  0.2053 -0.1902 -0.1027
   30MOL   O16636023   6.959   0.284   5.638 -0.3501  0.2618  0.3952
   30MOL   H16736024   6.861   1.297   6.744  0.3184 -4.9348 -2.2984
   30MOL   H16836025   6.851   1.458   6.662  1.9177 -1.5151  0.4228
   30MOL   H16936026   6.701   1.209   6.568  1.8939 -0.5127 -0.0295
   30MOL   H17036027   6.641   1.348   6.649  0.6013  0.2676  0.7844
   30MOL   H17136028   6.735   1.481   6.456  1.8143 -1.0721 -2.4182
   30MOL   H17236029   6.754   1.335   6.377  0.4800  2.4117 -2.3187
   30MOL   H17336030   6.493   1.305   6.418 -0.6068 -0.4319  0.5230
   30MOL   H17436031   6.493   1.450   6.509  3.1828  0.7507  0.8714
   30MOL   H17536032   6.574   1.413   6.210  2.0284  1.2736  0.0168
   30MOL   H17636033   6.552   1.561   6.268  0.8718 -0.1570 -0.1062
   30MOL   H17736034   6.308   1.547   6.307  0.5404  0.5916  0.1315
   30MOL   H17836035   6.314   1.374   6.271  0.3083 -0.0350 -1.6832
   30MOL   H17936036   6.420   1.447   6.041 -0.0513 -0.1268  0.4041
   30MOL   H18036037   6.313   1.591   6.072 -4.2319 -1.2004 -0.7467
   30MOL   H18136038   6.131   1.457   6.110 -0.4983  0.0192 -0.9624
   30MOL   H18236039   6.203   1.307   6.096 -2.2052  0.9121  1.7905
   30MOL   H18336040   6.096   1.379   5.874  0.7018 -0.0405 -0.8113
   30MOL   H18436041   6.197   1.518   5.870 -0.4848  1.0356  0.1112
   30MOL   H18536042   6.281   1.329   5.712  2.8969  0.2780  0.1818
   30MOL   H18636043   6.405   1.372   5.838 -0.6455  3.7772  1.5681
   30MOL   H18736044   6.317   0.930   5.875  0.1443  0.1970  0.6150
   30MOL   H18836045   6.399   1.035   5.985  2.9004  0.4831 -0.1968
   30MOL   H18936046   6.557   0.849   5.938  2.8416  1.4756  0.5130
   30MOL   H19036047   6.611   0.989   5.861  0.5419 -0.0899 -0.1363
   30MOL   H19136048   6.515   0.900   5.640  0.1454 -0.5494 -0.5279
   30MOL   H19236049   6.445   0.762   5.731 -0.2537 -0.7711 -2.4519
   30MOL   H19336050   6.688   0.705   5.795 -2.9302 -1.5199 -0.1485
   30MOL   H19436051   6.740   0.817   5.672 -0.9992  0.5244 -0.9902
   30MOL   H19536052   6.557   0.581   5.624  0.4161 -0.5203 -0.2528
   30MOL   H19636053   6.616   0.696   5.503  0.3448 -0.7261 -1.3714
   30MOL   H19736054   6.844   0.642   5.533 -1.3167  1.8069 -0.8702
   30MOL   H19836055   6.814   0.525   5.658  0.2611  0.0179  0.0037
   30MOL   H19936056   6.743   0.530   5.378  1.1887  1.8651  0.5513
   30MOL   H20036057   6.685   0.381   5.469  0.9775 -1.1550 -0.3171
   30MOL   H20136058   6.896   0.360   5.334  1.6246 -1.0920  0.3002
   30MOL   H20236059   6.979   0.444   5.454  0.1959 -0.1164  0.3769
   30MOL   H20336060   6.861   0.166   5.501  0.0614 -0.9263  2.3306
   31MOL     O136061   3.472   2.576   1.563  0.2467  0.1281  0.7391
   31MOL     C236062   3.347   2.571   1.617  0.5103 -0.4361 -0.1316
   31MOL     C336063   3.294   2.717   1.637 -0.1356 -0.4354 -0.0865
   31MOL     C436064   3.278   2.793   1.505 -0.2081  0.4806  0.0437
   31MOL     C536065   3.239   2.935   1.535 -0.0616 -0.5180 -0.2198
   31MOL     C636066   3.224   3.017   1.409  0.1765 -0.2023 -0.6335
   31MOL     C736067   3.182   3.161   1.446 -0.0475  0.1392 -0.1612
   31MOL     C836068   3.143   3.234   1.313 -0.0791 -0.3459  0.2129
   31MOL     C936069   3.086   3.374   1.342  0.0614 -0.8563 -0.4629
   31MOL    C1036070   2.964   3.415   1.262  0.6382  0.2772 -0.5189
   31MOL    C1136071   2.875   3.538   1.300  0.3591 -0.1221 -0.2754
   31MOL    O1236072   2.811   3.504   1.421  0.3117  0.0194  0.4248
   31MOL    C1336073   2.698   3.571   1.444 -1.0870  1.1367  0.1543
   31MOL    O1436074   2.646   3.652   1.370  0.3981  0.0153  0.0088
   31MOL    C1536075   2.639   3.537   1.578  0.2727 -0.4516 -0.7093
   31MOL    C1636076   2.483   3.535   1.572  0.1523 -0.4627  0.3263
   31MOL    C1736077   2.426   3.412   1.499  0.7293 -0.1459 -0.4710
   31MOL    C1836078   2.280   3.419   1.476 -0.3187 -0.6167  0.4055
   31MOL    C1936079   2.224   3.318   1.378 -0.3733  0.2226  0.2305
   31MOL    C2036080   2.078   3.315   1.357 -0.1424 -0.0191  0.2189
   31MOL    C2136081   2.031   3.215   1.243 -0.2881 -0.1889  0.0155
   31MOL    C2236082   1.886   3.166   1.258 -0.0348 -0.1759 -0.1486
   31MOL    C2336083   1.851   3.077   1.144  0.0200 -0.4856 -0.3823
   31MOL    O2436084   1.831   3.126   1.033  0.2238 -0.3217  0.1171
   31MOL    H2536085   3.288   2.517   1.543 -0.1999  0.5098 -0.2741
   31MOL    H2636086   3.354   2.501   1.700 -0.7920 -1.0546 -0.5305
   31MOL    H2736087   3.201   2.710   1.694 -0.1041  1.3356  0.1971
   31MOL    H2836088   3.360   2.774   1.703 -2.3169 -0.5260  2.2418
   31MOL    H2936089   3.369   2.794   1.444  0.1564 -0.7707  0.5587
   31MOL    H3036090   3.210   2.742   1.437  1.5625 -1.0934 -0.5810
   31MOL    H3136091   3.143   2.938   1.586  0.2836 -0.4648  0.4314
   31MOL    H3236092   3.320   2.982   1.591  0.4387 -0.1472 -1.2419
   31MOL    H3336093   3.157   2.971   1.337  1.2863 -2.0540 -0.5389
   31MOL    H3436094   3.320   3.028   1.358 -0.9647 -0.7794 -2.9723
   31MOL    H3536095   3.259   3.216   1.500 -0.3809  0.5484 -0.1002
   31MOL    H3636096   3.095   3.161   1.512  0.2323  1.2382  0.2203
   31MOL    H3736097   3.071   3.168   1.263 -0.2538  0.4379 -0.5839
   31MOL    H3836098   3.233   3.253   1.254 -0.1089 -2.0338 -0.3989
   31MOL    H3936099   3.163   3.451   1.345 -1.9981  1.2417  0.2652
   31MOL    H4036100   3.038   3.364   1.439 -1.0542  0.2683 -0.8795
   31MOL    H4136101   3.003   3.427   1.161  1.7529  0.1328 -0.1083
   31MOL    H4236102   2.899   3.327   1.257  0.9775  0.0243 -0.5028
   31MOL    H4336103   2.936   3.624   1.327 -3.1515  2.5389 -0.4758
   31MOL    H4436104   2.816   3.560   1.211 -0.0226 -0.5281 -0.1263
   31MOL    H4536105   2.674   3.620   1.639 -1.0109 -2.1004  2.3673
   31MOL    H4636106   2.695   3.450   1.615  0.5831  0.1730  0.3220
   31MOL    H4736107   2.437   3.623   1.527  0.0248 -1.2037 -1.0152
   31MOL    H4836108   2.452   3.545   1.676  3.3288 -0.8280  1.3583
   31MOL    H4936109   2.453   3.322   1.556  2.6488  0.4214 -0.4349
   31MOL    H5036110   2.482   3.401   1.406 -1.0563 -1.0504 -1.4468
   31MOL    H5136111   2.259   3.520   1.440  0.2173 -0.9412 -0.8515
   31MOL    H5236112   2.233   3.398   1.572 -0.5959  0.2217  0.4542
   31MOL    H5336113   2.271   3.329   1.280  1.5998  0.6375  1.2046
   31MOL    H5436114   2.264   3.220   1.405  0.8114  0.6516  0.0476
   31MOL    H5536115   2.025   3.297   1.451 -0.1637 -0.9216  0.0347
   31MOL    H5636116   2.042   3.414   1.329  1.3775  0.5697  0.3454
   31MOL    H5736117   2.089   3.124   1.254 -1.2137 -0.9023 -0.9365
   31MOL    H5836118   2.067   3.252   1.147  0.1745  0.8290  0.5727
   31MOL    H5936119   1.879   3.114   1.353  0.4985  1.8159  1.0304
   31MOL    H6036120   1.812   3.245   1.270  1.2498  0.8649  1.2676
   31MOL    H6136121   3.517   2.655   1.590 -1.4130  1.6241 -0.7700
   31MOL    O6236122   1.856   2.940   1.169  0.0728 -0.1454  0.5244
   31MOL    C6336123   1.804   2.842   1.072 -0.2985  0.4040  0.1155
   31MOL    C6436124   1.761   2.724   1.163  0.2432 -0.1142 -0.4041
   31MOL    C6536125   1.715   2.595   1.090  0.1873 -0.7463  0.1706
   31MOL    C6636126   1.601   2.507   1.154  0.0199  0.1286  0.4439
   31MOL    C6736127   1.632   2.449   1.291  0.0607 -0.4717 -0.0197
   31MOL    C6836128   1.500   2.417   1.360 -0.3448  0.2280 -0.9488
   31MOL    C6936129   1.530   2.395   1.511 -0.0216 -0.3015  0.5328
   31MOL    C7036130   1.415   2.356   1.597  0.4175  0.1642  0.4518
   31MOL    C7136131   1.301   2.456   1.599  0.0287  0.1858  0.2209
   31MOL    C7236132   1.352   2.595   1.633  0.9099 -0.5679 -0.4186
   31MOL    O7336133   1.434   2.598   1.748  0.0714 -0.2705 -0.1175
   31MOL    C7436134   1.534   2.680   1.768 -0.0160 -0.9681  0.6251
   31MOL    O7536135   1.562   2.767   1.686  0.0434  0.0090  0.8195
   31MOL    C7636136   1.615   2.649   1.899  0.8200  0.0566  0.3719
   31MOL    C7736137   1.631   2.775   1.986  1.1750 -0.6644  0.3760
   31MOL    C7836138   1.660   2.751   2.133 -0.4433 -0.2802 -0.1732
   31MOL    C7936139   1.669   2.876   2.212 -0.2873 -0.2053 -0.2007
   31MOL    C8036140   1.674   2.846   2.372 -0.5547  0.1266  0.4808
   31MOL    C8136141   1.544   2.889   2.439  0.2246  0.6218 -0.2105
   31MOL    C8236142   1.560   2.877   2.595  0.9517 -0.7719  0.3907
   31MOL    C8336143   1.431   2.906   2.681 -0.0233 -0.2998 -0.4943
   31MOL    C8436144   1.377   3.044   2.666 -0.2961 -0.0384 -0.0734
   31MOL    O8536145   1.287   3.066   2.589 -0.3675  0.0224 -0.2952
   31MOL    H8636146   1.717   2.887   1.023  2.4292  1.8900 -3.5922
   31MOL    H8736147   1.885   2.826   1.002 -0.3623  2.8770 -0.5808
   31MOL    H8836148   1.845   2.711   1.231 -0.0523 -2.5709 -0.4772
   31MOL    H8936149   1.675   2.759   1.222  1.1024 -2.0427  2.0710
   31MOL    H9036150   1.679   2.629   0.993 -1.0822  0.4497  1.0385
   31MOL    H9136151   1.802   2.535   1.064  0.1724 -0.3507 -0.8254
   31MOL    H9236152   1.513   2.571   1.158  2.0947  3.2779 -1.3441
   31MOL    H9336153   1.584   2.417   1.094  2.6266 -0.0809 -0.0769
   31MOL    H9436154   1.683   2.531   1.341  1.6934 -0.7060 -1.2629
   31MOL    H9536155   1.695   2.360   1.296  2.0191  0.8930 -0.1218
   31MOL    H9636156   1.464   2.321   1.323 -0.2921  0.2392 -1.0310
   31MOL    H9736157   1.423   2.492   1.346 -1.7453 -0.9180  0.4476
   31MOL    H9836158   1.591   2.476   1.552  0.8921 -0.7415  0.0599
   31MOL    H9936159   1.586   2.302   1.523 -2.8311 -1.9410  1.4094
   31MOL   H10036160   1.448   2.329   1.697 -0.5219 -0.5035  0.5893
   31MOL   H10136161   1.376   2.265   1.552 -1.3328  0.4959  1.2484
   31MOL   H10236162   1.240   2.470   1.510 -0.3222  0.7651  0.5550
   31MOL   H10336163   1.234   2.423   1.678  0.3310 -0.0822  0.3663
   31MOL   H10436164   1.399   2.621   1.538 -2.3889  0.8571 -1.7699
   31MOL   H10536165   1.262   2.656   1.644  2.3941  1.3032  1.8929
   31MOL   H10636166   1.700   2.592   1.860  1.7270  0.3938  1.8420
   31MOL   H10736167   1.558   2.589   1.969  1.0035 -2.1622 -1.2979
   31MOL   H10836168   1.535   2.825   1.988  2.4452  1.8779  0.0300
   31MOL   H10936169   1.708   2.844   1.951  0.2765 -0.6308 -1.5579
   31MOL   H11036170   1.750   2.688   2.133 -0.3935 -0.2091 -0.7217
   31MOL   H11136171   1.576   2.692   2.169 -0.7755 -0.5241 -1.3142
   31MOL   H11236172   1.586   2.944   2.192 -0.2209  0.3949  1.4968
   31MOL   H11336173   1.760   2.926   2.178 -0.8952  1.0222 -0.0735
   31MOL   H11436174   1.694   2.739   2.384  0.4979  0.2509 -0.0970
   31MOL   H11536175   1.751   2.900   2.427  0.2854 -1.1821  0.6215
   31MOL   H11636176   1.516   2.988   2.405  1.1293  1.2440  0.8539
   31MOL   H11736177   1.462   2.819   2.420  1.4287 -0.8035 -0.2611
   31MOL   H11836178   1.627   2.959   2.622  1.5588 -0.6643 -1.3655
   31MOL   H11936179   1.612   2.787   2.626 -0.6803 -0.9113  2.8814
   31MOL   H12036180   1.349   2.847   2.640  0.6530 -2.6553  1.4612
   31MOL   H12136181   1.445   2.883   2.786 -3.4304  0.7387  0.2429
   31MOL   O12236182   1.439   3.137   2.741 -0.5892 -0.0602 -0.5254
   31MOL   C12336183   1.391   3.266   2.741 -0.0656  0.0285  0.2086
   31MOL   C12436184   1.446   3.356   2.632  0.0005  0.2108 -0.3544
   31MOL   C12536185   1.429   3.504   2.656  0.1093 -0.0423 -0.0743
   31MOL   C12636186   1.489   3.593   2.541 -0.2498 -0.0139 -0.0744
   31MOL   C12736187   1.439   3.736   2.555  0.4224 -0.2816 -0.2067
   31MOL   C12836188   1.515   3.849   2.483  0.2882  0.3285 -0.0974
   31MOL   C12936189   1.490   3.988   2.537  0.7246  0.2806 -0.0648
   31MOL   C13036190   1.574   4.091   2.468 -0.9447 -0.4414  0.6362
   31MOL   C13136191   1.555   4.236   2.517  0.3902  0.5203 -0.7036
   31MOL   C13236192   1.635   4.336   2.438 -0.0581  0.1123 -1.4661
   31MOL   O13336193   1.616   4.469   2.483 -0.2877  0.2469 -1.1420
   31MOL   C13436194   1.521   4.534   2.429  0.4213  0.4022  0.3883
   31MOL   O13536195   1.440   4.501   2.343 -0.5603 -0.1988 -0.1162
   31MOL   C13636196   1.509   4.680   2.476 -0.3172  0.2406  0.6051
   31MOL   C13736197   1.576   4.709   2.610  0.0353  0.2832  0.8881
   31MOL   C13836198   1.498   4.660   2.726 -0.4874  0.4939 -0.6735
   31MOL   C13936199   1.561   4.685   2.858  0.3217  0.3661  0.1715
   31MOL   C14036200   1.461   4.649   2.970 -0.6204  0.6131  0.3266
   31MOL   C14136201   1.526   4.655   3.106 -0.5402 -0.3463 -0.6176
   31MOL   C14236202   1.433   4.619   3.217 -0.2256 -0.3171 -0.1558
   31MOL   C14336203   1.351   4.733   3.275 -0.5674 -0.9841  0.1105
   31MOL   C14436204   1.287   4.697   3.401 -0.0714 -0.8190 -0.5794
   31MOL   O14536205   1.163   4.672   3.399  0.2575 -0.5660 -0.1482
   31MOL   H14636206   1.283   3.274   2.741 -0.2962 -2.7011  1.4654
   31MOL   H14736207   1.418   3.307   2.838 -2.1721 -0.8850  1.1997
   31MOL   H14836208   1.554   3.342   2.624  0.2792  1.3118  1.3422
   31MOL   H14936209   1.409   3.324   2.535  1.3666  1.3197 -1.2602
   31MOL   H15036210   1.323   3.526   2.667  0.0756 -0.2231 -0.0252
   31MOL   H15136211   1.480   3.531   2.748  3.0764 -3.0651 -0.7330
   31MOL   H15236212   1.596   3.601   2.563  0.6394 -2.0067 -3.3506
   31MOL   H15336213   1.470   3.540   2.448 -2.4146 -1.8751  1.4017
   31MOL   H15436214   1.437   3.767   2.659  0.0492 -0.4262 -0.1694
   31MOL   H15536215   1.333   3.742   2.531  0.1815  1.0137  1.1198
   31MOL   H15636216   1.480   3.840   2.380 -0.8468  3.3085 -0.0301
   31MOL   H15736217   1.621   3.827   2.474 -0.4679 -4.0161  0.6972
   31MOL   H15836218   1.526   3.989   2.640 -1.4771 -0.1221  0.7344
   31MOL   H15936219   1.385   4.014   2.526  0.8724  1.1846  0.5853
   31MOL   H16036220   1.553   4.098   2.361  0.7596 -0.4352  0.2807
   31MOL   H16136221   1.678   4.071   2.492 -0.7321  1.4489  1.3633
   31MOL   H16236222   1.452   4.265   2.502 -0.7214 -2.9988 -0.4805
   31MOL   H16336223   1.598   4.256   2.615 -0.0939  0.7299 -0.5344
   31MOL   H16436224   1.737   4.299   2.446 -0.6399 -1.6598 -1.8511
   31MOL   H16536225   1.616   4.327   2.331 -1.5777 -0.6803 -1.1445
   31MOL   H16636226   1.402   4.687   2.491 -0.6088 -3.3898  0.5765
   31MOL   H16736227   1.544   4.743   2.394 -0.1545 -0.1002  0.4119
   31MOL   H16836228   1.598   4.815   2.623 -0.7048  0.2864  2.3001
   31MOL   H16936229   1.677   4.670   2.607  0.4194  1.3846 -1.1852
   31MOL   H17036230   1.494   4.552   2.717 -0.7033  0.4361  0.0845
   31MOL   H17136231   1.404   4.716   2.723  0.9268  3.1718  1.8453
   31MOL   H17236232   1.601   4.785   2.875  1.3339  0.1681 -0.9091
   31MOL   H17336233   1.648   4.619   2.867  1.0959  1.4513  0.7087
   31MOL   H17436234   1.377   4.719   2.972 -1.3331 -0.1317 -1.9000
   31MOL   H17536235   1.410   4.554   2.955 -1.5884  1.2657 -0.5648
   31MOL   H17636236   1.616   4.597   3.125  1.5496  2.4486 -1.8229
   31MOL   H17736237   1.557   4.758   3.121  0.1016 -0.4767 -1.0769
   31MOL   H17836238   1.483   4.561   3.295 -2.0375 -0.6232  0.8011
   31MOL   H17936239   1.378   4.534   3.176  3.2345 -2.9630  0.4658
   31MOL   H18036240   1.420   4.815   3.293 -0.2938 -1.3425  0.7301
   31MOL   H18136241   1.290   4.781   3.199  1.7656  0.3417 -0.9788
   31MOL   O18236242   1.367   4.701   3.507 -0.1084 -0.7151  0.2895
   31MOL   C18336243   1.323   4.682   3.643 -0.4012  0.5010  0.8268
   31MOL   C18436244   1.376   4.788   3.734 -0.9675 -0.1843  0.0989
   31MOL   C18536245   1.354   4.768   3.884 -0.2995  0.4026  0.0631
   31MOL   C18636246   1.388   4.883   3.967  0.5991  0.3321 -0.0106
   31MOL   C18736247   1.531   4.943   3.965 -0.4130  1.0622 -0.1645
   31MOL   C18836248   1.632   4.854   4.038  0.5496 -0.0555  0.0118
   31MOL   C18936249   1.777   4.893   4.011 -0.1515 -0.2513  0.6739
   31MOL   C19036250   1.890   4.816   4.078  0.6610 -0.4236  0.2975
   31MOL   C19136251   2.032   4.859   4.057 -0.1771  0.4637  0.5485
   31MOL   C19236252   2.138   4.793   4.143  0.3198  0.1660  0.3454
   31MOL   O19336253   2.129   4.839   4.276 -0.2839 -0.3346 -0.5792
   31MOL   C19436254   2.200   4.948   4.315 -0.4119  0.2280 -0.6633
   31MOL   O19536255   2.278   5.014   4.247 -0.1407  0.0728 -0.4216
   31MOL   C19636256   2.175   4.993   4.460 -0.1948 -0.0004  0.6456
   31MOL   C19736257   2.075   5.113   4.464 -0.1316  0.4202  0.4277
   31MOL   C19836258   1.948   5.090   4.382 -1.2403 -0.4450  0.3359
   31MOL   C19936259   1.834   5.182   4.400  0.2450  0.8767 -0.1570
   31MOL   C20036260   1.716   5.138   4.313  0.2446 -0.1684 -0.9833
   31MOL   C20136261   1.596   5.215   4.346  0.0273  0.3736  0.4031
   31MOL   C20236262   1.471   5.200   4.250  0.1937 -0.2432 -0.3546
   31MOL   C20336263   1.333   5.240   4.290  0.5019 -0.3970  0.3286
   31MOL   C20436264   1.315   5.380   4.351 -0.5658  0.0181  0.2496
   31MOL   O20536265   1.358   5.482   4.291 -0.4743 -0.5435  0.6471
   31MOL   H20636266   1.216   4.696   3.656 -0.2088  0.6737  2.2178
   31MOL   H20736267   1.344   4.581   3.679  0.3927 -0.0230 -1.0412
   31MOL   H20836268   1.483   4.801   3.717 -1.4573 -0.0452 -3.3191
   31MOL   H20936269   1.334   4.884   3.702 -0.5465 -0.4559 -1.3230
   31MOL   H21036270   1.249   4.746   3.905  0.3677 -2.3947  0.7079
   31MOL   H21136271   1.418   4.692   3.929 -2.9471 -2.0434 -0.0994
   31MOL   H21236272   1.319   4.961   3.936 -0.5521 -0.4695  0.5097
   31MOL   H21336273   1.357   4.870   4.070 -3.1812  1.2684 -0.9532
   31MOL   H21436274   1.529   5.046   4.003  0.4509  0.7108  0.8710
   31MOL   H21536275   1.556   4.970   3.863 -1.6204 -0.8182 -0.9861
   31MOL   H21636276   1.613   4.749   4.016  1.0811 -0.3296  0.8545
   31MOL   H21736277   1.623   4.864   4.146  2.4238  0.4459  0.1361
   31MOL   H21836278   1.777   4.997   4.045 -0.1871  0.5082 -1.5804
   31MOL   H21936279   1.792   4.897   3.903  3.2118 -2.3071  1.0006
   31MOL   H22036280   1.879   4.717   4.032 -0.8514 -0.5118  0.8160
   31MOL   H22136281   1.865   4.809   4.184  0.4004  0.9262  0.3365
   31MOL   H22236282   2.049   4.857   3.950  1.0116 -0.5674  0.7566
   31MOL   H22336283   2.042   4.967   4.067 -0.8096  0.4713  1.1522
   31MOL   H22436284   2.120   4.686   4.150  0.0818  0.1854 -0.0009
   31MOL   H22536285   2.238   4.805   4.101  0.9121  0.6095  1.8554
   31MOL   H22636286   2.269   5.013   4.513 -1.2317  1.6122  1.9400
   31MOL   H22736287   2.134   4.903   4.504  0.3098  0.8926  3.0289
   31MOL   H22836288   2.136   5.197   4.429  0.8598 -0.6950 -0.5663
   31MOL   H22936289   2.038   5.125   4.566 -1.2972 -1.9396  0.3144
   31MOL   H23036290   1.926   4.985   4.397  2.3921 -1.3395 -0.1641
   31MOL   H23136291   1.978   5.098   4.277 -0.9560 -0.5302  0.4089
   31MOL   H23236292   1.869   5.280   4.368  1.5333  0.1128 -1.1228
   31MOL   H23336293   1.805   5.190   4.505 -1.8298  1.0496 -0.7162
   31MOL   H23436294   1.748   5.148   4.209  0.0275 -2.7297 -1.3242
   31MOL   H23536295   1.698   5.032   4.328  2.2549 -0.6825 -2.0510
   31MOL   H23636296   1.557   5.205   4.447  3.0877 -1.2656  1.4816
   31MOL   H23736297   1.624   5.320   4.344  0.2268  0.3112 -0.4454
   31MOL   H23836298   1.464   5.091   4.240 -1.7559 -0.1081 -0.6311
   31MOL   H23936299   1.495   5.239   4.151 -1.7346 -2.0741 -1.6084
   31MOL   H24036300   1.286   5.254   4.193 -0.4432  0.3349  0.8814
   31MOL   H24136301   1.265   5.166   4.334 -2.0120  0.4365 -2.0312
   31MOL   O24236302   1.256   5.374   4.473  0.0019 -0.3139 -0.2555
   31MOL   C24336303   1.225   5.491   4.538 -0.2259  0.1735  0.4911
   31MOL   C24436304   1.069   5.496   4.539  0.0324  0.6732  1.1275
   31MOL   C24536305   0.994   5.377   4.603  0.3492 -0.6581  0.0886
   31MOL   C24636306   0.838   5.385   4.597  0.7272 -0.6653  0.2264
   31MOL   C24736307   0.759   5.318   4.709  0.2165  0.2148  0.2701
   31MOL   C24836308   0.611   5.307   4.680  0.2579 -0.1545  0.3565
   31MOL   C24936309   0.537   5.429   4.736 -0.1196 -0.0930 -0.5908
   31MOL   C25036310   0.381   5.412   4.733 -0.3547 -0.5040 -0.1917
   31MOL   C25136311   0.305   5.524   4.814  0.1485 -0.4116 -0.1990
   31MOL   C25236312   0.221   5.631   4.730 -0.5909  0.0929 -0.1365
   31MOL   O25336313   0.163   5.726   4.810  0.0134 -0.4079  0.5052
   31MOL   C25436314   0.153   5.858   4.777  0.1697 -0.3563  0.3946
   31MOL   O25536315   0.195   5.914   4.675 -0.1057  0.2331  0.0395
   31MOL   C25636316   0.073   5.941   4.883  0.5054  0.9144  0.4728
   31MOL   C25736317   0.095   5.899   5.027 -0.0612 -0.1143  0.1804
   31MOL   C25836318   0.220   5.962   5.097  0.5072 -0.1246 -0.3043
   31MOL   C25936319   0.226   5.937   5.244  0.0633 -0.9896  1.0166
   31MOL   C26036320   0.339   6.026   5.302  0.4425  0.0476 -1.0225
   31MOL   C26136321   0.428   5.939   5.394 -0.4726 -0.0937 -0.3010
   31MOL   C26236322   0.534   6.021   5.467 -0.1331  0.1418  0.3426
   31MOL   C26336323   0.657   5.940   5.514 -0.8562  0.0900 -0.0654
   31MOL   C26436324   0.728   6.012   5.627  0.3605  0.3988 -0.2162
   31MOL   O26536325   0.728   5.978   5.743  0.4075  0.5446 -1.0947
   31MOL   H26636326   1.270   5.480   4.637  1.1607 -0.2515 -0.1739
   31MOL   H26736327   1.272   5.580   4.496  0.3818 -1.3273 -2.0891
   31MOL   H26836328   1.036   5.580   4.600 -0.8851  0.9138  0.3114
   31MOL   H26936329   1.028   5.512   4.439  4.0891  0.4454 -0.6640
   31MOL   H27036330   1.027   5.291   4.545 -2.1748 -1.7982  0.2578
   31MOL   H27136331   1.019   5.355   4.707  0.6319 -0.3733  0.0823
   31MOL   H27236332   0.820   5.492   4.606  3.8548 -0.2260  2.0066
   31MOL   H27336333   0.792   5.351   4.504  0.9122 -0.3442  0.0193
   31MOL   H27436334   0.772   5.373   4.803 -0.5179  3.5861 -1.5474
   31MOL   H27536335   0.774   5.212   4.729 -0.2150  0.3326  1.2269
   31MOL   H27636336   0.582   5.217   4.733 -1.7251  0.5801  0.5854
   31MOL   H27736337   0.576   5.285   4.579  0.3420 -1.2563  0.5652
   31MOL   H27836338   0.553   5.513   4.669 -0.9713  1.0278  0.5849
   31MOL   H27936339   0.572   5.454   4.837  0.9092 -2.4794 -0.3143
   31MOL   H28036340   0.344   5.325   4.788  0.5193 -0.7227  0.0555
   31MOL   H28136341   0.351   5.403   4.628 -2.4545 -0.3655  0.3757
   31MOL   H28236342   0.247   5.460   4.879  2.2563 -1.3403  0.8245
   31MOL   H28336343   0.375   5.584   4.873  0.1540 -0.8464  0.2353
   31MOL   H28436344   0.273   5.674   4.644 -2.3716  1.3427 -0.6119
   31MOL   H28536345   0.135   5.582   4.686 -1.0694 -0.5959  1.5113
   31MOL   H28636346   7.723   5.926   4.866  0.9644 -1.2302 -0.6746
   31MOL   H28736347   0.084   6.048   4.862  0.1365  1.4629  2.8551
   31MOL   H28836348   0.104   5.791   5.034 -0.4919 -0.0833  1.2333
   31MOL   H28936349   0.007   5.916   5.088  0.6536 -1.5537  1.6663
   31MOL   H29036350   0.218   6.071   5.095 -1.5411 -0.1176  0.4311
   31MOL   H29136351   0.312   5.926   5.051  0.5461  0.1138 -0.4111
   31MOL   H29236352   0.237   5.833   5.273  1.2143 -1.3897 -0.7139
   31MOL   H29336353   0.133   5.976   5.284 -1.0771  0.6127 -2.9132
   31MOL   H29436354   0.398   6.072   5.223 -1.4640  1.9650 -1.3709
   31MOL   H29536355   0.292   6.103   5.364 -1.4029 -1.2897 -0.7475
   31MOL   H29636356   0.370   5.888   5.471 -2.0722  1.5593 -0.3835
   31MOL   H29736357   0.473   5.860   5.332 -1.8212 -0.6989 -0.5200
   31MOL   H29836358   0.485   6.078   5.546  1.1642  0.0101  1.2710
   31MOL   H29936359   0.571   6.100   5.401  0.9712 -1.2937 -0.7867
   31MOL   H30036360   0.630   5.837   5.541 -1.1416 -0.5470 -2.7091
   31MOL   H30136361   0.727   5.929   5.432 -0.7588  0.8056 -0.0741
   31MOL   O30236362   0.801   6.119   5.579 -0.5205 -0.0346 -0.4934
   31MOL   C30336363   0.874   6.198   5.668  0.1718 -0.1253 -0.8928
   31MOL   C30436364   0.949   6.310   5.591  0.2114 -0.3780 -0.1197
   31MOL   C30536365   0.859   6.414   5.522  0.1929 -0.6843 -0.2522
   31MOL   C30636366   0.917   6.540   5.456 -0.2099  0.4904  0.8271
   31MOL   C30736367   0.824   6.627   5.364  0.5550 -0.0117  0.0628
   31MOL   C30836368   0.901   6.740   5.295 -0.9696  0.3851  0.3148
   31MOL   C30936369   0.973   6.842   5.378  0.1455 -0.3102  0.6898
   31MOL   C31036370   0.877   6.933   5.460  0.1898  0.7519  0.8824
   31MOL   C31136371   0.951   7.032   5.545  0.2209 -0.4303  0.3986
   31MOL   C31236372   0.855   7.132   5.613  0.3174 -0.0008 -0.0758
   31MOL   O31336373   0.753   7.066   5.689 -0.0075  0.1490  0.0048
   31MOL   C31436374   0.672   7.137   5.766 -0.5375 -0.2615 -0.0220
   31MOL   O31536375   0.670   7.256   5.778  0.0738 -0.0230 -0.2893
   31MOL   C31636376   0.574   7.048   5.838 -0.4057  0.2687  0.0013
   31MOL   C31736377   0.650   6.951   5.927 -0.3025  0.3514 -0.3294
   31MOL   C31836378   0.566   6.831   5.959 -0.2261  0.1777 -0.4069
   31MOL   C31936379   0.627   6.751   6.073  0.3809 -0.5383  0.2368
   31MOL   C32036380   0.552   6.619   6.104  0.4908 -0.1904 -0.0011
   31MOL   C32136381   0.591   6.566   6.241  0.7197 -0.0914 -0.5390
   31MOL   C32236382   0.503   6.443   6.279  0.1505  0.5929 -0.5770
   31MOL   C32336383   0.374   6.458   6.362  0.2408 -0.2989 -0.0671
   31MOL   C32436384   0.265   6.537   6.291 -0.1224  0.1285  0.0088
   31MOL   O32536385   0.205   6.624   6.352  0.3953  0.4485  0.0834
   31MOL   H32636386   0.810   6.233   5.749  0.0432  0.0092 -1.0513
   31MOL   H32736387   0.949   6.137   5.718  1.4195  0.7660 -1.6661
   31MOL   H32836388   0.999   6.364   5.672  0.8454 -2.4164  0.9010
   31MOL   H32936389   1.025   6.263   5.530  2.5429  0.8843  1.7270
   31MOL   H33036390   0.790   6.351   5.465 -1.6183  0.7817  0.2610
   31MOL   H33136391   0.796   6.452   5.603  0.7865  3.5795 -1.6609
   31MOL   H33236392   0.963   6.605   5.531  1.6005 -0.4614  0.5696
   31MOL   H33336393   0.995   6.497   5.393  0.6784  0.4424  1.9346
   31MOL   H33436394   0.742   6.662   5.427 -0.8843 -1.1561 -1.1447
   31MOL   H33536395   0.775   6.556   5.298  1.5891 -1.8148  1.2087
   31MOL   H33636396   0.838   6.795   5.225 -0.2963 -0.1810 -0.7469
   31MOL   H33736397   0.974   6.687   5.234  0.3873  1.6664  0.8102
   31MOL   H33836398   1.033   6.909   5.316 -1.5424  2.2079  1.6930
   31MOL   H33936399   1.055   6.803   5.437 -0.9923 -0.0091  2.4951
   31MOL   H34036400   0.815   6.868   5.522 -1.8895  0.4464 -1.4276
   31MOL   H34136401   0.806   6.994   5.404  1.9380  0.8399 -1.2872
   31MOL   H34236402   1.015   6.978   5.614  0.2141 -0.9325  0.0094
   31MOL   H34336403   1.015   7.099   5.488 -0.9479  0.7452  0.4190
   31MOL   H34436404   0.911   7.203   5.674 -0.3485  0.9413 -0.5471
   31MOL   H34536405   0.813   7.203   5.542 -0.6063 -1.1156 -0.6612
   31MOL   H34636406   0.511   6.997   5.765  0.2257 -1.6818  0.7817
   31MOL   H34736407   0.499   7.106   5.892 -0.3870 -1.4762  1.9896
   31MOL   H34836408   0.693   7.001   6.014  0.7643  0.8052 -1.1025
   31MOL   H34936409   0.731   6.908   5.869  0.3837 -0.4166  1.1821
   31MOL   H35036410   0.566   6.761   5.876  0.6764  1.3702 -1.4163
   31MOL   H35136411   0.465   6.857   5.990 -0.0740  1.0374 -0.6240
   31MOL   H35236412   0.630   6.817   6.160 -1.3053  0.0967 -0.1708
   31MOL   H35336413   0.732   6.727   6.056  0.1992  1.1723 -4.1329
   31MOL   H35436414   0.447   6.647   6.100  1.0606  2.1129  0.2742
   31MOL   H35536415   0.559   6.547   6.023 -0.7235 -1.3114  0.8718
   31MOL   H35636416   0.700   6.560   6.239  0.7208 -0.0665 -0.5459
   31MOL   H35736417   0.555   6.636   6.316 -0.5077  0.5403 -1.7052
   31MOL   H35836418   0.562   6.378   6.343 -0.7730  2.2707  2.0787
   31MOL   H35936419   0.479   6.382   6.192 -1.0621  0.4607 -0.1638
   31MOL   H36036420   0.340   6.354   6.369  2.2787 -0.9835 -0.0875
   31MOL   H36136421   0.380   6.490   6.466  1.1444  1.6196 -0.6878
   31MOL   O36236422   0.246   6.513   6.162 -0.1212 -0.2204  0.2592
   31MOL   C36336423   0.168   6.602   6.080 -0.1038 -0.0114  0.0123
   31MOL   C36436424   0.206   6.588   5.934 -0.6798 -0.2498 -0.2892
   31MOL   C36536425   0.120   6.680   5.849  0.5919  0.4455 -0.5023
   31MOL   C36636426   0.157   6.708   5.698  0.2135 -0.3257 -0.1623
   31MOL   C36736427   0.303   6.743   5.670  0.0863 -0.3117  0.3773
   31MOL   C36836428   0.336   6.785   5.527 -0.4419 -0.0000 -0.3541
   31MOL   C36936429   0.477   6.828   5.498 -0.8861 -0.0033  0.3587
   31MOL   C37036430   0.486   6.893   5.361  0.1630  0.2147 -0.0352
   31MOL   C37136431   0.491   6.797   5.245  0.4106  0.3462  0.0944
   31MOL   C37236432   0.547   6.853   5.115  0.3597  0.1429  0.0162
   31MOL   O37336433   0.481   6.975   5.082 -0.0918  0.3756  0.4688
   31MOL   C37436434   0.541   7.091   5.101  0.1399  0.5024 -0.1296
   31MOL   O37536435   0.658   7.106   5.132 -0.6231  0.0593 -0.2492
   31MOL   C37636436   0.458   7.214   5.086 -0.0650 -0.0193 -0.1299
   31MOL   C37736437   0.455   7.304   5.216 -0.2681 -0.0986 -0.3218
   31MOL   C37836438   0.387   7.249   5.342 -0.2577  0.0493  0.1794
   31MOL   C37936439   0.234   7.248   5.328 -0.0677  0.1987 -0.0060
   31MOL   C38036440   0.158   7.198   5.451 -0.2882 -0.7476 -0.6431
   31MOL   C38136441   0.010   7.183   5.419 -1.0113  0.0675 -0.1632
   31MOL   C38236442   7.691   7.114   5.530 -0.2775 -0.0979 -0.6474
   31MOL   C38336443   7.543   7.076   5.494 -0.3720  0.4656 -0.2452
   31MOL   C38436444   7.526   6.979   5.380 -0.6478 -0.6678 -0.4206
   31MOL   O38536445   7.463   7.011   5.278  0.6976  0.1070 -0.1635
   31MOL   H38636446   0.061   6.581   6.091 -0.4968  1.5158 -0.7606
   31MOL   H38736447   0.181   6.705   6.113 -0.5306  0.6282 -1.7700
   31MOL   H38836448   0.306   6.631   5.925 -0.6700 -0.1541  0.2467
   31MOL   H38936449   0.193   6.484   5.905 -1.4393  0.1679 -1.4724
   31MOL   H39036450   0.021   6.638   5.867  0.2811  0.9753 -0.9365
   31MOL   H39136451   0.118   6.782   5.888 -0.6996  0.1903  0.1397
   31MOL   H39236452   0.131   6.621   5.636  2.1800 -0.1041 -1.3238
   31MOL   H39336453   0.093   6.785   5.655  1.1921  0.9411  0.6175
   31MOL   H39436454   0.375   6.668   5.704 -0.7909 -0.6916  1.4181
   31MOL   H39536455   0.318   6.835   5.726  1.8343  1.8255 -3.4296
   31MOL   H39636456   0.263   6.856   5.488 -0.5266 -1.8708 -3.8645
   31MOL   H39736457   0.304   6.699   5.468 -1.0824  0.2006 -0.3005
   31MOL   H39836458   0.536   6.737   5.498 -0.4347  0.2887 -0.1565
   31MOL   H39936459   0.506   6.899   5.576 -0.8977 -0.7357  1.0287
   31MOL   H40036460   0.578   6.951   5.364 -1.2138  2.5031 -0.5996
   31MOL   H40136461   0.400   6.960   5.358  0.5094  0.8025  2.3086
   31MOL   H40236462   0.550   6.710   5.272 -0.1232 -0.3171 -0.8667
   31MOL   H40336463   0.388   6.772   5.221  0.5734 -0.1243 -0.1076
   31MOL   H40436464   0.652   6.874   5.136 -0.4001  2.6413  1.4839
   31MOL   H40536465   0.535   6.786   5.030 -0.5433 -1.8816  1.7215
   31MOL   H40636466   0.357   7.194   5.050  0.7830 -1.5400 -1.7072
   31MOL   H40736467   0.501   7.274   5.006  0.8297  1.4040  1.3640
   31MOL   H40836468   0.410   7.400   5.192  0.2600  0.3803  0.5773
   31MOL   H40936469   0.558   7.331   5.239 -0.0167 -0.7028 -0.7323
   31MOL   H41036470   0.410   7.331   5.410 -0.1083  1.1456 -1.1647
   31MOL   H41136471   0.432   7.157   5.381  0.8013  0.2232 -0.6181
   31MOL   H41236472   0.211   7.186   5.242  0.3571 -0.1339  0.1215
   31MOL   H41336473   0.189   7.346   5.308 -0.4238 -0.2938 -1.7364
   31MOL   H41436474   0.203   7.104   5.485 -0.9459  0.3157  3.3822
   31MOL   H41536475   0.180   7.276   5.523  2.1553 -1.5252 -0.5295
   31MOL   H41636476   7.732   7.284   5.403 -2.7361 -0.5376 -0.3388
   31MOL   H41736477   7.755   7.140   5.320  0.1350 -0.7355  0.0317
   31MOL   H41836478   7.694   7.170   5.623  1.0052  0.9407 -1.3043
   31MOL   H41936479   7.739   7.018   5.549  1.6345  0.9828  0.0907
   31MOL   H42036480   7.487   7.041   5.581 -1.5411  2.3374 -0.2053
   31MOL   H42136481   7.489   7.164   5.460 -1.2876  0.1013  0.2415
   31MOL   O42236482   7.583   6.861   5.407 -0.3668 -0.6404 -0.3678
   31MOL   C42336483   7.571   6.759   5.310 -0.4666 -0.3429 -0.1332
   31MOL   C42436484   7.650   6.639   5.341  1.1007  0.1210  0.2783
   31MOL   C42536485   7.611   6.513   5.255  0.3164 -0.0012  0.3783
   31MOL   C42636486   7.697   6.385   5.297 -0.2539  0.0313 -0.2479
   31MOL   C42736487   7.655   6.331   5.433  0.0175 -0.7008 -0.1306
   31MOL   C42836488   7.742   6.206   5.466  0.5863 -0.3152 -0.5349
   31MOL   C42936489   7.670   6.071   5.492 -0.5557 -0.5081 -0.4392
   31MOL   C43036490   0.013   5.977   5.563 -0.5325  0.1454  0.2447
   31MOL   C43136491   7.740   5.832   5.532  0.2316  0.3533  0.0324
   31MOL   C43236492   0.095   5.731   5.587 -0.2726 -0.4340  0.4700
   31MOL   O43336493   0.042   5.600   5.568  0.0322  0.1789  0.3700
   31MOL   C43436494   0.097   5.487   5.617  0.2713  0.4120 -0.3875
   31MOL   O43536495   0.203   5.488   5.678 -0.5677  0.1371 -0.2385
   31MOL   C43636496   0.028   5.357   5.582 -0.4276  0.3344 -0.0799
   31MOL   C43736497   7.629   5.366   5.582  0.2519  0.4348  0.1035
   31MOL   C43836498   7.568   5.411   5.448 -0.5987  0.4081  0.3919
   31MOL   C43936499   7.423   5.381   5.441  0.0969 -0.4506 -0.3040
   31MOL   C44036500   7.363   5.365   5.299 -0.0757 -0.1003  0.3095
   31MOL   C44136501   7.376   5.489   5.208  0.5000  0.1337 -0.2305
   31MOL   C44236502   7.305   5.476   5.071  0.1198  0.0251  0.0310
   31MOL   C44336503   7.300   5.603   4.985  0.1180 -0.3811  0.5304
   31MOL   C44436504   7.441   5.631   4.920 -0.2790 -0.0918  0.1934
   31MOL   O44536505   7.530   5.693   4.975  0.0610  0.4807  0.0896
   31MOL   H44636506   7.468   6.728   5.293 -0.3558 -0.5897 -0.3623
   31MOL   H44736507   7.617   6.798   5.219 -0.6109 -3.9601 -1.8276
   31MOL   H44836508   7.754   6.661   5.316  1.2184  1.2838  1.7415
   31MOL   H44936509   7.650   6.616   5.447 -0.6896  2.8313  0.9195
   31MOL   H45036510   7.504   6.493   5.264  0.1642 -0.2100 -1.7512
   31MOL   H45136511   7.623   6.523   5.148  0.0630  0.7518  0.4121
   31MOL   H45236512   7.685   6.302   5.227 -1.6358  0.3188 -0.3613
   31MOL   H45336513   0.045   6.414   5.298 -0.5704  1.1788  0.3037
   31MOL   H45436514   7.550   6.302   5.431 -0.3748  0.1849  3.7859
   31MOL   H45536515   7.668   6.407   5.510  2.9817  0.0431 -1.2687
   31MOL   H45636516   0.032   6.230   5.561  1.1772 -1.4565 -0.5249
   31MOL   H45736517   0.067   6.200   5.394  1.4728  1.8455  0.2776
   31MOL   H45836518   7.635   6.030   5.397  0.9065  0.6776 -1.5233
   31MOL   H45936519   7.583   6.075   5.557  0.2371 -0.9896  0.6718
   31MOL   H46036520   0.030   5.986   5.670 -0.2785 -1.5283  0.3491
   31MOL   H46136521   0.112   6.002   5.525  0.1522  0.6973  2.3482
   31MOL   H46236522   7.641   5.809   5.570 -0.3020  1.3424 -0.7492
   31MOL   H46336523   7.723   5.812   5.426 -1.3393 -2.8212  0.8126
   31MOL   H46436524   0.188   5.749   5.535 -0.0286 -2.4548  0.1667
   31MOL   H46536525   0.101   5.748   5.694  3.4336  0.6094  0.1544
   31MOL   H46636526   0.069   5.285   5.653  0.6584  1.3272  0.3107
   31MOL   H46736527   0.062   5.337   5.481  1.8774  1.0287  0.5321
   31MOL   H46836528   7.599   5.441   5.655 -0.2474 -0.1834  0.5436
   31MOL   H46936529   7.599   5.263   5.602  0.5903  0.6389  1.7586
   31MOL   H47036530   7.620   5.364   5.365 -2.0410 -1.2860  0.4164
   31MOL   H47136531   7.590   5.515   5.425  0.3102 -0.0298 -0.7946
   31MOL   H47236532   7.357   5.456   5.485  0.9067 -0.7603  1.5055
   31MOL   H47336533   7.393   5.287   5.488 -2.2965 -0.1521 -1.1370
   31MOL   H47436534   7.416   5.284   5.250  0.5851 -0.1652  1.1121
   31MOL   H47536535   7.256   5.348   5.307  0.1390 -1.9299 -0.4170
   31MOL   H47636536   7.342   5.577   5.263 -0.2930 -0.3907  0.1226
   31MOL   H47736537   7.480   5.509   5.181  0.6638 -0.8691 -0.3662
   31MOL   H47836538   7.202   5.446   5.094 -0.8125  2.6020 -0.5862
   31MOL   H47936539   7.338   5.395   5.006 -0.1888  0.2661 -0.4282
   31MOL   H48036540   7.227   5.593   4.905  0.4567  0.9663  0.0391
   31MOL   H48136541   7.264   5.686   5.046  0.3737  2.1348 -2.6270
   31MOL   O48236542   7.453   5.560   4.803  0.0188  0.5698 -0.1294
   31MOL   C48336543   7.560   5.586   4.709  0.6555  0.3410 -0.1929
   31MOL   C48436544   7.520   5.501   4.579  0.8855 -0.1314 -0.2565
   31MOL   C48536545   7.529   5.349   4.611 -0.1835 -0.7517 -0.5448
   31MOL   C48636546   7.482   5.266   4.491  0.0508 -0.4807 -0.2991
   31MOL   C48736547   7.490   5.109   4.515  0.3825 -0.5024 -0.6240
   31MOL   C48836548   7.442   5.031   4.390 -0.7052  0.6823  0.6224
   31MOL   C48936549   7.438   4.879   4.414  0.2264  0.4931  0.1133
   31MOL   C49036550   7.569   4.813   4.462 -0.8785  0.9780  0.6285
   31MOL   C49136551   7.547   4.660   4.463  0.1929 -0.7850  0.4240
   31MOL   C49236552   7.665   4.579   4.505  0.7547  0.5187 -0.1038
   31MOL   O49336553   7.636   4.441   4.482  0.4239  0.3381 -0.0497
   31MOL   C49436554   7.706   4.335   4.547  0.0540  0.0330 -0.0404
   31MOL   O49536555   0.052   4.345   4.613  0.2592 -0.4909 -0.7858
   31MOL   C49636556   7.645   4.196   4.526 -0.5435  0.0910  0.0750
   31MOL   C49736557   7.696   4.121   4.398  0.2562  0.4797  0.3453
   31MOL   C49836558   0.081   4.071   4.422  0.0846  0.5247 -0.6816
   31MOL   C49936559   0.133   4.013   4.294 -0.2336  0.2249 -0.0556
   31MOL   C50036560   0.280   3.975   4.306 -0.2980  0.2795 -0.1141
   31MOL   C50136561   0.344   3.932   4.175 -0.4491  0.0840 -0.8773
   31MOL   C50236562   0.304   3.792   4.136  0.0629  0.5305 -0.0984
   31MOL   C50336563   0.415   3.725   4.056 -0.7390 -0.5896  0.0529
   31MOL   C50436564   0.513   3.641   4.138 -0.7938  0.6325 -0.2019
   31MOL   O50536565   0.483   3.522   4.172 -0.4173  0.1830 -0.3925
   31MOL   H50636566   7.545   5.689   4.675 -0.1066  0.1526 -0.4385
   31MOL   H50736567   7.660   5.555   4.738  0.0783 -0.9702  0.4225
   31MOL   H50836568   7.419   5.522   4.544  0.8292 -1.8788 -1.1695
   31MOL   H50936569   7.578   5.538   4.495  0.9869  1.5462  0.5312
   31MOL   H51036570   7.622   5.307   4.651 -1.0286 -1.1627  1.0617
   31MOL   H51136571   7.460   5.329   4.693  1.7150 -1.7476  0.8755
   31MOL   H51236572   7.375   5.284   4.484 -0.1448 -0.4982  2.1836
   31MOL   H51336573   7.529   5.300   4.399  1.1272 -0.8982  0.0842
   31MOL   H51436574   7.435   5.090   4.607  1.1960  2.2968  0.5029
   31MOL   H51536575   7.591   5.082   4.543  0.5783 -1.9531 -2.6361
   31MOL   H51636576   7.512   5.061   4.311  0.2289  0.2152  1.2591
   31MOL   H51736577   7.343   5.071   4.368 -0.9233 -0.3831 -0.3669
   31MOL   H51836578   7.394   4.831   4.326 -1.9544 -1.0422  1.9716
   31MOL   H51936579   7.366   4.867   4.495  0.9721 -1.8796  0.4418
   31MOL   H52036580   7.596   4.849   4.561 -0.3201  2.0020  0.1083
   31MOL   H52136581   7.651   4.832   4.393 -1.6780 -2.5002 -1.4035
   31MOL   H52236582   7.460   4.632   4.522  1.1389 -1.1949  1.6304
   31MOL   H52336583   7.519   4.630   4.362  0.3693  0.9483 -0.1512
   31MOL   H52436584   7.747   4.615   4.442  0.9446  0.2620 -0.0068
   31MOL   H52536585   7.692   4.606   4.607 -1.0208  2.0843 -0.0252
   31MOL   H52636586   7.538   4.210   4.513 -0.9349 -4.3072 -2.2564
   31MOL   H52736587   7.657   4.132   4.614  0.4862 -1.3008 -1.0620
   31MOL   H52836588   7.693   4.181   4.308 -3.3325  0.7696  0.5712
   31MOL   H52936589   7.630   4.036   4.380  0.0944 -0.1644  3.5927
   31MOL   H53036590   0.083   3.992   4.497  0.8615  0.5554 -0.6710
   31MOL   H53136591   0.152   4.144   4.458  1.2795 -0.9235 -0.0747
   31MOL   H53236592   0.116   4.079   4.210 -0.8345 -1.2286 -1.0966
   31MOL   H53336593   0.067   3.931   4.265 -0.9195 -0.3471  2.8940
   31MOL   H53436594   0.331   4.064   4.342 -2.8735  0.9993  1.8301
   31MOL   H53536595   0.302   3.911   4.392  1.8812 -0.2644 -1.0484
   31MOL   H53636596   0.306   4.000   4.098  0.2830  1.2484 -0.2284
   31MOL   H53736597   0.451   3.944   4.193 -0.8160  1.5634  0.4699
   31MOL   H53836598   0.227   3.796   4.059  0.7819  3.3669 -0.7273
   31MOL   H53936599   0.261   3.719   4.205  1.5737 -0.9109 -0.6456
   31MOL   H54036600   0.368   3.660   3.983  0.1631 -4.2121  2.5601
   31MOL   H54136601   0.474   3.792   3.993 -0.9419  0.6782  1.1716
   31MOL   O54236602   0.627   3.694   4.144  0.2279 -0.1459  0.2088
   31MOL   C54336603   0.724   3.637   4.220 -0.2085  0.1960 -0.2293
   31MOL   C54436604   0.820   3.751   4.266 -0.4136  0.9724 -0.2298
   31MOL   C54536605   0.773   3.832   4.385 -0.3771 -0.1538  0.3728
   31MOL   C54636606   0.884   3.900   4.454 -0.3671 -0.7942  0.7967
   31MOL   C54736607   0.845   3.994   4.564 -0.1119 -0.1501  1.0031
   31MOL   C54836608   0.953   4.087   4.628 -0.4518 -0.1437 -0.5342
   31MOL   C54936609   0.895   4.153   4.756  1.2537  0.3005  0.3260
   31MOL   C55036610   1.000   4.240   4.838 -0.5077  0.0901 -0.0774
   31MOL   C55136611   1.117   4.169   4.883  0.6757  0.0699 -0.5877
   31MOL   C55236612   1.213   4.255   4.965  0.8614  0.2589 -0.5905
   31MOL   O55336613   1.317   4.171   5.015 -0.0318 -0.1158  0.5545
   31MOL   C55436614   1.447   4.165   4.971  0.0010  0.0110 -0.1133
   31MOL   O55536615   1.486   4.228   4.878 -0.1492 -0.0505  0.0749
   31MOL   C55636616   1.535   4.069   5.054 -0.2301  0.0413  0.1650
   31MOL   C55736617   1.517   3.916   5.006  0.8718 -0.6475  0.3695
   31MOL   C55836618   1.585   3.805   5.092  0.3261  0.3507 -0.5496
   31MOL   C55936619   1.482   3.703   5.122  0.9106  0.1567 -0.0681
   31MOL   C56036620   1.544   3.583   5.187  0.0497  0.2512 -0.2300
   31MOL   C56136621   1.431   3.474   5.216 -0.1495  0.0650  0.1479
   31MOL   C56236622   1.480   3.352   5.291 -0.5122 -0.3319  0.3317
   31MOL   C56336623   1.382   3.239   5.299 -0.0343 -0.4488 -0.0766
   31MOL   C56436624   1.345   3.184   5.160  0.1659 -0.0105 -0.7292
   31MOL   O56536625   1.427   3.150   5.069 -0.3941 -0.4169  0.7398
   31MOL   H56636626   0.692   3.588   4.311  1.5054  0.2902  0.4325
   31MOL   H56736627   0.761   3.568   4.144 -0.3555  0.1063 -0.2200
   31MOL   H56836628   0.921   3.710   4.280 -0.5074  0.8469  0.0765
   31MOL   H56936629   0.846   3.814   4.181  0.9408 -2.6305 -2.6547
   31MOL   H57036630   0.695   3.902   4.352  1.1896  0.9524 -1.0634
   31MOL   H57136631   0.726   3.768   4.459  1.6792 -0.9382  1.0216
   31MOL   H57236632   0.953   3.823   4.490  2.8907  0.2073 -2.9702
   31MOL   H57336633   0.941   3.962   4.385  0.2387 -1.5995  0.5646
   31MOL   H57436634   0.810   3.925   4.642 -0.6577  0.3889  1.2385
   31MOL   H57536635   0.758   4.053   4.539  0.3741  0.5174  0.8752
   31MOL   H57636636   0.980   4.159   4.550 -2.3243 -0.8485 -1.8587
   31MOL   H57736637   1.041   4.028   4.653  0.2185  1.0529  0.0084
   31MOL   H57836638   0.854   4.078   4.824  1.1785  0.4216  0.4139
   31MOL   H57936639   0.810   4.214   4.727  0.4351 -1.1396 -0.3206
   31MOL   H58036640   0.957   4.284   4.928 -1.9497  0.9769 -1.1794
   31MOL   H58136641   1.025   4.323   4.773 -1.8602  0.6169  0.0665
   31MOL   H58236642   1.089   4.082   4.943 -2.5510  1.7851  0.5144
   31MOL   H58336643   1.178   4.136   4.799  0.9296  0.2486 -0.4758
   31MOL   H58436644   1.251   4.338   4.906  0.7036 -0.1496 -1.2645
   31MOL   H58536645   1.155   4.300   5.045  1.8993 -1.2318  1.0552
   31MOL   H58636646   1.513   4.067   5.161 -0.8672 -1.3179  0.0262
   31MOL   H58736647   1.638   4.104   5.044 -1.0331  1.8959 -2.2797
   31MOL   H58836648   1.557   3.903   4.905  0.2346  3.1138 -0.4272
   31MOL   H58936649   1.409   3.897   5.001  0.8435 -0.0041 -1.8787
   31MOL   H59036650   1.629   3.866   5.172 -1.3133  1.4223 -0.4372
   31MOL   H59136651   1.671   3.757   5.046  1.4290 -0.2671  2.0413
   31MOL   H59236652   1.430   3.674   5.031 -3.2232  0.3210  2.1222
   31MOL   H59336653   1.410   3.739   5.196  0.1458 -0.8960 -0.2775
   31MOL   H59436654   1.614   3.532   5.121 -0.3237  1.5368 -1.6638
   31MOL   H59536655   1.587   3.630   5.275 -1.5684  0.3919  0.5051
   31MOL   H59636656   1.353   3.526   5.271 -0.4234  0.1165 -0.2837
   31MOL   H59736657   1.379   3.452   5.123  1.7507 -0.7374 -0.7554
   31MOL   H59836658   1.517   3.376   5.391  2.2734 -4.8389  0.5281
   31MOL   H59936659   1.572   3.315   5.246 -1.5438 -2.1722 -0.3194
   31MOL   H60036660   1.438   3.159   5.346  1.0953 -0.6092 -1.6559
   31MOL   H60136661   1.296   3.259   5.364  0.4212 -0.9063  0.6678
   31MOL   O60236662   1.212   3.183   5.138  0.2585  0.2871  0.4133
   31MOL   C60336663   1.141   3.143   5.014 -0.5858  0.0386  0.5263
   31MOL   C60436664   1.172   3.258   4.915 -1.1654 -0.2912  0.4253
   31MOL   C60536665   1.111   3.394   4.955  0.0215 -0.5409  0.5719
   31MOL   C60636666   1.157   3.503   4.849  0.1863 -0.1806 -0.2843
   31MOL   C60736667   1.104   3.651   4.875  0.6024  0.2107 -0.0587
   31MOL   C60836668   0.965   3.682   4.810 -0.9349  0.2006 -0.1808
   31MOL   C60936669   0.843   3.665   4.893 -0.5069 -0.0909  0.1435
   31MOL   C61036670   0.724   3.720   4.814  0.2027 -0.0890  0.1816
   31MOL   C61136671   0.597   3.647   4.864 -0.5539  0.3269  0.6745
   31MOL   C61236672   0.453   3.700   4.833 -0.7207  0.3234  0.2625
   31MOL   O61336673   0.434   3.679   4.693  0.3603  0.3401  0.4717
   31MOL   C61436674   0.355   3.582   4.654  0.0352  0.4099 -0.0266
   31MOL   O61536675   0.298   3.503   4.730 -0.1696 -0.0253  0.3552
   31MOL   C61636676   0.335   3.584   4.507 -0.7652  0.3617 -0.6318
   31MOL   C61736677   0.223   3.485   4.463  0.7266  0.6605 -0.2878
   31MOL   C61836678   0.081   3.518   4.510  0.6601  0.3270  0.3395
   31MOL   C61936679   0.026   3.652   4.457 -0.7936 -0.1896  0.2008
   31MOL   C62036680   7.626   3.648   4.459 -0.5855  1.0083  0.0044
   31MOL   C62136681   7.564   3.780   4.429 -0.2934  0.4489 -0.0801
   31MOL   C62236682   7.417   3.784   4.393  0.2569 -0.2001 -0.2123
   31MOL   C62336683   7.353   3.929   4.387 -0.0920 -0.0904  0.2148
   31MOL   C62436684   7.209   3.930   4.343 -0.5515 -0.6677 -0.2173
   31MOL   O62536685   7.123   3.913   4.425  0.1953  1.0961  0.3861
   31MOL   H62636686   1.176   3.047   4.975  1.8740  0.9867  0.3398
   31MOL   H62736687   1.034   3.132   5.035 -0.4695 -2.5490 -0.0402
   31MOL   H62836688   1.279   3.262   4.897 -1.2243  0.1491  0.1658
   31MOL   H62936689   1.132   3.225   4.819  0.6607 -0.0645 -0.4397
   31MOL   H63036690   1.003   3.384   4.961 -0.0168  0.7962  2.2827
   31MOL   H63136691   1.141   3.421   5.056 -0.0249  1.9050 -0.0429
   31MOL   H63236692   1.264   3.516   4.865 -0.0522 -0.7925  1.9876
   31MOL   H63336693   1.139   3.473   4.746  0.2756  2.4747 -1.1331
   31MOL   H63436694   1.177   3.728   4.845 -0.5098  1.1212 -0.4661
   31MOL   H63536695   1.100   3.673   4.982  2.8481 -2.4850  0.6415
   31MOL   H63636696   0.955   3.623   4.719  0.8272 -0.5432  0.0882
   31MOL   H63736697   0.978   3.788   4.788  0.8624  0.1637  0.6506
   31MOL   H63836698   0.844   3.702   4.995 -3.2581  0.7672 -0.1043
   31MOL   H63936699   0.828   3.557   4.897 -0.6705 -0.0728  0.0337
   31MOL   H64036700   0.738   3.703   4.707 -2.0243  2.6211 -0.5983
   31MOL   H64136701   0.709   3.827   4.825 -1.4632 -0.1773 -1.1008
   31MOL   H64236702   0.609   3.542   4.838 -0.1457  0.5399  0.0029
   31MOL   H64336703   0.601   3.653   4.973  2.0578  1.7476  0.5376
   31MOL   H64436704   0.370   3.653   4.888  0.1036 -1.0502  0.3606
   31MOL   H64536705   0.448   3.806   4.857  2.1769  1.2782 -2.9704
   31MOL   H64636706   0.433   3.572   4.460 -0.4902  0.2488 -0.0413
   31MOL   H64736707   0.305   3.685   4.479 -0.4550  0.5546 -0.2809
   31MOL   H64836708   0.247   3.384   4.497  0.1676  0.9661  1.0282
   31MOL   H64936709   0.212   3.483   4.354 -1.7199 -0.2864 -0.0571
   31MOL   H65036710   0.087   3.525   4.619  0.0172  1.6171  0.2957
   31MOL   H65136711   0.025   3.428   4.485  1.4652 -0.2273  0.5313
   31MOL   H65236712   0.063   3.668   4.356  0.4521 -1.8049  0.3959
   31MOL   H65336713   0.065   3.735   4.516  2.5402 -2.5121  1.3902
   31MOL   H65436714   7.592   3.587   4.375 -1.6954  3.3838 -1.3376
   31MOL   H65536715   7.588   3.610   4.553  0.6587 -2.3736 -0.8059
   31MOL   H65636716   7.585   3.849   4.511 -2.4139 -1.1347  1.8742
   31MOL   H65736717   7.622   3.815   4.343 -3.4604  0.1172 -2.4517
   31MOL   H65836718   7.366   3.733   4.475 -0.2491  0.5552 -0.0551
   31MOL   H65936719   7.405   3.737   4.296  2.7535 -0.4836 -0.4042
   31MOL   H66036720   7.360   3.972   4.487  0.1384  3.5277 -1.2680
   31MOL   H66136721   7.417   3.986   4.319  0.1258  0.9795  1.3037
   31MOL   O66236722   7.197   3.952   4.211 -0.0150  0.1327  0.5008
   31MOL   C66336723   7.067   3.945   4.152 -0.4300 -0.3025 -0.5524
   31MOL   C66436724   7.010   4.085   4.124  0.0959  0.2097  0.4769
   31MOL   C66536725   7.039   4.149   3.984 -0.9164 -0.2411  0.4128
   31MOL   C66636726   6.960   4.282   3.959  0.0528  0.2686 -0.4044
   31MOL   C66736727   7.018   4.380   3.852  0.1693 -0.4907 -0.5525
   31MOL   C66836728   6.921   4.487   3.802 -0.3190 -0.1379 -0.6322
   31MOL   C66936729   6.996   4.578   3.707  0.0736  0.1651  0.5001
   31MOL   C67036730   6.897   4.676   3.640  0.0053 -0.5622  0.1654
   31MOL   C67136731   6.966   4.806   3.576  0.1612 -0.1401  0.0476
   31MOL   C67236732   6.856   4.915   3.539 -0.1124 -0.1462 -0.1294
   31MOL   O67336733   6.772   4.869   3.437 -0.0686 -0.4440  0.4793
   31MOL   C67436734   6.655   4.930   3.408  0.3035 -0.3706 -0.6649
   31MOL   O67536735   6.608   5.027   3.468 -0.4941  0.0424  0.1074
   31MOL   C67636736   6.597   4.867   3.280  0.0204  0.4759  0.5015
   31MOL   C67736737   6.496   4.749   3.302 -0.1538  0.4331 -0.1058
   31MOL   C67836738   6.554   4.628   3.374 -0.0619  0.2046 -0.3862
   31MOL   C67936739   6.466   4.500   3.371 -0.1283 -0.1266  0.2717
   31MOL   C68036740   6.530   4.374   3.429 -0.2694 -0.9686 -0.2500
   31MOL   C68136741   6.576   4.407   3.573  0.0738 -0.1060  0.2885
   31MOL   C68236742   6.615   4.280   3.659 -0.2221 -0.3144  0.2862
   31MOL   C68336743   6.588   4.285   3.815 -0.1697  0.4421  0.0487
   31MOL   C68436744   6.439   4.268   3.826  0.1195 -0.0513 -0.0877
   31MOL   O68536745   6.368   4.361   3.866 -0.4368 -0.0411 -0.0619
   31MOL   H68636746   7.083   3.898   4.055  1.3952 -0.8099 -0.0104
   31MOL   H68736747   6.994   3.879   4.199 -0.0863 -0.7392 -0.6263
   31MOL   H68836748   6.904   4.084   4.151  0.1005 -0.3173  0.4672
   31MOL   H68936749   7.053   4.156   4.194  0.0344  2.9354 -2.1185
   31MOL   H69036750   7.143   4.184   3.985 -0.9001 -0.2911  0.5700
   31MOL   H69136751   7.012   4.085   3.900  1.6039  1.8755 -2.0824
   31MOL   H69236752   6.862   4.254   3.919  0.7288  0.4886 -2.2626
   31MOL   H69336753   6.953   4.331   4.056 -0.4063 -3.2000  1.4119
   31MOL   H69436754   7.055   4.324   3.766  3.0877  1.6801 -0.7720
   31MOL   H69536755   7.112   4.418   3.891  0.4001 -3.0693  1.5457
   31MOL   H69636756   6.873   4.545   3.881 -0.4714 -0.6918 -0.3188
   31MOL   H69736757   6.841   4.438   3.746  1.8868 -3.3066 -1.1183
   31MOL   H69836758   7.048   4.522   3.629 -0.7121  1.8604 -1.2793
   31MOL   H69936759   7.077   4.631   3.757 -1.6283  1.4974  1.9191
   31MOL   H70036760   6.827   4.705   3.718  0.8060  2.9237 -0.3161
   31MOL   H70136761   6.836   4.628   3.564  1.5106  0.4748 -1.7387
   31MOL   H70236762   7.026   4.857   3.652  0.6543 -1.5122  0.6102
   31MOL   H70336763   7.032   4.777   3.495  1.3377  1.1346  0.5367
   31MOL   H70436764   6.805   4.943   3.631 -2.1990 -2.2369 -0.6218
   31MOL   H70536765   6.904   5.010   3.512 -0.7929  0.3013  0.2139
   31MOL   H70636766   6.681   4.835   3.218  0.4378  1.2188  0.6799
   31MOL   H70736767   6.543   4.948   3.230 -2.5572  0.7747  3.6420
   31MOL   H70836768   6.467   4.718   3.202  1.7272  0.0735 -0.5537
   31MOL   H70936769   6.407   4.768   3.362  0.8720  0.9656  1.2909
   31MOL   H71036770   6.547   4.666   3.476 -0.2642 -0.6789 -0.0714
   31MOL   H71136771   6.654   4.594   3.350 -0.0465  0.0491 -0.0997
   31MOL   H71236772   6.449   4.484   3.264  1.2110  0.2178  0.0007
   31MOL   H71336773   6.365   4.512   3.411  0.1570 -2.5433  1.8272
   31MOL   H71436774   6.456   4.293   3.427 -3.6857  1.9624  2.0481
   31MOL   H71536775   6.618   4.335   3.379  0.1279 -2.2620  1.4214
   31MOL   H71636776   6.656   4.480   3.577  1.4429 -1.5598  0.1042
   31MOL   H71736777   6.501   4.464   3.627  0.7912  2.8189 -1.6882
   31MOL   H71836778   6.722   4.274   3.644 -0.2328 -1.8057  0.7000
   31MOL   H71936779   6.561   4.203   3.604 -0.0594  1.9871 -3.2372
   31MOL   H72036780   6.635   4.195   3.853  0.3450  0.2010 -1.1296
   31MOL   H72136781   6.608   4.380   3.864 -2.4242  1.0675 -0.1578
   31MOL   O72236782   6.410   4.141   3.790 -0.1960  0.4707 -0.1764
   31MOL   C72336783   6.280   4.092   3.795  1.1339 -0.1760  0.4050
   31MOL   C72436784   6.201   4.114   3.669 -0.2632 -0.0610  0.6170
   31MOL   C72536785   6.101   4.002   3.636 -0.2744  0.0337  0.2918
   31MOL   C72636786   6.046   4.019   3.497  0.0596 -0.7401 -0.0168
   31MOL   C72736787   5.970   4.143   3.468  0.5335  0.6593  0.5138
   31MOL   C72836788   5.822   4.135   3.519 -1.0167  0.3141 -0.6098
   31MOL   C72936789   5.729   4.233   3.453  0.5614 -0.4951  0.4227
   31MOL   C73036790   5.756   4.375   3.512 -0.3216  0.1481  0.1138
   31MOL   C73136791   5.641   4.477   3.478  0.1910  0.2109  0.0120
   31MOL   C73236792   5.657   4.602   3.551 -0.6386 -0.4612 -0.6662
   31MOL   O73336793   5.538   4.676   3.547  0.6576 -0.2652  0.7207
   31MOL   C73436794   5.457   4.703   3.647 -0.5112  0.0482 -0.5120
   31MOL   O73536795   5.484   4.698   3.767 -0.4866  0.0680  0.2279
   31MOL   C73636796   5.315   4.749   3.596 -0.4366  0.1208 -0.1118
   31MOL   C73736797   5.202   4.649   3.585  0.7030  0.7867  0.0222
   31MOL   C73836798   5.216   4.547   3.471  0.3067  0.5078  0.0661
   31MOL   C73936799   5.098   4.452   3.477  0.3183  0.0955 -0.2216
   31MOL   C74036800   5.106   4.337   3.379  0.5123  0.1644 -0.2136
   31MOL   C74136801   4.992   4.243   3.384  0.6161  0.7505  0.1447
   31MOL   C74236802   4.851   4.293   3.370  1.2177 -0.0249  0.0017
   31MOL   C74336803   4.814   4.364   3.230  0.0337 -0.4585  0.3123
   31MOL   C74436804   4.883   4.304   3.104  0.0556 -0.2535  0.3075
   31MOL   O74536805   4.979   4.357   3.054  0.2155 -0.4225 -0.2840
   31MOL   H74636806   6.305   3.986   3.804 -0.5616 -0.7876 -1.6041
   31MOL   H74736807   6.218   4.122   3.880 -1.5731 -2.2934 -0.7158
   31MOL   H74836808   6.164   4.216   3.674  1.2050  0.5618 -0.7911
   31MOL   H74936809   6.272   4.122   3.587 -0.7762 -0.2484  0.1569
   31MOL   H75036810   6.149   3.904   3.637 -0.8385 -0.2512 -0.5049
   31MOL   H75136811   6.027   4.005   3.716 -1.9646 -0.1067 -1.2368
   31MOL   H75236812   6.125   4.015   3.423  0.3448 -1.3162  0.3212
   31MOL   H75336813   5.989   3.927   3.482  1.9063 -1.7477 -0.8726
   31MOL   H75436814   5.959   4.175   3.364 -1.9634 -1.2659  0.1556
   31MOL   H75536815   6.009   4.233   3.516 -2.0235  2.2085 -0.1914
   31MOL   H75636816   5.815   4.147   3.627 -1.1418  0.1575 -0.5991
   31MOL   H75736817   5.787   4.037   3.487  2.1592 -0.9429 -0.4289
   31MOL   H75836818   5.635   4.195   3.494  0.0919  0.5911  0.3828
   31MOL   H75936819   5.721   4.232   3.345  0.2061 -1.9291  0.4546
   31MOL   H76036820   5.852   4.414   3.479 -1.2036  2.0026 -0.3145
   31MOL   H76136821   5.776   4.370   3.619 -0.3442  0.5518  0.1363
   31MOL   H76236822   5.634   4.497   3.371  0.7952 -1.4266 -0.3439
   31MOL   H76336823   5.544   4.443   3.515  0.8027 -1.4894  0.0661
   31MOL   H76436824   5.694   4.593   3.652 -2.3097 -0.7132 -0.0580
   31MOL   H76536825   5.732   4.660   3.497  0.2479 -0.7345  0.2608
   31MOL   H76636826   5.323   4.808   3.505 -1.1023 -1.0960 -0.9772
   31MOL   H76736827   5.287   4.818   3.675  1.2454 -1.7152  2.1578
   31MOL   H76836828   5.114   4.708   3.561  0.7602  0.6337 -0.5649
   31MOL   H76936829   5.198   4.598   3.681  0.2916  0.6914 -0.0456
   31MOL   H77036830   5.305   4.487   3.490 -0.0977 -0.7421 -1.8410
   31MOL   H77136831   5.229   4.599   3.377 -0.4393 -1.1460 -0.9795
   31MOL   H77236832   5.007   4.511   3.464  0.3223 -0.0087 -0.7581
   31MOL   H77336833   5.102   4.402   3.574 -2.0155 -0.3625 -0.3339
   31MOL   H77436834   5.109   4.379   3.279 -0.1242  2.3640  0.6737
   31MOL   H77536835   5.203   4.288   3.382 -0.6020 -2.1538 -0.2969
   31MOL   H77636836   5.016   4.176   3.302 -2.5602 -0.5256  0.1476
   31MOL   H77736837   5.012   4.178   3.470  1.4923 -1.6761 -1.8296
   31MOL   H77836838   4.841   4.363   3.453 -2.7213 -1.4745  0.8302
   31MOL   H77936839   4.779   4.215   3.395  0.3621  1.1439  1.2304
   31MOL   H78036840   4.707   4.349   3.213  0.1190 -1.1491  0.3797
   31MOL   H78136841   4.822   4.473   3.242  2.4727 -0.5265 -0.4582
   31MOL   O78236842   4.825   4.192   3.064 -0.3950  0.9452 -0.6579
   31MOL   C78336843   4.877   4.125   2.946  0.8869 -0.5203 -1.0940
   31MOL   C78436844   4.850   3.975   2.955  1.1368 -0.2983 -0.5189
   31MOL   C78536845   4.702   3.952   2.932  0.0565 -1.0357  0.0005
   31MOL   C78636846   4.656   3.809   2.916 -0.9646 -0.1615 -0.0231
   31MOL   C78736847   4.501   3.790   2.902  0.2252 -0.0437  0.3564
   31MOL   C78836848   4.448   3.814   2.757 -0.1821 -0.1277  0.2007
   31MOL   C78936849   4.318   3.727   2.745  0.1221 -0.2739  0.1874
   31MOL   C79036850   4.248   3.737   2.612 -0.6932 -0.3830 -0.1841
   31MOL   C79136851   4.117   3.651   2.603  0.2513 -0.2977 -0.2155
   31MOL   C79236852   4.052   3.649   2.461  0.5335  0.4444 -0.3161
   31MOL   O79336853   4.133   3.583   2.372  0.2160  0.3476 -0.1306
   31MOL   C79436854   4.084   3.511   2.273 -0.6423 -0.3105  0.0458
   31MOL   O79536855   3.965   3.501   2.236 -0.0136 -0.0907 -0.5197
   31MOL   C79636856   4.194   3.443   2.190 -0.1910  0.2448 -0.4686
   31MOL   C79736857   4.278   3.332   2.262 -0.4095  0.4773  0.6538
   31MOL   C79836858   4.392   3.259   2.177  0.0098  0.0045  0.6520
   31MOL   C79936859   4.477   3.144   2.249 -0.1249  0.9290 -0.5191
   31MOL   C80036860   4.594   3.101   2.147 -0.0777 -0.4768 -0.1179
   31MOL   C80136861   4.670   2.981   2.201  0.4188 -0.0779  0.2286
   31MOL   C80236862   4.733   2.909   2.081 -0.2302  0.1910 -0.6491
   31MOL   C80336863   4.869   2.966   2.031 -0.3744  0.5071 -0.5756
   31MOL   C80436864   4.988   2.915   2.110  0.4398  0.6248  0.1304
   31MOL   O80536865   5.034   2.802   2.095 -0.2252 -0.2158 -0.2014
   31MOL   H80636866   4.833   4.167   2.856  0.7489  0.1077 -0.7377
   31MOL   H80736867   4.985   4.138   2.941  1.0357 -1.2700 -0.1742
   31MOL   H80836868   4.896   3.930   2.867  3.0389 -0.7431  0.6763
   31MOL   H80936869   4.883   3.926   3.046 -1.0964  1.9644  1.5563
   31MOL   H81036870   4.651   3.989   3.021  0.3503  1.9310 -1.0160
   31MOL   H81136871   4.668   4.009   2.845 -1.7007 -0.1509  1.2431
   31MOL   H81236872   4.702   3.769   2.826 -0.9909 -0.0988 -0.0636
   31MOL   H81336873   4.692   3.741   2.994 -3.2534 -0.8728  0.4676
   31MOL   H81436874   4.450   3.852   2.975 -1.4855  0.0131 -0.8807
   31MOL   H81536875   4.495   3.684   2.928 -0.2337 -0.1137 -0.0271
   31MOL   H81636876   4.525   3.795   2.682 -0.1400 -0.4242  0.3177
   31MOL   H81736877   4.429   3.921   2.750 -1.1601 -0.3667 -0.9474
   31MOL   H81836878   4.238   3.746   2.816 -0.3583 -0.5690 -0.2721
   31MOL   H81936879   4.353   3.623   2.749  1.5378  0.0929 -1.8996
   31MOL   H82036880   4.321   3.701   2.540  0.9248  2.8040 -0.2420
   31MOL   H82136881   4.226   3.843   2.597  0.9684 -0.1660 -1.1503
   31MOL   H82236882   4.138   3.548   2.633  1.2162  0.0731  0.3920
   31MOL   H82336883   4.043   3.679   2.678  0.4497  0.0832 -0.1633
   31MOL   H82436884   3.962   3.588   2.469 -0.6683  2.0295 -1.3764
   31MOL   H82536885   4.028   3.748   2.423 -0.7213  0.1945 -0.1958
   31MOL   H82636886   4.262   3.523   2.162 -0.9126  0.6743 -1.0166
   31MOL   H82736887   4.154   3.407   2.094  1.2997 -2.2422 -0.2101
   31MOL   H82836888   4.221   3.254   2.314  2.9049 -1.2258  1.9503
   31MOL   H82936889   4.329   3.371   2.350  0.0266  0.4562  0.4089
   31MOL   H83036890   4.454   3.339   2.138 -2.7925  0.2714 -3.6585
   31MOL   H83136891   4.350   3.219   2.085 -0.2210 -1.9232  1.5782
   31MOL   H83236892   4.417   3.055   2.266  2.7001 -0.9254  0.0557
   31MOL   H83336893   4.514   3.184   2.343  0.3119  1.8680 -1.0778
   31MOL   H83436894   4.543   3.078   2.053  1.3151  1.4715 -1.3846
   31MOL   H83536895   4.647   3.195   2.131 -1.0396  0.3199  1.2477
   31MOL   H83636896   4.748   3.019   2.267 -0.4203 -1.4249  2.0573
   31MOL   H83736897   4.611   2.908   2.257  2.1464 -2.5069 -1.0163
   31MOL   H83836898   4.658   2.892   2.003 -2.6964  2.0778  1.2332
   31MOL   H83936899   4.756   2.813   2.127 -2.2922 -0.3007 -0.5867
   31MOL   H84036900   4.894   2.930   1.931 -2.5742 -1.4386 -0.4661
   31MOL   H84136901   4.867   3.075   2.036  0.5471  0.4655  0.9380
   31MOL   O84236902   5.034   3.010   2.188 -0.2628 -0.0281 -0.6812
   31MOL   C84336903   5.144   2.996   2.274 -0.8058 -0.6817 -0.0920
   31MOL   C84436904   5.147   3.109   2.380 -0.0707 -0.3484 -0.3967
   31MOL   C84536905   5.259   3.094   2.485 -0.6090  0.0621  0.5614
   31MOL   C84636906   5.228   3.176   2.608  0.3987 -0.2042  0.6966
   31MOL   C84736907   5.227   3.327   2.601 -0.9695  0.3129  0.1856
   31MOL   C84836908   5.184   3.395   2.729  0.8380  0.2979 -0.7249
   31MOL   C84936909   5.028   3.426   2.737  0.0168  0.4920  0.2234
   31MOL   C85036910   4.993   3.517   2.857 -0.4943 -0.1373 -0.1451
   31MOL   C85136911   5.003   3.445   2.986  0.1596 -0.6377 -0.1931
   31MOL   C85236912   4.939   3.518   3.109  0.7448 -0.4395  0.0747
   31MOL   O85336913   4.962   3.430   3.218  0.0110 -0.6098 -0.1069
   31MOL   C85436914   4.883   3.430   3.329 -0.6051 -0.7657  0.3757
   31MOL   O85536915   4.786   3.505   3.334 -0.2738 -0.1843  0.2238
   31MOL   C85636916   4.924   3.342   3.449  0.1513 -0.1614  0.1653
   31MOL   C85736917   5.061   3.379   3.501  0.3356  0.8237 -1.0920
   31MOL   C85836918   5.125   3.272   3.587  0.1760  0.0701  0.1209
   31MOL   C85936919   5.276   3.306   3.621  0.0968 -0.8721 -0.3398
   31MOL   C86036920   5.286   3.430   3.720  0.6035  1.2109 -0.1746
   31MOL   C86136921   5.434   3.469   3.759  0.7472  0.9024 -0.0534
   31MOL   C86236922   5.494   3.378   3.863 -0.0177 -0.2540 -0.1443
   31MOL   C86336923   5.620   3.432   3.921  0.0022 -0.1037 -0.0820
   31MOL   C86436924   5.698   3.330   4.002 -0.7833  0.7294 -0.1408
   31MOL   O86536925   5.803   3.293   3.965 -0.2847 -0.2628 -0.1604
   31MOL   H86636926   5.146   2.903   2.331  1.0374 -0.7735 -0.2593
   31MOL   H86736927   5.236   2.996   2.216 -0.6298  1.3595  0.1830
   31MOL   H86836928   5.154   3.203   2.326  0.8239  0.5667  1.2704
   31MOL   H86936929   5.048   3.109   2.426  0.5199 -1.1177  0.8851
   31MOL   H87036930   5.282   2.993   2.519 -1.7839 -0.7565 -1.0123
   31MOL   H87136931   5.354   3.126   2.441 -0.8649 -0.0444 -0.0731
   31MOL   H87236932   5.132   3.138   2.644  1.7260 -2.7825  1.6087
   31MOL   H87336933   5.304   3.151   2.682  1.2210 -0.0662 -0.0991
   31MOL   H87436934   5.168   3.373   2.521 -0.3574  0.7112 -0.0441
   31MOL   H87536935   5.330   3.351   2.573 -0.2831 -2.5162  0.0682
   31MOL   H87636936   5.226   3.495   2.725  2.4218 -0.2398  1.2730
   31MOL   H87736937   5.228   3.348   2.817  1.6406  0.7031 -0.9009
   31MOL   H87836938   4.974   3.332   2.731  0.9864 -0.1726  1.8328
   31MOL   H87936939   4.997   3.481   2.648  0.9251 -1.1447 -1.1143
   31MOL   H88036940   4.890   3.551   2.848 -0.9167 -1.0393  1.2357
   31MOL   H88136941   5.060   3.602   2.865  0.0966 -0.5179 -0.9323
   31MOL   H88236942   4.959   3.346   2.972 -1.4270 -0.1495  1.2531
   31MOL   H88336943   5.109   3.426   3.006 -0.3835 -4.5608 -0.5228
   31MOL   H88436944   4.992   3.613   3.120  0.3912 -0.0703 -1.3820
   31MOL   H88536945   4.833   3.533   3.088 -0.1268 -1.6879  3.2061
   31MOL   H88636946   4.924   3.238   3.418 -2.4862 -0.9459  2.5280
   31MOL   H88736947   4.843   3.343   3.522  0.1876  0.9490  0.2049
   31MOL   H88836948   5.049   3.475   3.551  0.1525 -0.2658  1.0139
   31MOL   H88936949   5.136   3.405   3.425  0.7304  1.9437 -0.3361
   31MOL   H89036950   5.115   3.185   3.523 -0.3347  0.6725 -0.6210
   31MOL   H89136951   5.068   3.254   3.677  0.6569  0.7751  0.5797
   31MOL   H89236952   5.327   3.330   3.528  2.2765  2.2028  1.5510
   31MOL   H89336953   5.325   3.220   3.665 -0.5274 -0.9915  0.1198
   31MOL   H89436954   5.247   3.519   3.671  0.1374  1.7421  1.1361
   31MOL   H89536955   5.233   3.420   3.814  1.9246  2.1482  0.6902
   31MOL   H89636956   5.490   3.470   3.665 -0.7266  0.8716 -0.9527
   31MOL   H89736957   5.434   3.571   3.798 -0.4592  0.9320 -0.1021
   31MOL   H89836958   5.511   3.277   3.827  0.4039 -0.5317  0.8224
   31MOL   H89936959   5.422   3.367   3.943  1.0186  0.8572  0.9618
   31MOL   H90036960   5.695   3.446   3.843  0.8511  1.6886  1.0201
   31MOL   H90136961   5.616   3.529   3.970 -1.5561 -0.8030  1.2265
   31MOL   O90236962   5.628   3.275   4.105 -0.3573 -1.0591  0.3095
   31MOL   C90336963   5.696   3.205   4.211 -0.7910 -0.1202 -0.2884
   31MOL   C90436964   5.743   3.059   4.180  0.2659 -0.5487  0.7739
   31MOL   C90536965   5.814   2.988   4.292  0.6086  0.5546  0.0139
   31MOL   C90636966   5.845   2.836   4.268 -0.0969  0.6833 -0.4710
   31MOL   C90736967   5.936   2.777   4.373 -0.0774  0.1878  0.9734
   31MOL   C90836968   5.872   2.723   4.506  0.9525  0.0518 -0.0878
   31MOL   C90936969   5.784   2.825   4.592  0.9146  0.6582  1.0328
   31MOL   C91036970   5.846   2.958   4.630 -0.3039  0.3468  0.3583
   31MOL   C91136971   5.747   3.033   4.714 -0.4289  0.3474 -0.1849
   31MOL   C91236972   5.628   3.087   4.645  0.1076  1.3159 -0.5234
   31MOL   O91336973   5.579   3.190   4.723 -0.2364  0.4756 -0.2792
   31MOL   C91436974   5.449   3.219   4.716  0.3891  0.0942 -0.3732
   31MOL   O91536975   5.367   3.158   4.647  0.1866 -0.0717  0.4020
   31MOL   C91636976   5.408   3.337   4.808 -0.5668  0.3204  0.5089
   31MOL   C91736977   5.486   3.469   4.768  0.1882 -0.0613  0.1954
   31MOL   C91836978   5.396   3.596   4.778  0.0128  0.2581  0.4164
   31MOL   C91936979   5.378   3.634   4.929 -0.1007 -0.6046 -0.5960
   31MOL   C92036980   5.287   3.750   4.962  0.1321 -0.4056 -0.1692
   31MOL   C92136981   5.284   3.781   5.118 -0.1261  0.4962 -0.1161
   31MOL   C92236982   5.190   3.688   5.196  0.3344 -0.4579  0.3252
   31MOL   C92336983   5.156   3.736   5.344 -0.1283  0.3386 -0.2156
   31MOL   C92436984   5.283   3.715   5.431 -0.2982 -0.2266  0.3088
   31MOL   O92536985   5.295   3.791   5.526 -0.1033 -0.4176  0.4459
   31MOL   H92636986   5.780   3.270   4.235  0.0756 -1.7594  1.2763
   31MOL   H92736987   5.637   3.205   4.303  1.4367  0.4512  1.1868
   31MOL   H92836988   5.655   2.997   4.167  1.4232 -1.9837 -0.2777
   31MOL   H92936989   5.786   3.044   4.082 -1.8720 -4.2350  0.3066
   31MOL   H93036990   5.900   3.049   4.321  0.2588  0.7563  0.6296
   31MOL   H93136991   5.743   3.004   4.373 -1.4706 -1.7189 -1.2826
   31MOL   H93236992   5.745   2.794   4.260 -1.2837  2.7989  2.3801
   31MOL   H93336993   5.899   2.829   4.174  1.5434  0.8137  0.4353
   31MOL   H93436994   6.024   2.840   4.387  0.2235 -0.2177  0.9281
   31MOL   H93536995   5.974   2.685   4.328  1.4460  2.5671 -2.8329
   31MOL   H93636996   5.947   2.689   4.577  1.4319  0.9024 -0.1765
   31MOL   H93736997   5.818   2.631   4.485  0.3329  0.2662  0.5205
   31MOL   H93836998   5.759   2.780   4.688 -2.2111  2.8000  1.2920
   31MOL   H93936999   5.692   2.839   4.535  0.0771 -1.9756  1.6723
   31MOL   H94037000   5.889   3.021   4.552  1.2509 -0.9775  0.1130
   31MOL   H94137001   5.932   2.928   4.689 -0.4325 -1.4938 -0.3329
   31MOL   H94237002   5.709   2.961   4.787  2.0044 -1.7326 -0.9025
   31MOL   H94337003   5.813   3.097   4.772 -0.5488  0.0001  0.3401
   31MOL   H94437004   5.662   3.145   4.560 -0.8970  1.4208 -0.8639
   31MOL   H94537005   5.552   3.022   4.600  2.2866 -0.4353 -1.7317
   31MOL   H94637006   5.429   3.289   4.904  0.0130 -2.6769 -1.0293
   31MOL   H94737007   5.300   3.347   4.799 -0.4946  1.8103  1.1072
   31MOL   H94837008   5.514   3.450   4.665  1.2023  0.5523  0.3535
   31MOL   H94937009   5.576   3.474   4.829 -1.1636 -1.4049  2.3659
   31MOL   H95037010   5.298   3.586   4.733  0.3889  0.4259 -0.4476
   31MOL   H95137011   5.437   3.667   4.707  0.2782 -0.6973 -0.3976
   31MOL   H95237012   5.475   3.671   4.961 -1.0389  2.5734 -1.1974
   31MOL   H95337013   5.352   3.546   4.988  1.3731 -0.0127  0.9872
   31MOL   H95437014   5.307   3.832   4.893  1.8875 -0.3965  0.3242
   31MOL   H95537015   5.187   3.717   4.936  0.2265  0.7291 -2.0721
   31MOL   H95637016   5.382   3.789   5.166  0.6123  1.1502 -1.6963
   31MOL   H95737017   5.228   3.874   5.115 -1.0752 -0.1037 -1.6562
   31MOL   H95837018   5.226   3.585   5.195  0.2902 -0.4715 -0.0590
   31MOL   H95937019   5.097   3.695   5.139  0.6333  1.9467  0.0726
   31MOL   H96037020   5.131   3.842   5.351  0.8312  0.5422  0.2001
   31MOL   H96137021   5.080   3.669   5.384 -0.6290 -0.4277 -2.3748
   31MOL   O96237022   5.353   3.605   5.409  0.5429 -0.6356 -0.1025
   31MOL   C96337023   5.461   3.577   5.493 -0.1602  0.2967 -0.1397
   31MOL   C96437024   5.557   3.477   5.436 -0.0715  0.8806 -0.0528
   31MOL   C96537025   5.639   3.516   5.306 -0.4359  0.0931 -0.1524
   31MOL   C96637026   5.674   3.397   5.216  0.0074  0.1417  0.4672
   31MOL   C96737027   5.794   3.433   5.115 -0.1970 -0.3181 -0.3564
   31MOL   C96837028   5.822   3.329   5.005 -0.3053 -0.1203  0.9081
   31MOL   C96937029   5.948   3.359   4.919 -0.4006  0.0554  0.1083
   31MOL   C97037030   5.926   3.461   4.799  0.2607 -0.0792 -0.7795
   31MOL   C97137031   6.038   3.456   4.695  0.2161  0.2501  0.0618
   31MOL   C97237032   6.017   3.542   4.566 -0.6356 -0.4537 -0.2516
   31MOL   O97337033   6.094   3.511   4.456  0.2452 -0.1827 -0.4435
   31MOL   C97437034   6.218   3.551   4.442  0.2110  0.5736 -0.2549
   31MOL   O97537035   6.292   3.587   4.531  0.0088 -0.4857 -0.5767
   31MOL   C97637036   6.257   3.549   4.297  0.4545 -0.0069 -0.0892
   31MOL   C97737037   6.395   3.611   4.271  0.1087 -0.0117 -0.3838
   31MOL   C97837038   6.404   3.633   4.120 -0.0930  0.2645  0.3362
   31MOL   C97937039   6.521   3.727   4.080  0.3425 -0.6013  0.2593
   31MOL   C98037040   6.497   3.790   3.935  0.5168  0.3603 -0.8975
   31MOL   C98137041   6.588   3.910   3.906 -0.0945 -0.7613 -0.4517
   31MOL   C98237042   6.735   3.899   3.949  0.3317  0.0600  0.2742
   31MOL   C98337043   6.814   3.802   3.862 -0.9137  0.4877  0.0803
   31MOL   C98437044   6.831   3.840   3.716  0.2656 -0.0140 -0.2161
   31MOL   O98537045   6.779   3.783   3.623  0.3468  0.2080 -0.6766
   31MOL   H98637046   5.520   3.668   5.507  0.5805 -0.2549  0.3476
   31MOL   H98737047   5.424   3.553   5.592  2.1602 -0.9558  0.4562
   31MOL   H98837048   5.623   3.450   5.519 -1.5293  0.2561  0.9374
   31MOL   H98937049   5.494   3.389   5.420 -1.7935  2.1627 -0.4997
   31MOL   H99037050   5.594   3.586   5.235 -3.3503  0.4652  1.9535
   31MOL   H99137051   5.729   3.570   5.336  0.2465  0.1889 -2.2678
   31MOL   H99237052   5.687   3.298   5.260 -1.1927 -0.7796 -1.2153
   31MOL   H99337053   5.589   3.371   5.153  3.0238  1.4899 -4.4858
   31MOL   H99437054   5.887   3.442   5.171 -0.2296 -4.2738  0.4530
   31MOL   H99537055   5.772   3.531   5.071 -0.6496 -0.7510 -1.1184
   31MOL   H99637056   5.745   3.302   4.934  0.9547 -3.2282  0.6532
   31MOL   H99737057   5.837   3.231   5.049  0.8235 -1.3741 -2.1254
   31MOL   H99837058   5.987   3.270   4.870 -2.0384  0.1746 -1.4843
   31MOL   H99937059   6.033   3.390   4.979  0.1093 -0.7420 -0.1940
   31MOL     H137060   5.916   3.563   4.835 -2.0057 -0.2731 -0.7703
   31MOL     H237061   5.833   3.433   4.749  0.2677 -1.1360 -0.2302
   31MOL     H337062   6.127   3.502   4.738 -0.2312  1.5942 -0.4345
   31MOL     H437063   6.064   3.354   4.664  0.2407  0.6708 -1.3444
   31MOL     H537064   5.920   3.525   4.520 -1.1444 -1.9879  1.3538
   31MOL     H637065   6.024   3.650   4.581  0.5639 -0.5126 -0.3436
   31MOL     H737066   6.179   3.599   4.240  0.6513  1.8758  1.2343
   31MOL     H837067   6.258   3.452   4.248  0.1695  0.6125 -1.3401
   31MOL     H937068   6.466   3.539   4.312 -0.3757  0.3763  1.1963
   31MOL    H1037069   6.411   3.706   4.323 -1.0381  0.1833 -0.3725
   31MOL    H1137070   6.313   3.689   4.098 -0.1068  0.0952 -0.0422
   31MOL    H1237071   6.397   3.539   4.066 -3.2624 -0.2053  1.4271
   31MOL    H1337072   6.606   3.662   4.061  0.9339  0.3470 -0.3320
   31MOL    H1437073   6.554   3.798   4.156  2.4968  0.8150 -1.9613
   31MOL    H1537074   6.503   3.716   3.855 -0.7421 -0.8168  0.0748
   31MOL    H1637075   6.392   3.819   3.927  0.5570  0.4379 -1.1567
   31MOL    H1737076   6.585   3.928   3.799 -0.4080 -0.4341 -0.3877
   31MOL    H1837077   6.549   3.998   3.957  0.7613 -0.5856 -0.1052
   31MOL    H1937078   6.753   3.871   4.053 -0.7188 -0.8244  0.2285
   31MOL    H2037079   6.785   3.993   3.928 -0.9001  0.6666 -0.0028
   31MOL    H2137080   6.913   3.793   3.906 -0.2899 -0.1828 -1.4353
   31MOL    H2237081   6.774   3.702   3.876  2.1809 -0.2897  4.0234
   31MOL    O2337082   6.914   3.949   3.707  0.0078 -0.0225 -0.0162
   31MOL    C2437083   6.958   3.991   3.581  0.0290 -0.1216  0.1205
   31MOL    C2537084   7.097   3.956   3.558 -0.4745  0.7536 -0.1369
   31MOL    C2637085   7.193   3.953   3.677  0.1041 -0.6759 -0.5377
   31MOL    C2737086   7.336   3.925   3.642 -0.6787 -0.1366  0.6315
   31MOL    C2837087   7.382   3.774   3.644 -0.1839  0.0970 -0.1666
   31MOL    C2937088   7.521   3.765   3.574  0.5541  0.0484 -0.2809
   31MOL    C3037089   7.590   3.629   3.565  0.0158 -0.2067  0.3649
   31MOL    C3137090   7.716   3.632   3.475  0.6012 -0.2948  0.9407
   31MOL    C3237091   0.037   3.496   3.463  0.3064 -0.2239  0.1530
   31MOL    C3337092   0.176   3.495   3.397  0.9770 -0.1200  0.8565
   31MOL    O3437093   0.169   3.552   3.265  0.0450  0.0201  0.0154
   31MOL    C3537094   0.209   3.676   3.244 -0.8190  0.0246 -0.1234
   31MOL    O3637095   0.252   3.761   3.324 -0.2482 -0.6851 -0.0608
   31MOL    C3737096   0.167   3.735   3.108 -1.3108  0.3548 -0.1765
   31MOL    C3837097   0.042   3.670   3.045  0.0985 -0.0316 -0.4806
   31MOL    C3937098   0.066   3.567   2.934 -0.4462  0.1733  0.1955
   31MOL    C4037099   7.701   3.519   2.861 -0.6417  0.2458  0.5672
   31MOL    C4137100   7.721   3.439   2.722  0.3515  0.6226  0.2959
   31MOL    C4237101   7.601   3.458   2.630  0.3388 -0.3618  0.0475
   31MOL    C4337102   7.607   3.368   2.503  0.6575 -0.3746 -0.5332
   31MOL    C4437103   7.471   3.352   2.434 -0.3680 -0.6018 -0.6192
   31MOL    C4537104   7.467   3.275   2.309  0.7507  0.3750  0.8887
   31MOL    O4637105   7.375   3.291   2.231 -0.3235  0.0443  0.2388
   31MOL    H4737106   6.886   3.965   3.504 -0.1640 -2.1866  0.9601
   31MOL    H4837107   6.957   4.099   3.569  0.5274 -0.0586  0.6090
   31MOL    H4937108   7.103   3.857   3.513  0.6375  0.8849 -0.2800
   31MOL    H5037109   7.142   4.011   3.476 -1.5898  0.2736 -1.0964
   31MOL    H5137110   7.187   4.050   3.726  0.3005 -0.6619 -0.5387
   31MOL    H5237111   7.169   3.872   3.745  1.1598 -0.7564 -0.2515
   31MOL    H5337112   7.356   3.959   3.540 -2.0190 -1.3965 -0.0684
   31MOL    H5437113   7.405   3.983   3.702 -0.1476 -0.1666  0.0498
   31MOL    H5537114   7.305   3.714   3.597  1.0369 -0.2166 -1.7927
   31MOL    H5637115   7.388   3.741   3.748 -2.3158  0.1235 -0.0254
   31MOL    H5737116   7.584   3.831   3.633 -2.4248  1.2960  1.6064
   31MOL    H5837117   7.508   3.798   3.471 -2.4042 -2.0716 -0.6807
   31MOL    H5937118   7.522   3.551   3.532  1.1899 -1.1375  0.1349
   31MOL    H6037119   7.621   3.607   3.667  1.4240 -0.0273 -0.0105
   31MOL    H6137120   0.028   3.711   3.507  0.3413  0.0777  0.5944
   31MOL    H6237121   7.689   3.653   3.371 -0.7911 -0.4682  1.2697
   31MOL    H6337122   0.027   3.438   3.555 -0.2131 -0.6506 -0.1674
   31MOL    H6437123   7.722   3.440   3.402  0.8418 -1.8610  1.0231
   31MOL    H6537124   0.237   3.546   3.472 -1.4657  2.8924  0.9219
   31MOL    H6637125   0.206   3.391   3.389  1.8313  0.2483 -0.7942
   31MOL    H6737126   0.252   3.715   3.042  0.5730 -3.0539  3.0812
   31MOL    H6837127   0.161   3.843   3.119 -1.8440  0.4002 -0.8456
   31MOL    H6937128   7.744   3.747   2.992 -2.3465 -1.7821 -0.5786
   31MOL    H7037129   7.725   3.637   3.118 -0.6506  0.8984 -0.8145
   31MOL    H7137130   0.109   3.477   2.979  2.6199  1.8676  0.8418
   31MOL    H7237131   0.132   3.604   2.856 -1.0901  0.6602 -0.1169
   31MOL    H7337132   7.646   3.609   2.835  1.4674  0.8905 -1.9345
   31MOL    H7437133   7.632   3.474   2.932  0.7044  0.2310  1.8846
   31MOL    H7537134   0.049   3.471   2.661  0.4113 -0.7157 -0.3426
   31MOL    H7637135   7.734   3.336   2.756 -0.4650  0.5694  0.4776
   31MOL    H7737136   7.502   3.435   2.669 -0.1932 -0.4775 -1.3275
   31MOL    H7837137   7.589   3.563   2.607 -1.0791  0.2528  3.3836
   31MOL    H7937138   7.632   3.268   2.539 -0.7274 -0.2905  0.7155
   31MOL    H8037139   7.687   3.400   2.437  1.4859 -2.2573 -0.4644
   31MOL    H8137140   7.411   3.290   2.501 -0.6494  1.5380  1.1590
   31MOL    H8237141   7.421   3.447   2.418  0.6538  0.3245  1.6060
   31MOL    O8337142   7.567   3.182   2.290 -0.3947  0.4954 -0.5376
   31MOL    C8437143   7.581   3.104   2.168  0.6713 -0.1502 -0.0712
   31MOL    C8537144   7.463   3.006   2.147  0.1368 -0.0884  0.3603
   31MOL    C8637145   7.440   2.905   2.257  0.1902 -0.3174 -0.4972
   31MOL    C8737146   7.330   2.799   2.217  0.7345 -0.6621  0.3815
   31MOL    C8837147   7.330   2.673   2.303  0.4637  1.0763 -0.5346
   31MOL    C8937148   7.208   2.667   2.399  0.0448  0.9395 -0.1972
   31MOL    C9037149   7.193   2.527   2.461  0.0262 -0.3811 -0.2609
   31MOL    C9137150   7.079   2.509   2.555 -0.1813 -0.0069 -0.4440
   31MOL    C9237151   7.070   2.363   2.608 -0.2502 -0.1873 -0.3564
   31MOL    C9337152   6.941   2.342   2.681  0.4070  0.3276  0.6972
   31MOL    O9437153   6.826   2.361   2.595  0.3864 -0.3677 -1.2866
   31MOL    C9537154   6.705   2.334   2.642  0.1378  0.0950 -0.2714
   31MOL    O9637155   6.681   2.284   2.754 -0.8708  0.0822  0.3191
   31MOL    C9737156   6.593   2.369   2.553  0.8178  0.8746 -0.2862
   31MOL    C9837157   6.596   2.305   2.414 -0.3514 -0.2194 -0.4894
   31MOL    C9937158   6.465   2.305   2.339 -0.0919  0.6495  0.1952
   31MOL   C10037159   6.410   2.443   2.296 -0.3212  0.5931  0.2401
   31MOL   C10137160   6.298   2.437   2.191 -0.4032  0.4955 -0.0662
   31MOL   C10237161   6.223   2.572   2.175 -0.1564  0.0519  0.0596
   31MOL   C10337162   6.305   2.690   2.108 -0.0006 -0.2560 -0.2319
   31MOL   C10437163   6.221   2.803   2.049 -0.2465 -0.2480  0.6966
   31MOL   C10537164   6.293   2.934   2.063 -0.6749 -0.2632  0.6089
   31MOL   O10637165   6.350   2.986   1.964 -0.0769  0.0296  0.7190
   31MOL   H10737166   7.590   3.176   2.087  0.5255  0.2685  0.2787
   31MOL   H10837167   7.674   3.048   2.175  0.1384 -0.8424  1.7813
   31MOL   H10937168   7.371   3.061   2.126  0.2120 -0.4630 -1.0113
   31MOL   H11037169   7.473   2.957   2.050 -2.9625  0.7136 -0.4514
   31MOL   H11137170   7.531   2.848   2.275  0.1625  0.2577  1.7000
   31MOL   H11237171   7.419   2.943   2.358 -1.0621 -2.8467  0.2190
   31MOL   H11337172   7.230   2.838   2.202  1.1571 -0.0193 -0.8368
   31MOL   H11437173   7.353   2.759   2.119  1.7422 -2.0946  1.1773
   31MOL   H11537174   7.420   2.668   2.364  0.1495  1.1247 -0.0666
   31MOL   H11637175   7.335   2.587   2.236  0.4615  0.1180  0.6722
   31MOL   H11737176   7.115   2.684   2.344  0.3115  3.0045 -0.0189
   31MOL   H11837177   7.226   2.740   2.478  1.3347 -0.8533  1.2234
   31MOL   H11937178   7.284   2.503   2.516  0.7443  0.0676 -1.2473
   31MOL   H12037179   7.183   2.448   2.387 -1.7652  0.1339 -0.6078
   31MOL   H12137180   6.981   2.530   2.510 -0.4745  0.1424  0.2550
   31MOL   H12237181   7.090   2.591   2.627  0.1627  1.8091 -2.4974
   31MOL   H12337182   7.080   2.290   2.529 -0.0977 -2.1785  1.4536
   31MOL   H12437183   7.157   2.350   2.673 -1.2715  1.8706  1.5085
   31MOL   H12537184   6.936   2.244   2.729 -2.5670 -1.1127 -2.3708
   31MOL   H12637185   6.933   2.415   2.761 -1.9357  0.5857  0.2400
   31MOL   H12737186   6.585   2.478   2.545  1.8643  1.1790  2.3040
   31MOL   H12837187   6.510   2.320   2.605  0.0887  1.8756 -0.4928
   31MOL   H12937188   6.615   2.198   2.421 -1.8076 -0.4341  0.3343
   31MOL   H13037189   6.667   2.350   2.345 -1.0136 -1.1770 -1.8234
   31MOL   H13137190   6.387   2.242   2.383  1.5745  0.3998  2.8993
   31MOL   H13237191   6.492   2.251   2.249  2.0315  1.3326  0.4076
   31MOL   H13337192   6.498   2.501   2.268 -1.6129  1.8399 -1.3659
   31MOL   H13437193   6.353   2.473   2.383  0.4653 -0.8145  1.2542
   31MOL   H13537194   6.332   2.405   2.093 -1.2298 -0.5447 -0.0195
   31MOL   H13637195   6.220   2.361   2.202 -0.9418  0.9000 -1.0659
   31MOL   H13737196   6.129   2.559   2.120  0.1196 -0.1583 -0.3652
   31MOL   H13837197   6.187   2.598   2.275  1.0698 -2.6642  1.2505
   31MOL   H13937198   6.370   2.648   2.031  0.7806  0.1249  0.2192
   31MOL   H14037199   6.369   2.727   2.188 -0.1253  1.9277 -1.1199
   31MOL   H14137200   6.211   2.785   1.941 -0.1608 -0.0740  0.6601
   31MOL   H14237201   6.122   2.802   2.094 -1.3706 -0.4333 -1.6609
   31MOL   O14337202   6.289   2.980   2.183  0.2774  0.2037  0.1570
   31MOL   C14437203   6.349   3.094   2.226 -0.2160  0.0697  0.7089
   31MOL   C14537204   6.236   3.182   2.296 -0.0671  0.1967  0.1856
   31MOL   C14637205   6.130   3.243   2.197  0.1416 -0.1858  0.1562
   31MOL   C14737206   6.168   3.373   2.132 -0.3342 -1.0065 -0.0744
   31MOL   C14837207   6.041   3.439   2.068  0.0882 -1.0929 -0.1058
   31MOL   C14937208   6.061   3.556   1.965  0.2507  0.4141 -0.0239
   31MOL   C15037209   5.934   3.568   1.884  0.2337 -0.3304  0.6084
   31MOL   C15137210   5.942   3.699   1.795 -0.1279 -0.1889  0.0305
   31MOL   C15237211   6.054   3.702   1.698 -0.3378  0.8581  0.5469
   31MOL   C15337212   6.038   3.823   1.603  0.7822 -0.0269 -0.0425
   31MOL   O15437213   6.156   3.844   1.521 -0.2973 -0.5553  0.8986
   31MOL   C15537214   6.154   3.887   1.398  0.1405  1.0096 -1.1100
   31MOL   O15637215   6.055   3.916   1.328  0.4784 -0.5725 -0.1948
   31MOL   C15737216   6.291   3.895   1.341 -0.2137 -0.0087 -0.2949
   31MOL   C15837217   6.383   3.996   1.397 -0.3850 -0.0058 -0.1223
   31MOL   C15937218   6.461   3.972   1.524 -0.3827  0.6752  0.3149
   31MOL   C16037219   6.536   4.095   1.558  0.4309 -0.8379 -0.0166
   31MOL   C16137220   6.582   4.095   1.712 -0.0536  0.3760 -0.1507
   31MOL   C16237221   6.676   4.212   1.751 -0.1458  0.0634  0.4783
   31MOL   C16337222   6.733   4.199   1.891 -0.2563 -0.0784  0.3207
   31MOL   C16437223   6.819   4.318   1.929 -0.4794  0.0917 -0.3382
   31MOL   C16537224   6.938   4.289   2.021  0.7542 -0.0234 -0.1281
   31MOL   O16637225   6.954   4.180   2.081 -0.0041 -0.9986 -0.1787
   31MOL   H16737226   6.418   3.053   2.300  0.7162  0.9663  0.3513
   31MOL   H16837227   6.397   3.151   2.147 -0.1442 -2.4098 -1.1253
   31MOL   H16937228   6.204   3.133   2.387  2.7515  1.3236  1.8461
   31MOL   H17037229   6.278   3.270   2.345  1.3519 -0.4720  0.2063
   31MOL   H17137230   6.100   3.171   2.121 -1.5521  0.7929 -0.1185
   31MOL   H17237231   6.037   3.257   2.254  0.8968 -0.2423  1.4335
   31MOL   H17337232   6.203   3.448   2.202  3.0457  0.1600 -2.8770
   31MOL   H17437233   6.252   3.349   2.067 -1.0183 -0.9971 -0.9907
   31MOL   H17537234   5.983   3.464   2.157  0.0037 -3.5359  0.5384
   31MOL   H17637235   5.988   3.357   2.020 -0.1801 -0.6540 -0.5766
   31MOL   H17737236   6.134   3.543   1.884 -0.9658  1.6258 -1.3406
   31MOL   H17837237   6.079   3.650   2.017  0.3779  0.0776  0.5342
   31MOL   H17937238   5.850   3.569   1.953  0.7511  1.9260  1.2322
   31MOL   H18037239   5.914   3.483   1.819 -0.0838  0.1655  0.0496
   31MOL   H18137240   5.947   3.784   1.863 -1.0110  0.0415 -0.1905
   31MOL   H18237241   5.849   3.704   1.738  0.1994  0.4282 -0.4476
   31MOL   H18337242   6.147   3.702   1.754  1.1160  0.2195 -1.7930
   31MOL   H18437243   6.057   3.614   1.633  1.4152  1.9845 -0.9591
   31MOL   H18537244   5.956   3.798   1.536 -1.0377  1.4499  1.5864
   31MOL   H18637245   6.021   3.914   1.661  0.9801  0.5840 -0.9347
   31MOL   H18737246   6.286   3.915   1.234  1.5750  1.1302 -0.2058
   31MOL   H18837247   6.336   3.798   1.361  0.3741  0.5124  1.0137
   31MOL   H18937248   6.329   4.088   1.415 -0.0639  0.9720 -3.8202
   31MOL   H19037249   6.457   4.026   1.323 -1.0135 -1.1217 -1.2245
   31MOL   H19137250   6.529   3.887   1.512  0.7770  1.6222  0.0981
   31MOL   H19237251   6.399   3.939   1.607 -2.0088  1.4049 -0.5956
   31MOL   H19337252   6.468   4.180   1.554  0.5011 -0.8484 -2.6323
   31MOL   H19437253   6.616   4.112   1.486  0.0719 -0.2256 -0.2754
   31MOL   H19537254   6.490   4.095   1.770  1.7362  1.6087  2.7405
   31MOL   H19637255   6.635   4.000   1.720  0.7826  0.8251 -0.2971
   31MOL   H19737256   6.756   4.206   1.677 -1.3934 -0.9059 -0.8275
   31MOL   H19837257   6.633   4.310   1.734  1.4214  0.6822  0.0115
   31MOL   H19937258   6.782   4.102   1.903 -1.9611 -1.2500 -1.7152
   31MOL   H20037259   6.650   4.194   1.962  1.6431  1.9355  2.7764
   31MOL   H20137260   6.874   4.345   1.839  0.0201  0.3994  0.0567
   31MOL   H20237261   6.770   4.408   1.968  2.5762  2.2058 -1.1532
   31MOL   H20337262   7.004   4.376   2.023  2.7030 -1.4738  0.3734
   32MOL     O137263   6.094   2.267   3.688  0.3166 -0.6512 -0.0983
   32MOL     C237264   6.117   2.178   3.593 -0.6620  0.0316  0.7397
   32MOL     C337265   6.249   2.200   3.517  0.2209 -0.0553  0.1139
   32MOL     C437266   6.389   2.207   3.582  0.1234 -0.1617  0.4596
   32MOL     C537267   6.492   2.268   3.491 -1.1573  0.0117 -0.0558
   32MOL     C637268   6.631   2.251   3.541  0.3128 -0.1328 -0.4918
   32MOL     C737269   6.739   2.301   3.435  0.6088  0.5695  0.2215
   32MOL     C837270   6.882   2.253   3.469 -0.0436 -0.0353  0.1130
   32MOL     C937271   6.956   2.365   3.544 -0.4201  0.7473  0.0293
   32MOL    C1037272   7.097   2.331   3.557  0.4073 -0.4011  0.1030
   32MOL    C1137273   7.178   2.422   3.656  0.0859 -0.4907 -0.6960
   32MOL    O1237274   7.118   2.426   3.788  0.2038  0.0114 -0.4625
   32MOL    C1337275   7.180   2.381   3.894 -0.6193 -0.1423 -0.2999
   32MOL    O1437276   7.300   2.354   3.898  0.6116 -0.0086  0.1482
   32MOL    C1537277   7.086   2.370   4.012 -0.2169 -0.7824  0.0129
   32MOL    C1637278   6.961   2.284   3.982  0.5101  0.4746  0.2030
   32MOL    C1737279   7.001   2.129   3.950 -0.5329 -0.6483 -0.4089
   32MOL    C1837280   6.878   2.037   3.959  0.6438  0.2756  0.1217
   32MOL    C1937281   6.787   2.030   3.831  1.0326  0.6675  0.0153
   32MOL    C2037282   6.638   2.001   3.853 -0.0891  0.0289 -0.1314
   32MOL    C2137283   6.560   2.109   3.936 -0.0999 -0.0159 -0.1976
   32MOL    C2237284   6.411   2.070   3.957 -0.2242 -0.6063 -0.4029
   32MOL    C2337285   6.403   1.974   4.074  0.4747  0.2055  0.3216
   32MOL    O2437286   6.431   1.859   4.060 -0.1797 -0.3624 -0.2001
   32MOL    H2537287   6.141   2.089   3.651  2.8463  3.0182  4.1836
   32MOL    H2637288   6.036   2.164   3.521 -0.0677  0.0079  0.0687
   32MOL    H2737289   6.258   2.122   3.442 -0.0167  1.0407 -1.0592
   32MOL    H2837290   6.238   2.288   3.454 -2.1884 -2.0916 -2.4462
   32MOL    H2937291   6.381   2.272   3.669  0.4474 -0.4800  0.7280
   32MOL    H3037292   6.422   2.111   3.621 -0.0091 -1.2948 -2.1275
   32MOL    H3137293   6.488   2.240   3.385  0.7982  2.3490 -0.8015
   32MOL    H3237294   6.478   2.376   3.491  1.4162  0.3754 -0.9664
   32MOL    H3337295   6.648   2.143   3.552  0.1882 -0.2287 -1.2493
   32MOL    H3437296   6.657   2.302   3.634  1.3769  2.3013 -2.0715
   32MOL    H3537297   6.741   2.410   3.440  0.5750  0.5688  0.2492
   32MOL    H3637298   6.702   2.267   3.338 -3.6280  1.5866  1.3998
   32MOL    H3737299   6.928   2.235   3.372 -1.1491  1.1166 -0.6307
   32MOL    H3837300   6.881   2.157   3.522 -1.3865  0.4676  1.0370
   32MOL    H3937301   6.920   2.368   3.646 -1.7034 -1.3742 -0.3277
   32MOL    H4037302   6.947   2.461   3.492  2.0890  0.2273 -1.5051
   32MOL    H4137303   7.108   2.233   3.603  1.8706 -0.8829 -1.2141
   32MOL    H4237304   7.141   2.322   3.457  0.7590  0.8412  0.1326
   32MOL    H4337305   7.279   2.385   3.673  0.1743 -0.4873 -1.2135
   32MOL    H4437306   7.187   2.527   3.626 -2.3320  0.2959  1.1604
   32MOL    H4537307   7.069   2.476   4.029 -1.4303 -0.9015 -0.3970
   32MOL    H4637308   7.142   2.328   4.095 -0.3448 -0.3184  0.3310
   32MOL    H4737309   6.900   2.318   3.898 -2.5526 -3.0068  0.9136
   32MOL    H4837310   6.881   2.283   4.056 -0.2826 -0.6069 -0.6627
   32MOL    H4937311   7.068   2.087   4.024 -2.2902 -2.3006  0.2914
   32MOL    H5037312   7.052   2.119   3.855 -2.2810  0.9563 -1.5663
   32MOL    H5137313   6.820   2.081   4.040  1.1277 -0.0150  0.6222
   32MOL    H5237314   6.909   1.938   3.990  1.1688  0.8260  1.3707
   32MOL    H5337315   6.804   2.119   3.771  2.7461 -0.3469 -1.0336
   32MOL    H5437316   6.828   1.954   3.765 -3.0456 -0.4894 -1.3708
   32MOL    H5537317   6.591   1.988   3.756 -0.9397 -2.0794  0.5235
   32MOL    H5637318   6.628   1.906   3.905  1.3406  0.8569  1.7445
   32MOL    H5737319   6.556   2.201   3.877  1.6127  0.4961  0.4714
   32MOL    H5837320   6.611   2.128   4.030 -2.6373 -1.7079  1.6000
   32MOL    H5937321   6.337   2.147   3.976  0.2876 -0.1736 -0.1698
   32MOL    H6037322   6.366   2.020   3.871  1.4820 -0.5684 -1.3579
   32MOL    H6137323   6.002   2.251   3.704  0.0690 -0.9904 -1.6925
   32MOL    O6237324   6.360   2.028   4.186 -0.4383  0.0839 -0.5053
   32MOL    C6337325   6.343   1.965   4.314 -0.2366 -0.0477  0.2876
   32MOL    C6437326   6.382   2.055   4.434 -0.6517  0.5344 -0.4622
   32MOL    C6537327   6.322   2.004   4.566 -0.9328  0.4219 -0.6202
   32MOL    C6637328   6.394   2.071   4.687  0.1732  0.1826  0.1217
   32MOL    C6737329   6.348   2.021   4.827  0.5356 -0.2377 -0.6454
   32MOL    C6837330   6.400   2.104   4.946  0.0520  0.3369  0.3350
   32MOL    C6937331   6.327   2.238   4.970 -0.4169  0.1287  0.0329
   32MOL    C7037332   6.374   2.317   5.092 -0.0576 -0.9175  0.3286
   32MOL    C7137333   6.301   2.454   5.092  0.0062  0.0216  0.1401
   32MOL    C7237334   6.352   2.549   5.202  0.2214 -0.0842 -0.0861
   32MOL    O7337335   6.350   2.480   5.327  0.1128  0.4696  0.3874
   32MOL    C7437336   6.399   2.527   5.443  0.2749 -0.5098 -0.1529
   32MOL    O7537337   6.457   2.635   5.461  0.8537  0.5685  0.2237
   32MOL    C7637338   6.390   2.428   5.560 -0.5592 -0.2371  0.1587
   32MOL    C7737339   6.274   2.334   5.563 -0.5193  0.0180 -0.6100
   32MOL    C7837340   6.149   2.404   5.606  0.2349  0.1227  0.9819
   32MOL    C7937341   6.036   2.297   5.593 -0.2969 -0.4311  0.3782
   32MOL    C8037342   5.924   2.346   5.687 -0.0275  0.3697 -0.3131
   32MOL    C8137343   5.813   2.252   5.657  0.1501  0.2849  0.3528
   32MOL    C8237344   5.681   2.254   5.739  0.1861  0.6995  0.1948
   32MOL    C8337345   5.585   2.137   5.704 -0.2913 -0.3249 -0.2998
   32MOL    C8437346   5.539   2.141   5.558 -0.4575 -0.3134  0.0086
   32MOL    O8537347   5.583   2.064   5.475 -0.3556 -0.7881  0.0993
   32MOL    H8637348   6.234   1.956   4.311 -0.3096  1.1356 -1.1773
   32MOL    H8737349   6.381   1.863   4.326  2.5709  0.8469 -0.6560
   32MOL    H8837350   6.491   2.049   4.439 -0.8107 -3.4701  0.1730
   32MOL    H8937351   6.347   2.157   4.420  1.0677  1.1515 -0.4030
   32MOL    H9037352   6.215   2.024   4.578 -1.1601 -1.2093  0.1892
   32MOL    H9137353   6.357   1.902   4.583  1.0065  1.0011 -1.0319
   32MOL    H9237354   6.501   2.057   4.674  0.5475  2.2010  0.9536
   32MOL    H9337355   6.380   2.179   4.681  0.8973  0.2597 -0.1750
   32MOL    H9437356   6.383   1.918   4.840 -0.2835 -0.2462  1.7371
   32MOL    H9537357   6.240   2.011   4.829  0.4099  0.9861 -0.9886
   32MOL    H9637358   6.508   2.118   4.945  0.1103 -0.1667 -0.6086
   32MOL    H9737359   6.389   2.050   5.040  0.3351  0.6369  0.5448
   32MOL    H9837360   6.222   2.216   4.985  0.3596 -2.9824  1.4482
   32MOL    H9937361   6.324   2.306   4.885  1.5799 -1.1303 -1.0929
   32MOL   H10037362   6.480   2.341   5.085  0.3277 -2.4097  0.9648
   32MOL   H10137363   6.347   2.272   5.187 -1.4464 -0.0665  0.3557
   32MOL   H10237364   6.318   2.505   4.997 -1.3463 -0.3544 -0.3092
   32MOL   H10337365   6.193   2.441   5.096 -0.1170  0.0236 -2.3352
   32MOL   H10437366   6.458   2.569   5.195  0.6255 -2.0511  0.0302
   32MOL   H10537367   6.306   2.646   5.223  2.4903  1.8136 -3.5338
   32MOL   H10637368   6.394   2.483   5.653  0.3829  0.8177 -0.4987
   32MOL   H10737369   6.481   2.372   5.537  0.5343  0.2465  3.1782
   32MOL   H10837370   6.291   2.262   5.644  0.3201  3.0278  1.9988
   32MOL   H10937371   6.253   2.290   5.466 -0.3877 -2.0754  0.2806
   32MOL   H11037372   6.122   2.486   5.540  0.1083 -0.6391  0.0743
   32MOL   H11137373   6.154   2.437   5.710 -0.1358 -1.1845  1.4311
   32MOL   H11237374   6.064   2.201   5.634 -2.0364 -1.0779  0.0762
   32MOL   H11337375   6.011   2.282   5.488  0.5577  0.8411 -0.0312
   32MOL   H11437376   5.953   2.329   5.791  0.6424  0.4199 -0.4928
   32MOL   H11537377   5.901   2.450   5.663 -0.9167  0.2349 -0.0814
   32MOL   H11637378   5.787   2.274   5.554 -0.7054  0.2829  0.5683
   32MOL   H11737379   5.847   2.148   5.659  1.7119  0.6395 -3.2999
   32MOL   H11837380   5.633   2.350   5.723  1.7538  1.2890 -1.1734
   32MOL   H11937381   5.724   2.250   5.839 -0.1893 -0.0123  0.3327
   32MOL   H12037382   5.632   2.043   5.730 -1.6112 -0.4360  1.8503
   32MOL   H12137383   5.494   2.147   5.764  0.4583 -0.3847  0.8525
   32MOL   O12237384   5.459   2.244   5.538  0.3913 -0.2564 -0.4385
   32MOL   C12337385   5.412   2.261   5.402 -0.2235  0.1509 -0.2455
   32MOL   C12437386   5.293   2.362   5.395 -0.0993  0.5800 -0.8697
   32MOL   C12537387   5.243   2.385   5.252 -0.3594  0.2861  0.0074
   32MOL   C12637388   5.127   2.492   5.241  0.3577  0.8182 -0.1849
   32MOL   C12737389   5.166   2.633   5.285 -0.8126  0.7254 -0.0339
   32MOL   C12837390   5.055   2.740   5.255  0.3825 -0.1673 -0.1950
   32MOL   C12937391   5.066   2.860   5.348 -0.6522 -0.7668 -0.1767
   32MOL   C13037392   4.941   2.951   5.358 -0.1846  0.3742  0.0303
   32MOL   C13137393   4.970   3.080   5.418  0.4055 -1.2300 -0.5716
   32MOL   C13237394   4.864   3.184   5.384  1.1798 -0.3641  0.1622
   32MOL   O13337395   4.738   3.142   5.429  0.1183  0.1647  0.1654
   32MOL   C13437396   4.669   3.228   5.509 -0.1196  0.3467  0.2423
   32MOL   O13537397   4.702   3.342   5.540 -0.0287 -0.3884  0.4100
   32MOL   C13637398   4.540   3.159   5.563 -0.1908  0.8983  0.3131
   32MOL   C13737399   4.457   3.072   5.466 -0.2607 -0.3466  0.5085
   32MOL   C13837400   4.514   2.929   5.440 -0.2516  0.0865 -0.1207
   32MOL   C13937401   4.418   2.863   5.342 -0.3398 -0.1190  0.5490
   32MOL   C14037402   4.464   2.715   5.305 -0.0579  0.3992 -0.6985
   32MOL   C14137403   4.360   2.626   5.229  0.0629  0.6720  0.1075
   32MOL   C14237404   4.412   2.493   5.183 -0.1801 -0.0452  0.1660
   32MOL   C14337405   4.385   2.382   5.285 -0.3842  0.3857  0.9547
   32MOL   C14437406   4.431   2.248   5.233 -0.1916  0.6315 -0.7828
   32MOL   O14537407   4.405   2.205   5.123 -0.4249 -0.1277  0.0142
   32MOL   H14637408   5.473   2.328   5.342  0.7959 -0.7860 -0.2652
   32MOL   H14737409   5.403   2.165   5.352 -0.1598  0.7637 -1.4316
   32MOL   H14837410   5.217   2.309   5.454 -0.3992 -0.3890 -2.0950
   32MOL   H14937411   5.313   2.456   5.445 -0.1092  1.0519 -1.7527
   32MOL   H15037412   5.327   2.415   5.189  0.4004 -0.0963  0.8260
   32MOL   H15137413   5.197   2.291   5.221  0.9457 -0.2352 -0.3911
   32MOL   H15237414   5.093   2.487   5.137  1.5008 -1.1648 -0.4868
   32MOL   H15337415   5.046   2.449   5.300  0.4590  1.4494  0.4215
   32MOL   H15437416   5.262   2.651   5.237 -1.1581 -0.8076 -1.3852
   32MOL   H15537417   5.178   2.628   5.393 -0.7991  0.5519 -0.0435
   32MOL   H15637418   4.956   2.696   5.248 -0.2239  0.4034  3.6871
   32MOL   H15737419   5.069   2.760   5.149  1.4250  1.7073  0.2527
   32MOL   H15837420   5.155   2.918   5.322 -1.5772  1.4281  1.4324
   32MOL   H15937421   5.073   2.826   5.452  2.4689 -1.2458 -0.4904
   32MOL   H16037422   4.845   2.917   5.396  1.0390 -1.5717  1.4739
   32MOL   H16137423   4.920   2.989   5.258  2.5353  0.8178 -0.4309
   32MOL   H16237424   4.999   3.073   5.523  1.9309 -3.4167 -1.1223
   32MOL   H16337425   5.059   3.124   5.373 -1.0593  2.5246 -0.0405
   32MOL   H16437426   4.895   3.278   5.428  0.9726 -0.2409  0.0425
   32MOL   H16537427   4.866   3.199   5.276  1.2104 -0.1373  0.1939
   32MOL   H16637428   4.471   3.224   5.616 -0.5037  0.1466  0.8327
   32MOL   H16737429   4.579   3.091   5.638  0.3013 -0.5600 -1.2278
   32MOL   H16837430   4.439   3.115   5.368 -2.1974 -1.1222  0.5033
   32MOL   H16937431   4.360   3.062   5.515  1.2298 -0.5734  3.5163
   32MOL   H17037432   4.543   2.888   5.537  0.7568  0.4053 -0.2790
   32MOL   H17137433   4.610   2.939   5.389  1.2446 -0.2222  2.5293
   32MOL   H17237434   4.408   2.911   5.244 -0.7621 -0.4299  0.4368
   32MOL   H17337435   4.327   2.851   5.401 -0.5720 -0.4514  0.1249
   32MOL   H17437436   4.562   2.701   5.261  0.4877 -2.1446  1.2121
   32MOL   H17537437   4.476   2.671   5.404 -3.3472  2.1980  0.5766
   32MOL   H17637438   4.284   2.606   5.305 -1.8409 -3.7812 -2.7764
   32MOL   H17737439   4.312   2.686   5.152 -1.0863 -0.0208  0.2741
   32MOL   H17837440   4.519   2.509   5.174 -0.4603  3.2132  2.1084
   32MOL   H17937441   4.369   2.466   5.086  0.4212  1.6395 -0.5868
   32MOL   H18037442   4.447   2.412   5.369  1.6096  1.8376 -0.9868
   32MOL   H18137443   4.278   2.388   5.305 -0.4318  0.3617  0.7179
   32MOL   O18237444   4.507   2.178   5.322 -0.4319 -0.8636  0.6789
   32MOL   C18337445   4.581   2.063   5.274  0.4072  0.0395  0.5005
   32MOL   C18437446   4.495   1.942   5.293  0.2472 -0.3015 -0.1151
   32MOL   C18537447   4.568   1.808   5.276 -0.0099  0.4559  0.0257
   32MOL   C18637448   4.546   1.713   5.392 -0.3242 -0.0117  0.2421
   32MOL   C18737449   4.642   1.586   5.386 -0.0488 -0.6901  0.0348
   32MOL   C18837450   4.614   1.503   5.520  0.7171  0.1291  0.3249
   32MOL   C18937451   4.668   1.356   5.510 -0.5695 -0.3485 -0.4204
   32MOL   C19037452   4.606   1.272   5.623 -0.6180 -0.7924 -0.0441
   32MOL   C19137453   4.475   1.209   5.581 -0.3408  0.0552 -0.0491
   32MOL   C19237454   4.409   1.121   5.687 -0.4583 -0.6858  0.0449
   32MOL   O19337455   4.374   1.188   5.808 -0.2173 -0.5350 -0.0494
   32MOL   C19437456   4.447   1.179   5.918  0.3005 -0.1201 -0.3662
   32MOL   O19537457   4.559   1.133   5.921 -0.2947  1.0655 -0.1173
   32MOL   C19637458   4.393   1.262   6.036 -0.3282  0.8286 -0.5571
   32MOL   C19737459   4.471   1.246   6.172 -0.4370  0.1441 -0.6147
   32MOL   C19837460   4.482   1.103   6.226 -0.2272 -0.2153  0.2240
   32MOL   C19937461   4.477   1.100   6.375 -0.3780 -0.3687  0.0212
   32MOL   C20037462   4.480   0.955   6.432 -0.1034 -0.4322 -0.0403
   32MOL   C20137463   4.458   0.975   6.586  0.1402  0.4765 -0.2566
   32MOL   C20237464   4.494   0.855   6.669 -0.1494 -0.7675 -0.4299
   32MOL   C20337465   4.475   0.856   6.823  1.0041  0.4119  0.2551
   32MOL   C20437466   4.568   0.962   6.889  0.1476 -0.0448 -0.0456
   32MOL   O20537467   4.518   1.052   6.957  0.3572 -0.2285 -0.1673
   32MOL   H20637468   4.629   2.067   5.176 -0.0978  1.2042  0.3038
   32MOL   H20737469   4.658   2.064   5.352  0.0064  3.7224  0.9226
   32MOL   H20837470   4.441   1.943   5.387  1.1588 -1.6190  0.4365
   32MOL   H20937471   4.417   1.948   5.216  1.0755 -0.5766 -0.9916
   32MOL   H21037472   4.553   1.761   5.178  2.0943  0.3171 -0.2539
   32MOL   H21137473   4.676   1.825   5.270 -0.2400  2.7474  1.7196
   32MOL   H21237474   4.572   1.767   5.482 -2.8941  0.6061  0.6680
   32MOL   H21337475   4.439   1.691   5.385 -0.3393 -0.0214  0.5242
   32MOL   H21437476   4.746   1.619   5.393  0.0330 -0.9758  0.1610
   32MOL   H21537477   4.627   1.532   5.293 -0.6828  0.4995 -0.5607
   32MOL   H21637478   4.506   1.488   5.529  0.2005  3.1183 -0.3796
   32MOL   H21737479   4.653   1.552   5.610 -1.7745  2.7855  0.0329
   32MOL   H21837480   4.777   1.357   5.514 -0.5752  0.4243 -0.4596
   32MOL   H21937481   4.643   1.306   5.416  1.3352  1.4313 -1.9391
   32MOL   H22037482   4.586   1.326   5.716 -0.6078 -0.0035 -0.4990
   32MOL   H22137483   4.680   1.194   5.638 -0.1195  0.0856  2.2222
   32MOL   H22237484   4.409   1.295   5.567 -0.8461 -0.4385 -0.7502
   32MOL   H22337485   4.480   1.163   5.482  2.9001  1.9665 -0.8718
   32MOL   H22437486   4.321   1.065   5.655 -1.0679 -0.6051  1.5378
   32MOL   H22537487   4.481   1.040   5.697  0.8619  0.2746 -1.5306
   32MOL   H22637488   4.294   1.221   6.055  0.7259 -1.1746  0.7605
   32MOL   H22737489   4.384   1.365   6.001  2.2972  2.0167  2.0636
   32MOL   H22837490   4.414   1.316   6.233  0.2874 -1.1014  1.5485
   32MOL   H22937491   4.574   1.281   6.165 -0.1934 -0.5919 -0.8267
   32MOL   H23037492   4.578   1.063   6.195  0.3144  0.1273  1.4492
   32MOL   H23137493   4.397   1.043   6.193  0.9671 -1.8541  0.0619
   32MOL   H23237494   4.385   1.151   6.403  0.4497  0.4819  1.2452
   32MOL   H23337495   4.564   1.152   6.416 -0.3027 -0.5382  0.0755
   32MOL   H23437496   4.414   0.891   6.373  0.2075 -0.7237 -0.0705
   32MOL   H23537497   4.583   0.926   6.412 -0.0689  0.4329 -1.1634
   32MOL   H23637498   4.499   1.068   6.624 -1.5711  1.5012 -0.8150
   32MOL   H23737499   4.352   0.998   6.596 -0.3631 -0.9887 -1.9054
   32MOL   H23837500   4.598   0.836   6.641  0.1559  1.8395 -1.2006
   32MOL   H23937501   4.424   0.783   6.627 -0.6681 -1.3032  1.3341
   32MOL   H24037502   4.372   0.884   6.846  0.8498  0.8792 -1.0039
   32MOL   H24137503   4.479   0.754   6.862 -0.3051 -0.0348 -0.7299
   32MOL   O24237504   4.701   0.936   6.868 -0.0700 -0.1937 -0.3221
   32MOL   C24337505   4.790   0.992   6.957 -0.3323 -0.0502  0.2920
   32MOL   C24437506   4.935   0.972   6.912 -0.3848 -0.0386 -0.5044
   32MOL   C24537507   4.977   1.072   6.799  0.4551 -0.2090 -0.3397
   32MOL   C24637508   4.905   1.060   6.665 -0.0069  0.4088 -0.9151
   32MOL   C24737509   4.953   1.174   6.578  0.0565 -0.2808 -0.2729
   32MOL   C24837510   4.886   1.204   6.439 -0.1534  0.1331 -0.4003
   32MOL   C24937511   4.983   1.281   6.356  0.3790 -0.0425  0.4201
   32MOL   C25037512   4.922   1.349   6.227  0.1218  0.2395  0.0607
   32MOL   C25137513   4.902   1.257   6.105 -0.2288 -0.0027 -0.4833
   32MOL   C25237514   4.830   1.320   5.988  0.0092  0.2887 -0.1174
   32MOL   O25337515   4.912   1.400   5.904 -0.0893 -0.1632  0.1262
   32MOL   C25437516   4.850   1.503   5.846  0.1692  0.2360  1.0826
   32MOL   O25537517   4.728   1.530   5.857 -0.2465  0.2670  0.0595
   32MOL   C25637518   4.940   1.583   5.761 -0.0763  0.2879  0.3512
   32MOL   C25737519   5.016   1.705   5.838 -0.0317 -0.2748 -0.7626
   32MOL   C25837520   4.931   1.828   5.840 -0.0504 -0.1630 -0.5885
   32MOL   C25937521   5.000   1.941   5.927  0.6474  0.1549 -0.5796
   32MOL   C26037522   4.968   2.083   5.873  0.2614  0.8262 -0.4683
   32MOL   C26137523   5.030   2.198   5.947 -0.3130  1.0479 -0.6853
   32MOL   C26237524   5.180   2.193   5.958 -0.0175  0.0769  0.6658
   32MOL   C26337525   5.238   2.331   5.998 -0.7499 -0.5145  0.0619
   32MOL   C26437526   5.279   2.406   5.876  0.3779  0.2154  0.4760
   32MOL   O26537527   5.373   2.379   5.804 -0.0947 -0.6539 -0.3664
   32MOL   H26637528   4.777   1.100   6.951  2.3548  0.3325  0.7545
   32MOL   H26737529   4.772   0.945   7.053 -1.4517  0.8360  0.5306
   32MOL   H26837530   4.998   0.991   6.999 -0.4819  0.9025 -0.6358
   32MOL   H26937531   4.940   0.866   6.886  3.8856  0.2691 -1.3263
   32MOL   H27037532   4.943   1.169   6.835 -1.6714 -2.1340  3.0846
   32MOL   H27137533   5.085   1.068   6.794  0.6043  1.3963  1.2305
   32MOL   H27237534   4.921   0.963   6.619 -0.2029  0.1975 -0.5445
   32MOL   H27337535   4.800   1.071   6.693  0.4777  2.9713  0.0624
   32MOL   H27437536   5.061   1.163   6.568  0.2577  1.4255 -0.0066
   32MOL   H27537537   4.946   1.274   6.621  5.0690  1.5511 -3.2677
   32MOL   H27637538   4.792   1.257   6.453  0.4051  1.6098 -2.0676
   32MOL   H27737539   4.856   1.113   6.387  1.3878 -0.9237  0.4960
   32MOL   H27837540   5.059   1.212   6.319 -0.2342 -0.7731  0.5106
   32MOL   H27937541   5.042   1.357   6.408  1.1856  0.0073 -0.5450
   32MOL   H28037542   4.998   1.420   6.196 -0.0593  0.6956  0.6587
   32MOL   H28137543   4.839   1.413   6.257  1.5381  2.0211  0.2569
   32MOL   H28237544   4.997   1.217   6.068  0.3044  1.5671 -0.8447
   32MOL   H28337545   4.839   1.177   6.145  1.0360  0.4801  2.6375
   32MOL   H28437546   4.793   1.239   5.926 -2.7131  1.9093 -0.6737
   32MOL   H28537547   4.740   1.366   6.028 -0.3065 -0.0580 -0.4257
   32MOL   H28637548   4.874   1.623   5.685 -0.1074  1.9563  1.2335
   32MOL   H28737549   5.010   1.517   5.710 -1.4227 -0.2786 -0.7836
   32MOL   H28837550   5.114   1.726   5.794  0.9642 -2.0243  0.5581
   32MOL   H28937551   5.031   1.674   5.941 -2.4212  0.0365 -0.2811
   32MOL   H29037552   4.833   1.804   5.882  0.2070  0.9643  0.7171
   32MOL   H29137553   4.907   1.861   5.739 -0.6202 -3.3344 -1.5153
   32MOL   H29237554   5.108   1.928   5.931  0.5713 -1.1460 -2.3982
   32MOL   H29337555   4.973   1.928   6.032  0.6235 -0.6674 -0.6878
   32MOL   H29437556   5.001   2.079   5.769  0.5937 -0.8698 -0.3167
   32MOL   H29537557   4.861   2.102   5.873 -0.1515 -1.1617  1.7765
   32MOL   H29637558   5.002   2.292   5.899 -1.0798  1.5612  0.7333
   32MOL   H29737559   4.985   2.196   6.046  0.0397  0.8280 -0.5300
   32MOL   H29837560   5.228   2.151   5.870 -0.5633  1.5069 -0.3324
   32MOL   H29937561   5.197   2.123   6.040  0.3642 -1.5804 -0.7956
   32MOL   H30037562   5.174   2.403   6.049 -0.1869 -0.1350  0.2311
   32MOL   H30137563   5.327   2.319   6.059 -0.6185  0.2538  0.0226
   32MOL   O30237564   5.198   2.516   5.857 -0.4101  0.1140 -0.0949
   32MOL   C30337565   5.219   2.609   5.752 -0.2220 -0.1747  0.0452
   32MOL   C30437566   5.223   2.745   5.806  0.2232  0.1869 -0.3718
   32MOL   C30537567   5.287   2.856   5.712 -0.1686 -0.1730 -0.0782
   32MOL   C30637568   5.259   3.002   5.747  0.2599  0.9308 -0.5183
   32MOL   C30737569   5.343   3.105   5.670  0.5432  0.9918  0.3246
   32MOL   C30837570   5.315   3.250   5.709  0.1514 -0.1576 -0.1388
   32MOL   C30937571   5.174   3.293   5.652  0.1991  0.3974 -0.1783
   32MOL   C31037572   5.118   3.413   5.720  0.2912 -0.5485  0.4599
   32MOL   C31137573   4.990   3.471   5.642 -1.0056  0.2519  0.1108
   32MOL   C31237574   4.893   3.559   5.728  0.2401  0.5823  0.4992
   32MOL   O31337575   4.950   3.682   5.760  0.5514  0.2032 -0.7967
   32MOL   C31437576   4.967   3.778   5.665 -0.1300 -0.4789  0.1143
   32MOL   O31537577   4.922   3.769   5.553  0.1080 -0.2158 -0.2258
   32MOL   C31637578   5.042   3.897   5.729 -1.1206  0.1615 -0.2280
   32MOL   C31737579   4.953   3.977   5.821  0.2961  0.2414  0.3648
   32MOL   C31837580   4.864   4.087   5.755  0.1488 -0.0688  0.1498
   32MOL   C31937581   4.743   4.038   5.677  0.0780  0.1701 -0.1979
   32MOL   C32037582   4.641   4.160   5.658 -0.0556  0.5009 -0.8037
   32MOL   C32137583   4.530   4.137   5.556 -0.3572 -0.1413  0.1759
   32MOL   C32237584   4.433   4.251   5.544  0.4259 -0.6427  0.3390
   32MOL   C32337585   4.490   4.375   5.476 -0.3472  0.7257 -0.4082
   32MOL   C32437586   4.372   4.469   5.436  0.2644  0.0184  1.3013
   32MOL   O32537587   4.253   4.451   5.476 -0.1998 -0.3635  0.0659
   32MOL   H32637588   5.309   2.596   5.693 -0.9749  0.8394 -1.3464
   32MOL   H32737589   5.141   2.591   5.678  0.7473 -1.5930 -0.6472
   32MOL   H32837590   5.124   2.783   5.832  0.0928  1.2986 -2.3971
   32MOL   H32937591   5.278   2.761   5.899  0.9804 -1.6531 -0.4944
   32MOL   H33037592   5.395   2.844   5.715  0.1366  1.9171 -1.6501
   32MOL   H33137593   5.261   2.844   5.607 -0.7689 -1.1446  0.1747
   32MOL   H33237594   5.154   3.028   5.733 -0.0333 -0.6186 -1.2617
   32MOL   H33337595   5.279   3.017   5.853  3.2052 -1.2913 -0.6765
   32MOL   H33437596   5.306   3.094   5.568 -1.3688  0.9920  0.9855
   32MOL   H33537597   5.450   3.087   5.667  0.1518 -1.2883 -0.8568
   32MOL   H33637598   5.395   3.311   5.668 -0.1618 -1.1632 -2.3508
   32MOL   H33737599   5.310   3.262   5.817  2.2204  1.8091 -0.2177
   32MOL   H33837600   5.110   3.205   5.651 -0.0023  0.5113  1.3390
   32MOL   H33937601   5.206   3.319   5.551 -0.5987 -0.0496 -0.5455
   32MOL   H34037602   5.196   3.487   5.730  0.0431 -0.0424 -1.2218
   32MOL   H34137603   5.096   3.382   5.823  0.9310 -1.8853  0.2000
   32MOL   H34237604   5.027   3.524   5.555  0.0625  2.6624  1.9496
   32MOL   H34337605   4.927   3.387   5.615 -0.7196  0.0329  0.1276
   32MOL   H34437606   4.798   3.576   5.677 -0.5885  1.9481  2.4146
   32MOL   H34537607   4.874   3.498   5.817  0.4633 -0.5073 -0.1899
   32MOL   H34637608   5.079   3.952   5.643 -0.8019  0.5749  0.1767
   32MOL   H34737609   5.123   3.856   5.790 -0.9438 -0.7330 -1.0445
   32MOL   H34837610   5.030   4.028   5.879  1.7614  0.0863 -1.3895
   32MOL   H34937611   4.903   3.908   5.890  2.3394 -2.0972 -0.3874
   32MOL   H35037612   4.939   4.140   5.696 -0.2833  0.9773  0.5381
   32MOL   H35137613   4.830   4.148   5.838  0.7789 -2.1937  2.0355
   32MOL   H35237614   4.692   3.950   5.716  1.2366 -0.8137 -0.8623
   32MOL   H35337615   4.772   4.009   5.576  3.6617  1.3455  0.4359
   32MOL   H35437616   4.592   4.177   5.754  0.3318 -0.1205 -0.4967
   32MOL   H35537617   4.702   4.249   5.639  1.7808 -0.6274 -0.3096
   32MOL   H35637618   4.582   4.116   5.462  0.8902 -1.9800  1.2366
   32MOL   H35737619   4.473   4.046   5.577 -0.2900 -0.1981  0.1147
   32MOL   H35837620   4.389   4.278   5.640  1.6821  0.4856  0.6054
   32MOL   H35937621   4.347   4.216   5.487 -0.2296  0.1584  0.8189
   32MOL   H36037622   4.568   4.415   5.542  1.6779 -2.7282 -0.6152
   32MOL   H36137623   4.537   4.338   5.385 -0.3162 -1.7359  0.5667
   32MOL   O36237624   4.415   4.566   5.347 -0.3998  0.1656  0.6003
   32MOL   C36337625   4.331   4.665   5.313  0.3610 -0.2708  0.9070
   32MOL   C36437626   4.282   4.668   5.171  0.3230 -0.2935 -0.2724
   32MOL   C36537627   4.210   4.533   5.143 -0.0355  0.0341 -0.7056
   32MOL   C36637628   4.152   4.522   5.002 -0.1962 -0.3718 -0.6359
   32MOL   C36737629   4.058   4.396   5.002  0.0546  0.1285  0.4490
   32MOL   C36837630   3.987   4.377   4.869 -0.9137 -0.0045  0.0088
   32MOL   C36937631   3.889   4.255   4.861 -0.1675 -0.1267 -0.8083
   32MOL   C37037632   3.963   4.117   4.890 -0.4568  0.2025 -0.4844
   32MOL   C37137633   3.880   3.991   4.875  0.0807 -0.4496 -0.4932
   32MOL   C37237634   3.958   3.853   4.897  0.3626 -1.4050  0.8395
   32MOL   O37337635   3.856   3.759   4.902 -0.6645  0.0692 -0.1628
   32MOL   C37437636   3.897   3.632   4.917  0.1095  0.9049  0.4161
   32MOL   O37537637   4.016   3.597   4.915 -0.7744 -0.0056 -0.1398
   32MOL   C37637638   3.787   3.525   4.917  0.2900  0.2051 -0.3962
   32MOL   C37737639   3.826   3.388   4.962  0.0252  0.4599 -0.0125
   32MOL   C37837640   3.717   3.279   4.944 -0.9223  0.2484 -0.0199
   32MOL   C37937641   3.715   3.228   4.797 -0.1261 -0.2958 -0.2210
   32MOL   C38037642   3.824   3.134   4.764 -0.8022  0.4835 -0.5104
   32MOL   C38137643   3.796   3.066   4.630 -0.2081  1.2216 -0.6539
   32MOL   C38237644   3.728   3.146   4.522 -0.8147 -0.1442  0.0605
   32MOL   C38337645   3.722   3.080   4.385 -0.7284 -0.0997  0.0209
   32MOL   C38437646   3.684   3.191   4.288 -0.2831 -0.3838 -0.0871
   32MOL   O38537647   3.769   3.230   4.213  0.0903 -0.2414 -0.3209
   32MOL   H38637648   4.250   4.669   5.386  0.5926  1.6550  1.0836
   32MOL   H38737649   4.376   4.759   5.345 -0.5324  1.0563 -1.6009
   32MOL   H38837650   4.221   4.758   5.159  0.9528  0.2536  0.5686
   32MOL   H38937651   4.367   4.681   5.104  0.3909  1.6455  0.1664
   32MOL   H39037652   4.290   4.459   5.157  0.3952  0.7670  0.9244
   32MOL   H39137653   4.135   4.512   5.220  1.1448 -2.7956 -0.2416
   32MOL   H39237654   4.103   4.610   4.960  0.0620 -1.2693 -2.8586
   32MOL   H39337655   4.234   4.504   4.932  0.3213 -0.3310 -0.0479
   32MOL   H39437656   3.990   4.409   5.087  0.6216  1.6102  0.7030
   32MOL   H39537657   4.108   4.306   5.037 -0.2187 -0.3085 -0.2982
   32MOL   H39637658   4.061   4.357   4.792  1.8626 -1.0853  2.8647
   32MOL   H39737659   3.930   4.467   4.843  1.7703  1.4064 -1.1919
   32MOL   H39837660   3.832   4.262   4.768 -0.0906  1.2051 -0.7732
   32MOL   H39937661   3.811   4.265   4.937  0.5362 -0.0502 -0.0921
   32MOL   H40037662   4.000   4.122   4.993 -0.7715  0.4964 -0.3888
   32MOL   H40137663   4.048   4.097   4.825  1.8140  0.7493  2.1836
   32MOL   H40237664   3.806   3.986   4.955 -0.3887 -0.1402 -0.9016
   32MOL   H40337665   3.816   3.992   4.786 -1.9689 -2.3169  0.9069
   32MOL   H40437666   4.019   3.827   4.810 -0.7814 -1.4059  0.0256
   32MOL   H40537667   4.020   3.855   4.987  0.7083  1.2306  0.5994
   32MOL   H40637668   3.735   3.533   4.821 -0.1268  0.3002 -0.1634
   32MOL   H40737669   3.703   3.555   4.979 -0.2988  0.6176 -1.3682
   32MOL   H40837670   3.854   3.408   5.066 -0.9940  0.3571  0.2945
   32MOL   H40937671   3.920   3.358   4.918 -0.6478 -0.1393 -1.0571
   32MOL   H41037672   3.621   3.311   4.983 -0.4596  1.7793 -0.0981
   32MOL   H41137673   3.741   3.197   5.012 -2.5199  1.4419  2.0228
   32MOL   H41237674   3.702   3.305   4.721 -1.8872 -1.8083 -1.5137
   32MOL   H41337675   3.616   3.182   4.794 -0.7888  1.0163  1.2187
   32MOL   H41437676   3.929   3.163   4.758 -0.6915  0.3196  0.6503
   32MOL   H41537677   3.831   3.060   4.844  1.8420  0.1460 -1.0183
   32MOL   H41637678   3.879   3.008   4.591 -0.1173  0.5400  0.5270
   32MOL   H41737679   3.732   2.978   4.643  1.4440  0.0060 -0.5809
   32MOL   H41837680   3.777   3.243   4.528 -0.0973 -0.5267  0.4249
   32MOL   H41937681   3.626   3.164   4.557 -1.6041  2.8088 -3.4122
   32MOL   H42037682   3.818   3.033   4.365 -0.9134 -0.4982  0.0624
   32MOL   H42137683   3.654   2.995   4.387  0.8595 -1.4551 -1.6654
   32MOL   O42237684   3.560   3.221   4.287 -0.3075  0.3447 -0.1016
   32MOL   C42337685   3.515   3.323   4.203  0.4263 -0.7449  0.6175
   32MOL   C42437686   3.454   3.258   4.072 -0.6523 -0.0689 -0.6832
   32MOL   C42537687   3.369   3.373   4.005  0.3701  0.3731 -0.1267
   32MOL   C42637688   3.306   3.316   3.873  0.1062  0.0601  0.3013
   32MOL   C42737689   3.203   3.414   3.810 -0.0042 -1.0588  0.4731
   32MOL   C42837690   3.178   3.377   3.667 -0.4018 -0.1666 -0.4686
   32MOL   C42937691   3.053   3.437   3.605 -0.3086 -0.0407  0.1176
   32MOL   C43037692   3.058   3.588   3.573  0.9518 -0.1775  0.7989
   32MOL   C43137693   2.918   3.643   3.538 -0.1375  0.7190 -1.0120
   32MOL   C43237694   2.912   3.777   3.465 -0.8658  0.5911 -0.1835
   32MOL   O43337695   2.981   3.748   3.342  0.0828 -0.0375 -0.0874
   32MOL   C43437696   3.048   3.853   3.290  0.6075 -0.2712  0.3875
   32MOL   O43537697   3.041   3.969   3.324 -0.8857  0.0075 -0.0173
   32MOL   C43637698   3.135   3.809   3.168  0.2105 -0.4375  0.4561
   32MOL   C43737699   3.229   3.916   3.108  0.1086 -0.2981 -0.5741
   32MOL   C43837700   3.360   3.867   3.046  1.0115 -0.2711 -0.0494
   32MOL   C43937701   3.353   3.807   2.909 -0.4448 -0.3099 -0.2814
   32MOL   C44037702   3.478   3.726   2.871 -0.0925 -0.4647  0.2779
   32MOL   C44137703   3.504   3.592   2.938  0.1295  0.1784  0.1678
   32MOL   C44237704   3.640   3.536   2.903  0.4815  0.6198  0.2178
   32MOL   C44337705   3.659   3.397   2.971  0.6526  0.4014 -0.0196
   32MOL   C44437706   3.808   3.349   2.964  0.3343 -0.2155  0.0437
   32MOL   O44537707   3.875   3.359   2.857  0.0740 -0.5168  0.3124
   32MOL   H44637708   3.447   3.388   4.258 -0.3483 -1.4698  0.5176
   32MOL   H44737709   3.602   3.384   4.177 -1.6459  2.6766  1.4601
   32MOL   H44837710   3.536   3.224   4.010  0.0629  0.8711 -0.2655
   32MOL   H44937711   3.395   3.173   4.105 -0.8119  0.8304  1.5169
   32MOL   H45037712   3.298   3.413   4.078  1.3130  1.4367  0.2351
   32MOL   H45137713   3.430   3.458   3.975  2.0931 -1.0127 -0.5867
   32MOL   H45237714   3.391   3.297   3.807  0.8739 -0.1185  1.3390
   32MOL   H45337715   3.263   3.217   3.891  0.4068 -0.2740 -0.7185
   32MOL   H45437716   3.236   3.517   3.822  1.9919 -1.7272  0.9811
   32MOL   H45537717   3.111   3.410   3.868  0.0190  3.7214  1.0016
   32MOL   H45637718   3.175   3.269   3.660  3.1262 -0.3749 -0.0457
   32MOL   H45737719   3.268   3.422   3.625 -0.3695  0.8720  0.6637
   32MOL   H45837720   2.970   3.441   3.676 -0.2562  0.5683  0.1397
   32MOL   H45937721   3.017   3.394   3.511 -3.0581 -0.5343  1.3510
   32MOL   H46037722   3.128   3.609   3.492  1.9225  0.3852  1.7758
   32MOL   H46137723   3.086   3.649   3.659 -0.6588 -0.7963  1.7770
   32MOL   H46237724   2.852   3.571   3.489 -1.0903 -0.3399  1.7456
   32MOL   H46337725   2.864   3.665   3.630 -0.3845 -0.8238 -0.7742
   32MOL   H46437726   2.810   3.811   3.446 -0.8668 -0.2351 -1.6965
   32MOL   H46537727   2.960   3.863   3.512  0.8889  0.9464 -2.5024
   32MOL   H46637728   3.067   3.773   3.090 -0.5317  0.5207  0.6503
   32MOL   H46737729   3.189   3.718   3.192  1.2594  0.3862  1.2551
   32MOL   H46837730   3.258   3.991   3.182  0.0082  0.0848 -0.9182
   32MOL   H46937731   3.163   3.968   3.038  0.2840  0.5170 -0.1409
   32MOL   H47037732   3.411   3.806   3.120 -0.3594 -0.3128  0.8883
   32MOL   H47137733   3.442   3.938   3.037  1.1391 -0.5409 -1.0579
   32MOL   H47237734   3.335   3.880   2.831  0.8985  1.0532  0.6591
   32MOL   H47337735   3.262   3.748   2.903 -0.1297 -0.5642 -3.4732
   32MOL   H47437736   3.478   3.706   2.764 -1.5671  1.5114 -0.1273
   32MOL   H47537737   3.571   3.784   2.879 -0.3219  0.1543 -1.3355
   32MOL   H47637738   3.503   3.600   3.046 -0.6741  1.4355  0.0772
   32MOL   H47737739   3.430   3.515   2.916  0.3945  0.3725 -1.4767
   32MOL   H47837740   3.720   3.607   2.926 -0.9993  2.6601 -0.7860
   32MOL   H47937741   3.640   3.513   2.797 -0.0029 -4.1221  1.1382
   32MOL   H48037742   3.636   3.424   3.074  3.2787 -0.6748  0.8874
   32MOL   H48137743   3.581   3.337   2.924 -1.6537  1.7216  1.9951
   32MOL   O48237744   3.842   3.277   3.071  0.6056 -0.5181  0.0684
   32MOL   C48337745   3.963   3.209   3.076 -0.1154 -0.3503 -0.5569
   32MOL   C48437746   3.991   3.194   3.232 -0.0080  0.6462  0.5733
   32MOL   C48537747   4.005   3.329   3.317 -0.3457  0.2433 -0.4263
   32MOL   C48637748   4.036   3.322   3.462 -0.6597  0.4677  0.0750
   32MOL   C48737749   4.077   3.456   3.516  0.1115  0.9964 -0.4006
   32MOL   C48837750   3.962   3.549   3.552  0.4005 -0.9064  0.8467
   32MOL   C48937751   3.997   3.692   3.535 -0.0235 -0.5320 -0.0605
   32MOL   C49037752   3.897   3.791   3.604  0.0302 -0.7418 -0.6319
   32MOL   C49137753   3.931   3.931   3.571  0.3192 -0.1042  1.0908
   32MOL   C49237754   3.831   4.045   3.612  0.3055 -0.1921 -0.4171
   32MOL   O49337755   3.707   4.030   3.543 -0.0047 -0.1470  0.0187
   32MOL   C49437756   3.621   4.136   3.548 -0.4409 -0.1216 -0.0825
   32MOL   O49537757   3.641   4.245   3.601  0.1018  0.0322 -0.1657
   32MOL   C49637758   3.485   4.098   3.476 -0.6515 -0.8435 -0.0766
   32MOL   C49737759   3.360   4.157   3.530  0.5261 -0.1211 -0.7324
   32MOL   C49837760   3.339   4.309   3.512 -0.3259  0.3155  0.8680
   32MOL   C49937761   3.200   4.360   3.562 -0.7929 -0.6097  0.1381
   32MOL   C50037762   3.177   4.507   3.549 -0.1398 -0.2264 -0.7433
   32MOL   C50137763   3.215   4.571   3.417 -0.2145  0.4129  0.5269
   32MOL   C50237764   3.148   4.517   3.292  0.5566 -0.0751  0.4886
   32MOL   C50337765   3.180   4.599   3.162  0.4823  0.1602  0.1091
   32MOL   C50437766   3.141   4.750   3.178 -0.4995 -0.1890 -1.0821
   32MOL   O50537767   3.227   4.839   3.192  0.2512 -0.1095 -0.0695
   32MOL   H50637768   3.957   3.113   3.025 -2.8867 -0.0157 -0.9291
   32MOL   H50737769   4.033   3.277   3.028 -0.5851  0.8377  0.4208
   32MOL   H50837770   3.907   3.135   3.270 -1.4314  1.1309 -1.7190
   32MOL   H50937771   4.081   3.133   3.239  0.7662  1.7999  0.6753
   32MOL   H51037772   4.088   3.380   3.269 -0.0817 -1.3791 -1.7425
   32MOL   H51137773   3.922   3.396   3.291 -1.2415 -1.3181 -1.7084
   32MOL   H51237774   3.951   3.284   3.518  0.1426  0.7242  1.4837
   32MOL   H51337775   4.118   3.249   3.467  0.1361  1.3358 -0.1755
   32MOL   H51437776   4.140   3.513   3.447  0.0869  1.8102  0.2473
   32MOL   H51537777   4.138   3.449   3.605 -0.9223 -0.0678  0.2269
   32MOL   H51637778   3.952   3.526   3.659  0.8302  2.1572  1.5984
   32MOL   H51737779   3.867   3.525   3.505  0.6935 -0.6952  0.1480
   32MOL   H51837780   3.997   3.706   3.427 -1.4628  0.0324  0.0007
   32MOL   H51937781   4.092   3.720   3.581  0.7863  0.8194 -2.4708
   32MOL   H52037782   3.908   3.781   3.712 -0.2866  1.2170 -0.4004
   32MOL   H52137783   3.797   3.762   3.573 -0.1173 -0.5715 -0.3232
   32MOL   H52237784   4.027   3.953   3.618 -0.8220  0.5049  3.2038
   32MOL   H52337785   3.942   3.934   3.463  0.4395 -2.8464  1.0086
   32MOL   H52437786   3.823   4.049   3.721 -1.2597  0.7573 -0.5516
   32MOL   H52537787   3.861   4.145   3.579 -0.9858  0.8444  1.4662
   32MOL   H52637788   3.490   3.989   3.476  0.9673 -0.7773  0.2447
   32MOL   H52737789   3.503   4.126   3.372 -0.7714 -0.3420  0.0359
   32MOL   H52837790   3.365   4.133   3.636  3.7761 -0.1309 -0.8368
   32MOL   H52937791   3.280   4.097   3.487  0.9861 -0.1021 -1.6194
   32MOL   H53037792   3.369   4.339   3.412 -3.2161  2.4297  0.5871
   32MOL   H53137793   3.420   4.352   3.571 -0.7445  0.1657  1.5672
   32MOL   H53237794   3.199   4.336   3.669  1.7710  0.5302  0.4761
   32MOL   H53337795   3.117   4.307   3.517 -1.9481  1.7455 -0.5901
   32MOL   H53437796   3.070   4.523   3.561 -0.2838 -1.9021  0.3520
   32MOL   H53537797   3.227   4.570   3.623 -1.7078  0.3853 -0.1851
   32MOL   H53637798   3.180   4.674   3.423  0.5791  0.7592 -0.7421
   32MOL   H53737799   3.320   4.575   3.391  0.0638  1.6260  1.7222
   32MOL   H53837800   3.043   4.503   3.319  0.7728  0.5461  1.6918
   32MOL   H53937801   3.182   4.416   3.271  0.5107  0.0369 -0.1318
   32MOL   H54037802   3.287   4.598   3.143  0.2752  2.1859 -1.2821
   32MOL   H54137803   3.129   4.556   3.076  0.2006 -0.3737  0.5436
   32MOL   O54237804   3.010   4.771   3.185  0.2031 -0.1014 -0.1846
   32MOL   C54337805   2.948   4.899   3.201 -0.0393  0.0002 -0.1376
   32MOL   C54437806   2.952   4.974   3.069  0.6584  0.5452 -0.5107
   32MOL   C54537807   2.867   5.107   3.068  0.3386 -0.6933 -0.4634
   32MOL   C54637808   2.874   5.176   2.931 -0.0518 -0.0135 -0.7906
   32MOL   C54737809   2.802   5.313   2.924  0.3541 -0.1640  0.4268
   32MOL   C54837810   2.802   5.363   2.785 -0.3819 -0.5212  0.0385
   32MOL   C54937811   2.726   5.498   2.778  0.0174 -0.4835  0.3233
   32MOL   C55037812   2.734   5.557   2.640 -0.0893 -0.5963 -0.5572
   32MOL   C55137813   2.698   5.708   2.630 -0.0218 -0.2884 -0.0789
   32MOL   C55237814   2.824   5.793   2.651  0.0152 -0.4544 -0.1409
   32MOL   O55337815   2.785   5.931   2.633 -0.3190 -0.2617  0.0418
   32MOL   C55437816   2.844   6.035   2.696 -1.2889 -0.7260  0.1578
   32MOL   O55537817   2.929   6.029   2.782  0.0105  0.7510  0.0473
   32MOL   C55637818   2.775   6.164   2.663 -0.3195 -0.9512  0.1357
   32MOL   C55737819   2.663   6.209   2.767  0.0205 -0.0229  0.5564
   32MOL   C55837820   2.546   6.112   2.764 -0.4375 -0.8250  0.2820
   32MOL   C55937821   2.435   6.163   2.852 -0.2114 -0.5761 -0.5383
   32MOL   C56037822   2.350   6.277   2.797  0.5366 -0.5287  0.2273
   32MOL   C56137823   2.228   6.315   2.886  0.4480  0.3023  0.3298
   32MOL   C56237824   2.120   6.214   2.863 -0.1658  0.5613  0.7834
   32MOL   C56337825   2.069   6.212   2.714 -0.0901  0.7004 -0.6759
   32MOL   C56437826   1.950   6.120   2.684 -0.5387  0.3884 -0.6437
   32MOL   O56537827   1.962   6.011   2.617  0.5040  0.0546  0.1406
   32MOL   H56637828   2.843   4.885   3.229  0.4044  1.3074  2.2944
   32MOL   H56737829   2.998   4.956   3.279 -2.7954  0.7784  1.1520
   32MOL   H56837830   3.052   5.006   3.040  0.7796 -1.3891 -2.3264
   32MOL   H56937831   2.919   4.910   2.987  0.0408 -0.5324  0.5608
   32MOL   H57037832   2.766   5.081   3.099  0.5034  0.1093  0.8100
   32MOL   H57137833   2.918   5.171   3.140 -0.6454 -0.5182  0.0800
   32MOL   H57237834   2.979   5.198   2.909  0.5485 -2.5335 -0.5674
   32MOL   H57337835   2.832   5.114   2.852  1.7878 -0.2069 -1.6444
   32MOL   H57437836   2.840   5.377   3.004  0.2536  0.5740 -0.1153
   32MOL   H57537837   2.700   5.282   2.949  0.8506 -1.9843  0.2820
   32MOL   H57637838   2.743   5.296   2.722 -1.4686 -0.4948  1.0156
   32MOL   H57737839   2.904   5.381   2.752  0.0610 -0.1351  1.5585
   32MOL   H57837840   2.775   5.577   2.835 -0.1446 -0.7282  0.8031
   32MOL   H57937841   2.622   5.485   2.810 -0.7014  0.6469 -1.4719
   32MOL   H58037842   2.657   5.503   2.584  0.7444 -1.0043 -1.3321
   32MOL   H58137843   2.832   5.538   2.596  0.7914 -0.5608  1.3606
   32MOL   H58237844   2.664   5.725   2.528 -3.4099 -0.1488  0.9870
   32MOL   H58337845   2.615   5.746   2.691  0.3594  1.2656 -0.4932
   32MOL   H58437846   2.860   5.778   2.753 -0.8612 -2.9002 -0.1650
   32MOL   H58537847   2.907   5.768   2.585  0.8043 -0.6510  0.9157
   32MOL   H58637848   2.751   6.161   2.557 -0.4339  0.5769  0.1083
   32MOL   H58737849   2.853   6.240   2.666 -0.9976 -0.2845  1.3561
   32MOL   H58837850   2.635   6.308   2.731 -1.0732 -0.7513 -0.6294
   32MOL   H58937851   2.716   6.211   2.862  1.7582  0.7948 -0.4153
   32MOL   H59037852   2.585   6.012   2.784  0.7410 -0.5284 -0.4977
   32MOL   H59137853   2.500   6.109   2.666  0.5003  0.4594 -0.2021
   32MOL   H59237854   2.473   6.216   2.939  0.3356 -0.3066 -0.9339
   32MOL   H59337855   2.371   6.084   2.889 -1.7639  0.1760 -1.5671
   32MOL   H59437856   2.405   6.370   2.794 -1.3301  0.5841 -0.2231
   32MOL   H59537857   2.329   6.257   2.691  0.5938  0.0934  0.0949
   32MOL   H59637858   2.251   6.327   2.992  1.4840 -0.0808  0.1531
   32MOL   H59737859   2.184   6.411   2.861  1.3310  0.5736 -0.1884
   32MOL   H59837860   2.033   6.227   2.928 -1.2934  0.3401 -0.6499
   32MOL   H59937861   2.158   6.116   2.891 -0.8609  0.9542  3.1878
   32MOL   H60037862   2.037   6.316   2.705 -0.9236  0.4520 -0.6027
   32MOL   H60137863   2.142   6.188   2.636 -1.1629 -0.1256 -1.4410
   32MOL   O60237864   1.838   6.166   2.735 -0.7869 -0.6508  0.2933
   32MOL   C60337865   1.713   6.100   2.736  0.0745 -0.1791  0.0161
   32MOL   C60437866   1.595   6.190   2.787  0.1766  0.3621  0.3688
   32MOL   C60537867   1.462   6.112   2.809 -0.2829  0.4683  0.1092
   32MOL   C60637868   1.349   6.214   2.814 -0.0870 -0.0918  0.6571
   32MOL   C60737869   1.305   6.235   2.666 -0.6397 -0.1619 -0.6828
   32MOL   C60837870   1.219   6.361   2.654 -0.8486  0.6554  0.4305
   32MOL   C60937871   1.152   6.364   2.511 -0.7718  0.3908 -0.1178
   32MOL   C61037872   1.099   6.505   2.505 -0.6070  0.2284  0.5171
   32MOL   C61137873   1.215   6.605   2.466 -0.4068  0.8713  0.1374
   32MOL   C61237874   1.163   6.741   2.425  0.5049  0.1997 -0.3183
   32MOL   O61337875   1.097   6.788   2.546 -0.3092  0.8749 -0.7528
   32MOL   C61437876   1.165   6.875   2.636  0.1616 -0.3278 -0.3285
   32MOL   O61537877   1.276   6.928   2.625 -0.2748 -0.2609  0.2370
   32MOL   C61637878   1.084   6.913   2.760  0.3050  0.0490 -0.8194
   32MOL   C61737879   1.042   6.788   2.846 -0.4529  0.5122 -0.3757
   32MOL   C61837880   1.142   6.675   2.871 -0.5008 -0.0878 -0.1304
   32MOL   C61937881   1.108   6.593   2.993  0.0877 -0.1142  0.0250
   32MOL   C62037882   1.194   6.469   3.017  0.1040 -0.5736 -0.6569
   32MOL   C62137883   1.335   6.495   3.059  0.0031 -0.2167 -0.0190
   32MOL   C62237884   1.347   6.585   3.187  0.2949 -0.4365 -0.4182
   32MOL   C62337885   1.483   6.591   3.257  0.2660 -0.0776  0.7224
   32MOL   C62437886   1.493   6.656   3.391 -0.1672  0.5545 -1.0038
   32MOL   O62537887   1.602   6.705   3.437  0.0884  0.0423 -0.9044
   32MOL   H62637888   1.698   6.070   2.633  0.4313 -0.6691  0.1026
   32MOL   H62737889   1.724   6.009   2.796 -1.9451  0.6512  1.7302
   32MOL   H62837890   1.627   6.231   2.883  0.8953 -2.6993  1.5146
   32MOL   H62937891   1.573   6.266   2.713 -1.6634 -0.9064 -0.4099
   32MOL   H63037892   1.455   6.034   2.733  1.6203 -0.0369  0.4282
   32MOL   H63137893   1.469   6.055   2.902 -0.8695 -1.3995 -0.9711
   32MOL   H63237894   1.262   6.175   2.867 -1.5362  0.8138 -0.9843
   32MOL   H63337895   1.382   6.303   2.867  3.3387 -0.2330 -1.0602
   32MOL   H63437896   1.258   6.143   2.631 -0.7682 -1.4900  2.7512
   32MOL   H63537897   1.386   6.254   2.596  0.8837  1.5816  1.4961
   32MOL   H63637898   1.283   6.447   2.673 -0.5950  0.6894 -0.5497
   32MOL   H63737899   1.142   6.369   2.730 -2.0419  2.4048 -0.9258
   32MOL   H63837900   1.077   6.285   2.505  0.5853 -0.7676 -2.8357
   32MOL   H63937901   1.225   6.338   2.434  0.8425  2.8567  0.5277
   32MOL   H64037902   1.033   6.531   2.587 -0.2468  1.1043  0.5306
   32MOL   H64137903   1.033   6.518   2.419  1.0368  2.0367 -0.5127
   32MOL   H64237904   1.275   6.626   2.555  2.4235 -0.9675 -1.2673
   32MOL   H64337905   1.272   6.555   2.388 -1.5404 -1.8752  1.0022
   32MOL   H64437906   1.249   6.801   2.395  2.4083 -3.2025 -2.0586
   32MOL   H64537907   1.096   6.728   2.340 -0.0646 -1.8849  0.3979
   32MOL   H64637908   0.992   6.957   2.723 -0.3158 -0.1712  0.4366
   32MOL   H64737909   1.142   6.983   2.820  0.8865 -0.0338 -1.2743
   32MOL   H64837910   0.943   6.753   2.816 -0.9036  2.9243 -1.8567
   32MOL   H64937911   1.022   6.839   2.941 -0.7213 -0.0136 -0.1458
   32MOL   H65037912   1.241   6.718   2.886  0.4655 -3.1494  2.7647
   32MOL   H65137913   1.157   6.606   2.788  0.6213 -1.6834  1.3593
   32MOL   H65237914   1.012   6.551   2.961 -0.2736  0.4297  0.3802
   32MOL   H65337915   1.090   6.652   3.083 -0.5506  1.0058 -0.8187
   32MOL   H65437916   1.153   6.398   3.090 -2.0357  1.8780  0.6354
   32MOL   H65537917   1.183   6.406   2.929  0.2711 -1.8585  0.2298
   32MOL   H65637918   1.384   6.400   3.084 -0.6102 -0.7236 -0.7165
   32MOL   H65737919   1.401   6.532   2.980  1.3512  1.9476  2.0806
   32MOL   H65837920   1.265   6.567   3.257  1.5275 -0.2555  1.1013
   32MOL   H65937921   1.309   6.684   3.162  3.3647  0.9032 -0.0317
   32MOL   H66037922   1.520   6.490   3.273  1.3307 -0.4546 -3.6597
   32MOL   H66137923   1.560   6.626   3.189 -2.9563  0.4896 -2.8461
   32MOL   O66237924   1.378   6.667   3.452 -0.2755 -0.0158  0.6953
   32MOL   C66337925   1.374   6.705   3.588  0.1440 -0.1727  0.2920
   32MOL   C66437926   1.274   6.819   3.593  0.2298  0.3036 -0.4480
   32MOL   C66537927   1.331   6.948   3.534 -0.4322  0.1728 -0.2773
   32MOL   C66637928   1.243   7.071   3.562 -1.1318  0.6131 -0.2396
   32MOL   C66737929   1.098   7.056   3.508  0.3043 -0.2250 -0.0493
   32MOL   C66837930   1.085   7.039   3.361  0.0312 -0.8964 -0.4654
   32MOL   C66937931   0.945   6.988   3.316  0.2725  0.3810 -0.5269
   32MOL   C67037932   0.910   7.022   3.166  0.5808  0.3589  0.0992
   32MOL   C67137933   0.780   6.969   3.125 -0.1545 -0.5917  0.6401
   32MOL   C67237934   0.659   7.054   3.173  0.1689 -0.1772  0.1503
   32MOL   O67337935   0.553   6.968   3.177 -0.3511 -0.1538  0.8863
   32MOL   C67437936   0.426   7.013   3.202  0.2885 -0.2920 -0.1695
   32MOL   O67537937   0.395   7.129   3.216  0.4865  0.0226 -0.7322
   32MOL   C67637938   0.327   6.898   3.208 -0.0776 -0.5515 -0.1697
   32MOL   C67737939   0.327   6.841   3.346 -0.9749 -0.4686 -0.5980
   32MOL   C67837940   0.457   6.759   3.364  0.1631 -0.5406  0.0335
   32MOL   C67937941   0.449   6.674   3.491  0.2222  0.4055  0.1764
   32MOL   C68037942   0.351   6.556   3.488  0.5480  0.5975 -0.8687
   32MOL   C68137943   0.359   6.454   3.605 -0.3670  0.4149  0.0165
   32MOL   C68237944   0.306   6.519   3.739 -0.2676  0.0998  0.1975
   32MOL   C68337945   0.319   6.415   3.853  0.5771 -0.3420 -0.6924
   32MOL   C68437946   0.454   6.418   3.920 -0.3066 -0.0366  0.0242
   32MOL   O68537947   0.550   6.468   3.863  0.6934 -0.1532 -0.2096
   32MOL   H68637948   1.374   6.622   3.658 -0.3338 -0.3029  0.1364
   32MOL   H68737949   1.463   6.764   3.613  1.9162 -1.8629 -1.8843
   32MOL   H68837950   1.185   6.789   3.538 -1.2212  1.6824  1.1027
   32MOL   H68937951   1.234   6.840   3.692 -3.1930 -1.2205 -1.4361
   32MOL   H69037952   1.428   6.965   3.581 -1.0164  0.2859  0.9024
   32MOL   H69137953   1.365   6.934   3.432  2.8236 -0.6443  0.8628
   32MOL   H69237954   1.241   7.073   3.671 -0.8712 -0.8298 -0.2006
   32MOL   H69337955   1.294   7.162   3.528  0.1619 -1.2681 -3.6315
   32MOL   H69437956   1.037   7.142   3.535 -2.9041 -1.3655 -3.2572
   32MOL   H69537957   1.038   6.979   3.556  1.3334 -0.8898  0.1900
   32MOL   H69637958   1.168   6.982   3.319  2.4157  0.6344  2.0156
   32MOL   H69737959   1.096   7.139   3.317 -0.6069 -1.1381 -1.1940
   32MOL   H69837960   0.868   7.033   3.378  0.1528 -1.2595  0.5408
   32MOL   H69937961   0.936   6.880   3.333 -0.2707  0.7595  1.6925
   32MOL   H70037962   0.987   6.986   3.098  0.5310  0.5115 -0.0394
   32MOL   H70137963   0.910   7.129   3.146  0.9029 -0.0673 -2.3943
   32MOL   H70237964   0.773   6.978   3.017  0.9554 -0.5383  0.5658
   32MOL   H70337965   0.769   6.862   3.147 -3.5035 -1.0088 -2.6164
   32MOL   H70437966   0.666   7.094   3.274 -1.3806  0.1933  0.1205
   32MOL   H70537967   0.644   7.131   3.098  1.3974  0.1973  0.2862
   32MOL   H70637968   0.347   6.820   3.134 -1.5905 -1.6066  0.5213
   32MOL   H70737969   0.232   6.947   3.186 -0.6443 -1.3819  0.4015
   32MOL   H70837970   0.238   6.780   3.356 -1.8986  1.0301  0.6086
   32MOL   H70937971   0.315   6.919   3.422 -2.4208 -2.5957  1.4250
   32MOL   H71037972   0.539   6.829   3.379  0.7783 -1.5851  1.7603
   32MOL   H71137973   0.475   6.702   3.273 -1.0304 -1.2555  0.2358
   32MOL   H71237974   0.419   6.726   3.582  0.2813 -1.5663  1.3547
   32MOL   H71337975   0.552   6.645   3.514 -0.1306 -0.8602  0.1854
   32MOL   H71437976   0.249   6.591   3.480 -0.6175 -2.2176  0.8547
   32MOL   H71537977   0.373   6.497   3.399 -0.2795 -0.9057 -0.1041
   32MOL   H71637978   0.299   6.370   3.571  0.5364  0.0266 -0.6447
   32MOL   H71737979   0.463   6.425   3.618  0.1094  0.9525 -2.3753
   32MOL   H71837980   0.199   6.535   3.729 -0.2604 -1.3525 -2.8860
   32MOL   H71937981   0.354   6.616   3.755  1.6741 -0.8249  0.0788
   32MOL   H72037982   0.249   6.439   3.933  2.3520  1.3030  0.4159
   32MOL   H72137983   0.302   6.313   3.818  0.2340 -0.7712  0.6712
   32MOL   O72237984   0.455   6.361   4.047 -0.0071  0.0729  0.2736
   32MOL   C72337985   0.575   6.332   4.116 -0.4440 -0.5357  0.3890
   32MOL   C72437986   0.571   6.410   4.251  0.6061  0.2651 -0.5003
   32MOL   C72537987   0.688   6.387   4.350 -0.3118 -0.0071  0.4657
   32MOL   C72637988   0.655   6.445   4.492 -0.4864  0.1896  0.2806
   32MOL   C72737989   0.747   6.424   4.614  0.2194  0.1325  0.0803
   32MOL   C72837990   0.699   6.505   4.734 -0.0281 -0.3342  0.1717
   32MOL   C72937991   0.792   6.494   4.858 -0.1966 -0.4658  0.5544
   32MOL   C73037992   0.764   6.370   4.944  0.1571  0.1516  0.0879
   32MOL   C73137993   0.856   6.358   5.066 -0.5932  0.7309 -0.5370
   32MOL   C73237994   0.796   6.287   5.186  0.8485  0.0974  0.4012
   32MOL   O73337995   0.733   6.164   5.158  0.2056  0.3278  0.2421
   32MOL   C73437996   0.803   6.050   5.124 -0.7195  0.3092 -0.0493
   32MOL   O73537997   0.925   6.040   5.125  0.2835 -0.4736 -0.0162
   32MOL   C73637998   0.705   5.944   5.075  0.3617 -0.0906  1.1722
   32MOL   C73737999   0.670   5.968   4.923  0.2732 -0.1900 -0.3491
   32MOL   C73838000   0.584   5.865   4.863  0.3434 -0.0886  0.9144
   32MOL   C73938001   0.585   5.870   4.708 -0.0740 -0.1767 -0.3651
   32MOL   C74038002   0.544   6.005   4.653 -0.1700 -0.1914 -0.2872
   32MOL   C74138003   0.582   6.012   4.498 -0.2311 -1.0247 -0.1236
   32MOL   C74238004   0.520   5.906   4.411  0.2379  0.5990 -0.2577
   32MOL   C74338005   0.500   5.939   4.264  0.0367  0.1192  1.0246
   32MOL   C74438006   0.621   5.964   4.173  0.2899 -0.3944 -0.2438
   32MOL   O74538007   0.738   5.948   4.211  0.4661 -0.4255  0.3940
   32MOL   H74638008   0.581   6.228   4.147 -0.7652 -1.0832 -1.3098
   32MOL   H74738009   0.668   6.361   4.066 -0.9187  0.8295  0.2762
   32MOL   H74838010   0.560   6.517   4.230  3.3334  1.2070  2.3438
   32MOL   H74938011   0.476   6.393   4.302  2.7437 -0.9685  3.2601
   32MOL   H75038012   0.707   6.280   4.357  2.1110  0.2711 -1.1141
   32MOL   H75138013   0.778   6.437   4.313  1.0922 -2.0499  1.0660
   32MOL   H75238014   0.637   6.552   4.482 -2.9615 -0.3551 -1.3387
   32MOL   H75338015   0.557   6.406   4.519 -0.3113  0.8413  1.9253
   32MOL   H75438016   0.847   6.458   4.584  0.2344  0.5666  0.6087
   32MOL   H75538017   0.757   6.319   4.641 -4.0082 -0.6776 -1.2384
   32MOL   H75638018   0.595   6.488   4.760 -0.3602  0.9712 -0.2693
   32MOL   H75738019   0.692   6.607   4.695  0.5061 -0.6221 -0.6970
   32MOL   H75838020   0.788   6.584   4.919 -0.1461  2.2263 -3.2595
   32MOL   H75938021   0.897   6.502   4.828 -0.0052  0.4428  1.4497
   32MOL   H76038022   0.770   6.276   4.889  1.0221 -0.7000  1.5910
   32MOL   H76138023   0.661   6.387   4.974 -0.3630 -1.0816 -0.9630
   32MOL   H76238024   0.944   6.307   5.026  0.2027  0.9237  0.9388
   32MOL   H76338025   0.889   6.456   5.099  0.9489  0.8442 -2.3187
   32MOL   H76438026   0.880   6.264   5.250  1.8976  0.9337 -0.6545
   32MOL   H76538027   0.719   6.340   5.243 -1.4973 -3.2694  0.5145
   32MOL   H76638028   0.612   5.960   5.129  0.2133  0.0537  0.8723
   32MOL   H76738029   0.740   5.842   5.089  0.8276 -0.2646 -1.0944
   32MOL   H76838030   0.765   5.989   4.875  0.5089 -0.5557 -0.0432
   32MOL   H76938031   0.612   6.060   4.913 -0.3559 -0.5047  0.3168
   32MOL   H77038032   0.484   5.889   4.898  0.3656  0.6394  0.5014
   32MOL   H77138033   0.610   5.767   4.903  1.0035  0.0787  0.9153
   32MOL   H77238034   0.523   5.788   4.671 -1.6710  0.6346  0.4148
   32MOL   H77338035   0.682   5.839   4.671  0.6005  1.1956  0.2016
   32MOL   H77438036   0.441   6.030   4.676  0.1542 -0.0566  1.0620
   32MOL   H77538037   0.597   6.084   4.705  1.3408 -0.7236 -0.9612
   32MOL   H77638038   0.548   6.102   4.447 -0.5562 -0.5690  0.8809
   32MOL   H77738039   0.690   6.011   4.489 -0.4188  1.1640 -3.1944
   32MOL   H77838040   0.422   5.897   4.458  1.1960  0.6667  1.8099
   32MOL   H77938041   0.582   5.817   4.422 -0.0350  0.5872  1.3394
   32MOL   H78038042   0.446   5.857   4.217  0.7670 -0.4006  1.0906
   32MOL   H78138043   0.437   6.028   4.259  0.2856  0.4150  2.6543
   32MOL   O78238044   0.589   5.990   4.046  0.5512 -0.1420 -0.3030
   32MOL   C78338045   0.679   6.033   3.947  0.2170 -0.0055  0.0472
   32MOL   C78438046   0.611   6.099   3.821  0.0792 -0.7627 -0.7092
   32MOL   C78538047   0.724   6.131   3.719  0.6363 -0.0563  0.1857
   32MOL   C78638048   0.673   6.206   3.597 -0.6586 -0.4997 -0.1913
   32MOL   C78738049   0.590   6.118   3.504  0.4637  0.4950  0.0213
   32MOL   C78838050   0.563   6.177   3.364  0.0128  0.2846 -0.3735
   32MOL   C78938051   0.491   6.080   3.275 -0.3524 -0.7216 -0.0317
   32MOL   C79038052   0.474   6.120   3.132  0.3277 -0.2944  0.7808
   32MOL   C79138053   0.390   6.024   3.039  0.3144  0.0607  0.5154
   32MOL   C79238054   0.364   6.063   2.894 -0.2682 -0.2993 -0.1362
   32MOL   O79338055   0.289   5.962   2.825  0.9669  0.3054 -0.4647
   32MOL   C79438056   0.154   5.958   2.835  0.5756  0.4243 -0.7890
   32MOL   O79538057   0.090   6.029   2.911 -0.3973 -0.5902  0.5045
   32MOL   C79638058   0.086   5.852   2.750 -0.7128  0.3832 -0.0419
   32MOL   C79738059   7.746   5.915   2.646 -0.5273  0.6959 -0.1347
   32MOL   C79838060   0.059   6.015   2.558  0.7706  0.0645 -0.3073
   32MOL   C79938061   7.744   6.043   2.425 -0.0075 -1.0114  0.0874
   32MOL   C80038062   0.083   6.112   2.326 -0.0649 -0.4124  0.5841
   32MOL   C80138063   0.087   6.268   2.334  0.4069  0.4273  0.2272
   32MOL   C80238064   0.189   6.330   2.236 -0.8661 -0.1628 -0.0988
   32MOL   C80338065   0.344   6.290   2.262 -0.0005  0.0880 -0.5173
   32MOL   C80438066   0.440   6.354   2.166 -0.3695  0.1899 -0.2552
   32MOL   O80538067   0.535   6.288   2.144 -0.1548  0.2982  0.1942
   32MOL   H80638068   0.750   6.093   4.005 -0.9208 -0.6953  2.2064
   32MOL   H80738069   0.723   5.939   3.914 -0.0493 -0.4865  1.0479
   32MOL   H80838070   0.541   6.025   3.782 -0.7266 -0.6807  0.5435
   32MOL   H80938071   0.548   6.183   3.850  0.3940 -0.1305 -1.7993
   32MOL   H81038072   0.789   6.206   3.765  0.0298 -0.1812  1.2677
   32MOL   H81138073   0.786   6.049   3.684  0.9106  0.6479 -1.0406
   32MOL   H81238074   0.623   6.302   3.616 -0.6322 -0.1450 -1.8871
   32MOL   H81338075   0.759   6.231   3.536 -2.4408  1.4490 -2.0138
   32MOL   H81438076   0.500   6.096   3.560  1.0802  1.9721  1.6293
   32MOL   H81538077   0.648   6.029   3.479 -0.0236  0.2388 -0.1981
   32MOL   H81638078   0.664   6.180   3.323 -1.1887  0.9399 -3.4093
   32MOL   H81738079   0.528   6.280   3.362 -1.9637 -0.3932 -2.5341
   32MOL   H81838080   0.390   6.079   3.315  0.2907 -0.3753  1.6432
   32MOL   H81938081   0.517   5.974   3.283 -1.3646 -0.8327  2.2491
   32MOL   H82038082   0.572   6.148   3.095  0.9498  1.4037  3.6478
   32MOL   H82138083   0.415   6.211   3.126 -2.5240 -2.2049 -2.0925
   32MOL   H82238084   0.427   5.922   3.044  0.1551  0.0445  1.3697
   32MOL   H82338085   0.293   6.021   3.088 -0.4028  1.7897 -0.7322
   32MOL   H82438086   0.313   6.156   2.869  1.9317  1.4247  1.6136
   32MOL   H82538087   0.462   6.064   2.847  0.4476 -0.5946  1.3131
   32MOL   H82638088   0.030   5.781   2.811  2.4277 -2.0296  0.1248
   32MOL   H82738089   0.162   5.792   2.701 -0.7606  2.4029 -2.7053
   32MOL   H82838090   7.655   5.933   2.703 -1.3133 -0.1148 -1.1160
   32MOL   H82938091   7.716   5.834   2.580  0.4025  1.8701 -2.0480
   32MOL   H83038092   0.165   5.992   2.556  0.9929  1.1297 -1.3825
   32MOL   H83138093   0.072   6.108   2.613 -2.2757  0.8698 -0.8415
   32MOL   H83238094   7.657   6.108   2.437 -0.3417 -1.6441  1.1410
   32MOL   H83338095   7.705   5.948   2.386  2.0382 -1.3274 -1.2691
   32MOL   H83438096   0.181   6.067   2.340  0.2266 -0.1526 -0.6329
   32MOL   H83538097   0.044   6.093   2.226  1.9428  3.4771 -1.0495
   32MOL   H83638098   7.744   6.301   2.302  0.0958 -0.3077  0.4236
   32MOL   H83738099   0.112   6.292   2.437  1.9917  0.9159 -0.2689
   32MOL   H83838100   0.173   6.438   2.236 -1.8642 -0.3095 -1.7695
   32MOL   H83938101   0.148   6.294   2.142 -0.0576  1.2927 -1.0166
   32MOL   H84038102   0.386   6.299   2.363 -0.6191  0.0713 -0.2598
   32MOL   H84138103   0.349   6.185   2.234  0.7751 -0.3138  1.0008
   32MOL   O84238104   0.418   6.481   2.130 -0.4882  0.0683  0.4051
   32MOL   C84338105   0.500   6.545   2.027 -0.6599 -0.7323  0.4796
   32MOL   C84438106   0.416   6.585   1.904  0.3577 -0.3423  0.4023
   32MOL   C84538107   0.365   6.463   1.830  0.4599 -0.1921  0.5500
   32MOL   C84638108   0.279   6.492   1.710 -0.3153  0.0674  0.3295
   32MOL   C84738109   0.257   6.386   1.603  0.3512 -0.9070  0.1958
   32MOL   C84838110   0.196   6.254   1.645 -1.0112 -0.6829  0.0729
   32MOL   C84938111   0.293   6.158   1.720  0.1007  0.2127  0.0036
   32MOL   C85038112   0.223   6.067   1.824 -0.2641 -0.5871 -0.5254
   32MOL   C85138113   0.319   6.027   1.932  0.0865  0.2535  0.1841
   32MOL   C85238114   0.246   5.957   2.043 -0.4091  0.2950 -0.5215
   32MOL   O85338115   0.188   5.837   1.991 -0.1290  0.2258 -1.0993
   32MOL   C85438116   0.055   5.829   1.969 -0.4593 -0.2603  0.3882
   32MOL   O85538117   7.723   5.904   2.009  0.4898 -0.1432 -0.1764
   32MOL   C85638118   0.025   5.706   1.885 -0.0848 -0.5507 -0.1295
   32MOL   C85738119   0.004   5.570   1.964  0.1774 -0.6044  0.4768
   32MOL   C85838120   7.631   5.565   2.040  0.0940  0.0398  0.0670
   32MOL   C85938121   7.593   5.437   2.106 -0.1729 -0.2998  0.4286
   32MOL   C86038122   7.608   5.302   2.027  0.0826  0.6773  0.2403
   32MOL   C86138123   7.512   5.293   1.905  0.1753 -0.3155 -0.6529
   32MOL   C86238124   7.476   5.158   1.846 -0.9291  0.4724  0.2698
   32MOL   C86338125   7.359   5.165   1.747  0.4983  0.0429 -0.6385
   32MOL   C86438126   7.308   5.022   1.701  0.0677 -0.1868 -0.0230
   32MOL   O86538127   7.340   4.921   1.770  0.0987 -0.3842  0.2675
   32MOL   H86638128   0.551   6.636   2.059 -2.0581  0.1719  0.2060
   32MOL   H86738129   0.565   6.470   1.982 -0.7509 -0.6305  0.1801
   32MOL   H86838130   0.339   6.660   1.925  0.4846 -0.1129  0.0534
   32MOL   H86938131   0.482   6.634   1.833 -0.3239 -2.9306 -2.1154
   32MOL   H87038132   0.444   6.412   1.776  0.1722  1.5248 -1.5459
   32MOL   H87138133   0.319   6.392   1.900  0.2454  0.6124  1.2355
   32MOL   H87238134   0.182   6.513   1.756  0.2277 -0.3695  1.7060
   32MOL   H87338135   0.318   6.583   1.665  2.0423 -0.4392  1.2587
   32MOL   H87438136   0.354   6.360   1.560  0.0847 -0.2730 -0.7998
   32MOL   H87538137   0.192   6.427   1.526  1.6640 -1.0283 -1.0044
   32MOL   H87638138   0.165   6.208   1.551 -0.8311 -0.6479 -0.0047
   32MOL   H87738139   0.105   6.275   1.700 -0.4598  0.2230  0.6513
   32MOL   H87838140   0.382   6.204   1.763 -0.2543  0.0764  0.9090
   32MOL   H87938141   0.349   6.102   1.645  1.0062 -0.7299  1.3675
   32MOL   H88038142   0.183   5.981   1.769  1.2759 -0.9289 -1.1613
   32MOL   H88138143   0.142   6.128   1.862 -0.1638  0.5564 -2.1066
   32MOL   H88238144   0.398   5.960   1.897 -1.8616 -1.5432 -0.8839
   32MOL   H88338145   0.371   6.116   1.968  0.3222  0.2199 -0.0761
   32MOL   H88438146   0.302   5.937   2.134 -0.1543 -1.7180 -1.0842
   32MOL   H88538147   0.163   6.019   2.079  2.0086  1.5090  3.3397
   32MOL   H88638148   0.112   5.693   1.822 -0.1427 -0.8663 -0.1440
   32MOL   H88738149   7.692   5.718   1.824 -0.1886  0.7505  0.2710
   32MOL   H88838150   0.082   5.550   2.038 -0.4013 -1.5588  0.8397
   32MOL   H88938151   0.005   5.485   1.895 -2.0303  0.2718 -0.6928
   32MOL   H89038152   7.563   5.591   1.959 -0.1039  1.2996  0.6394
   32MOL   H89138153   7.624   5.643   2.116 -0.1657 -1.1972  1.3360
   32MOL   H89238154   7.491   5.449   2.140 -0.6035 -0.1889 -0.8585
   32MOL   H89338155   7.656   5.418   2.193 -2.6670 -0.5101  2.2387
   32MOL   H89438156   7.710   5.288   1.991  0.4237  1.0186  1.0626
   32MOL   H89538157   7.578   5.227   2.100 -1.3546  1.7290  0.7590
   32MOL   H89638158   7.416   5.338   1.929 -0.3133 -1.6558 -0.0423
   32MOL   H89738159   7.560   5.345   1.822  0.8155 -1.7521 -1.1889
   32MOL   H89838160   7.440   5.105   1.934 -1.6984 -0.0185 -0.3364
   32MOL   H89938161   7.561   5.113   1.794 -1.8446 -2.6343  1.3520
   32MOL   H90038162   7.275   5.209   1.801 -0.5678 -2.5946 -0.0617
   32MOL   H90138163   7.391   5.221   1.659  1.2226  2.2121  0.9534
   32MOL   O90238164   7.239   5.022   1.589 -0.1657  0.0437  0.0353
   32MOL   C90338165   7.184   4.903   1.530  0.4877 -0.4139 -0.2069
   32MOL   C90438166   7.055   4.948   1.466  0.3667  0.0784 -0.0668
   32MOL   C90538167   7.005   4.846   1.364  0.3127  0.3176 -0.6033
   32MOL   C90638168   6.887   4.888   1.279 -0.2902 -0.7264  0.1767
   32MOL   C90738169   6.760   4.917   1.364 -0.3450 -0.6687 -0.3830
   32MOL   C90838170   6.629   4.910   1.271 -0.4465  0.0233 -0.0930
   32MOL   C90938171   6.496   4.930   1.337 -0.1885 -1.1183  0.2366
   32MOL   C91038172   6.378   4.943   1.236  0.4772  0.6000 -0.0728
   32MOL   C91138173   6.335   4.815   1.161  0.1547 -0.7655  0.1237
   32MOL   C91238174   6.190   4.819   1.104  0.0540  0.5051 -0.4071
   32MOL   O91338175   6.104   4.823   1.216 -0.1583  0.5987 -0.1896
   32MOL   C91438176   5.973   4.783   1.201  0.3495  0.0083 -0.9329
   32MOL   O91538177   5.921   4.761   1.094 -0.5716  0.3720  0.0369
   32MOL   C91638178   5.899   4.787   1.332  0.3432  0.1377  0.1706
   32MOL   C91738179   5.925   4.916   1.417 -0.6095 -0.5024 -0.2106
   32MOL   C91838180   6.054   4.909   1.503  0.0672  0.1832  0.0218
   32MOL   C91938181   6.046   5.001   1.623 -1.0007  0.1335  0.1627
   32MOL   C92038182   6.175   4.980   1.704  0.2541  0.2858  0.0429
   32MOL   C92138183   6.215   5.087   1.806  0.0889  0.1251 -0.6317
   32MOL   C92238184   6.099   5.094   1.915 -0.4158 -0.3512 -0.0693
   32MOL   C92338185   6.157   5.156   2.044 -0.1878  0.2814  0.1127
   32MOL   C92438186   6.240   5.287   2.029 -0.4620 -0.5530  0.1541
   32MOL   O92538187   6.331   5.302   2.106 -0.7020 -0.0790 -0.0721
   32MOL   H92638188   7.255   4.867   1.456  1.6471 -1.9847  1.6364
   32MOL   H92738189   7.177   4.830   1.610 -2.4407 -0.4350 -0.4096
   32MOL   H92838190   6.979   4.953   1.544 -0.1311 -0.2644 -0.5232
   32MOL   H92938191   7.068   5.046   1.420  2.6442  0.2855  0.9876
   32MOL   H93038192   7.080   4.813   1.291 -1.9692 -2.6959 -1.6870
   32MOL   H93138193   6.976   4.748   1.402 -1.1266  0.3980 -1.4919
   32MOL   H93238194   6.906   4.973   1.214 -0.0822 -1.6796 -1.0431
   32MOL   H93338195   6.869   4.805   1.211  0.3102 -0.6043 -0.1332
   32MOL   H93438196   6.768   5.017   1.407 -2.2945 -0.8723  0.4939
   32MOL   H93538197   6.755   4.853   1.451  0.0986 -0.7041 -0.3835
   32MOL   H93638198   6.635   4.823   1.206  0.3173  0.6237 -0.8500
   32MOL   H93738199   6.637   4.990   1.197 -1.2631  0.0615 -0.1427
   32MOL   H93838200   6.497   5.025   1.391 -0.8401 -0.2740 -1.1910
   32MOL   H93938201   6.482   4.851   1.412  1.9973 -2.6294 -0.9056
   32MOL   H94038202   6.395   5.024   1.165  0.7373  0.4676 -0.1625
   32MOL   H94138203   6.284   4.971   1.283  0.4669  2.1453 -0.9879
   32MOL   H94238204   6.405   4.810   1.078 -0.1379 -3.4100 -0.0177
   32MOL   H94338205   6.352   4.729   1.227 -1.2099 -1.2206 -0.1083
   32MOL   H94438206   6.166   4.902   1.037  1.2129  1.2386  0.0737
   32MOL   H94538207   6.175   4.734   1.038 -0.8058  0.8744 -0.6910
   32MOL   H94638208   5.898   4.691   1.383  0.8565 -0.0985 -0.2574
   32MOL   H94738209   5.793   4.792   1.307  0.2417 -0.3693  0.4995
   32MOL   H94838210   5.844   4.932   1.488 -0.8950 -0.6247 -0.5119
   32MOL   H94938211   5.928   5.005   1.353  1.3147 -0.5585 -0.2531
   32MOL   H95038212   6.145   4.929   1.447  0.3476 -0.5991  0.1888
   32MOL   H95138213   6.062   4.811   1.548 -0.4296  0.3632  0.5107
   32MOL   H95238214   5.957   4.989   1.685 -1.7421  0.0772 -0.9091
   32MOL   H95338215   6.043   5.108   1.603 -1.6168 -0.5185 -3.5198
   32MOL   H95438216   6.180   4.876   1.735  1.6900 -0.1760 -1.6560
   32MOL   H95538217   6.258   4.996   1.635  0.6408 -4.0120 -0.6195
   32MOL   H95638218   6.300   5.035   1.850  1.3037  1.5188 -1.2673
   32MOL   H95738219   6.251   5.174   1.751 -2.1754  0.9767 -0.8143
   32MOL   H95838220   6.073   4.989   1.931  0.9720 -0.8673 -1.0714
   32MOL   H95938221   6.008   5.147   1.888 -0.3714  1.1017  2.5103
   32MOL   H96038222   6.067   5.184   2.099 -1.5054 -0.6713 -1.4878
   32MOL   H96138223   6.208   5.081   2.103 -1.5315 -0.3321  0.5220
   32MOL   O96238224   6.195   5.371   1.950  0.2095  0.7399  0.1105
   32MOL   C96338225   6.266   5.494   1.926 -0.6755  0.2319  0.5298
   32MOL   C96438226   6.205   5.547   1.786 -0.8311  0.6083  0.7726
   32MOL   C96538227   6.056   5.593   1.795 -0.3540 -0.4902  0.3508
   32MOL   C96638228   5.991   5.608   1.660 -0.2553  0.4703 -0.7134
   32MOL   C96738229   5.847   5.663   1.667  0.3655 -0.3874 -0.2460
   32MOL   C96838230   5.782   5.660   1.520 -0.8049 -0.5495  0.8397
   32MOL   C96938231   5.655   5.750   1.527  0.4440  0.1543  0.5363
   32MOL   C97038232   5.579   5.774   1.391  0.5315 -0.3471  0.4893
   32MOL   C97138233   5.451   5.863   1.404  0.0266 -0.2902  0.0472
   32MOL   C97238234   5.394   5.921   1.279  0.3120 -0.6824 -0.3914
   32MOL   O97338235   5.278   5.997   1.313  0.8532 -0.1324  0.2431
   32MOL   C97438236   5.171   5.996   1.232  0.2443 -0.0841  1.0772
   32MOL   O97538237   5.168   5.920   1.132  0.1968 -0.4676  0.0839
   32MOL   C97638238   5.045   6.080   1.270  0.1061 -0.6112  0.0355
   32MOL   C97738239   5.036   6.228   1.221 -0.5558  0.0639 -0.1456
   32MOL   C97838240   5.122   6.328   1.304  0.2046  0.3935 -0.3295
   32MOL   C97938241   5.280   6.326   1.276  0.1829 -0.2855  0.1321
   32MOL   C98038242   5.351   6.446   1.346  0.9693  0.2603  0.3811
   32MOL   C98138243   5.355   6.438   1.503  0.1303 -0.1600 -0.4270
   32MOL   C98238244   5.432   6.565   1.567  0.3797 -0.0107  0.0703
   32MOL   C98338245   5.463   6.544   1.714  0.5305 -0.5025  0.1002
   32MOL   C98438246   5.508   6.668   1.781  0.1438 -0.0754  0.0599
   32MOL   O98538247   5.619   6.682   1.835  0.4697 -0.5201 -0.0177
   32MOL   H98638248   6.251   5.573   1.999 -0.2720  1.1643 -0.3890
   32MOL   H98738249   6.371   5.468   1.915 -0.4664  0.7822  1.2118
   32MOL   H98838250   6.262   5.636   1.758 -3.0818  2.5559  2.2018
   32MOL   H98938251   6.221   5.476   1.705 -0.4921 -0.2620  1.5936
   32MOL   H99038252   6.000   5.523   1.858  0.0568 -1.7513 -0.6771
   32MOL   H99138253   6.054   5.693   1.838 -3.2549 -0.7119  0.8263
   32MOL   H99238254   6.055   5.680   1.609  2.5234 -0.8480  0.8239
   32MOL   H99338255   5.988   5.518   1.598 -0.8139 -0.1582  0.2097
   32MOL   H99438256   5.860   5.767   1.698  0.9004 -0.5078 -0.0730
   32MOL   H99538257   5.789   5.618   1.747  3.0145 -1.9156  0.8399
   32MOL   H99638258   5.767   5.555   1.493 -0.4571 -0.5366  0.5797
   32MOL   H99738259   5.843   5.712   1.446 -1.5468 -0.1848  0.4776
   32MOL   H99838260   5.682   5.843   1.575 -2.8750  1.2657  0.4056
   32MOL   H99938261   5.583   5.696   1.589 -1.1467  0.0639 -1.3016
   32MOL     H138262   5.529   5.680   1.369 -3.0275  1.4970  0.3020
   32MOL     H238263   5.641   5.794   1.303  1.3990 -0.2768  1.1126
   32MOL     H338264   5.375   5.808   1.460 -0.5293 -0.9248 -1.2995
   32MOL     H438265   5.473   5.945   1.473 -0.2387 -1.6952  1.8415
   32MOL     H538266   5.459   6.003   1.249 -0.8213  0.8303  1.2138
   32MOL     H638267   5.394   5.849   1.197 -0.4745  0.2249 -1.1905
   32MOL     H738268   5.047   6.097   1.378 -1.8094 -0.0787  0.0021
   32MOL     H838269   4.951   6.028   1.253 -0.2142  0.1613 -0.5648
   32MOL     H938270   4.932   6.259   1.230 -0.3951  0.6889 -0.4112
   32MOL    H1038271   5.067   6.237   1.117 -1.7677 -0.4203 -0.5574
   32MOL    H1138272   5.100   6.307   1.408 -0.1519  1.2696 -0.2293
   32MOL    H1238273   5.084   6.429   1.290  1.3015  0.8865  0.1485
   32MOL    H1338274   5.299   6.334   1.169 -0.0852  1.3531  0.1949
   32MOL    H1438275   5.330   6.234   1.304 -0.3889 -0.7000 -0.1998
   32MOL    H1538276   5.451   6.448   1.301  0.2203 -0.5424 -1.3811
   32MOL    H1638277   5.314   6.540   1.306 -1.5998 -1.6009 -1.8002
   32MOL    H1738278   5.252   6.437   1.539  0.0297  2.8883 -0.5417
   32MOL    H1838279   5.399   6.342   1.531  2.1824  0.7735 -0.3427
   32MOL    H1938280   5.374   6.657   1.560  0.5017 -0.0433 -1.7008
   32MOL    H2038281   5.516   6.594   1.503  0.4371  1.2828  0.7152
   32MOL    H2138282   5.374   6.513   1.769 -0.1154  1.2162  0.0347
   32MOL    H2238283   5.537   6.466   1.733  2.0894  0.3499 -2.1889
   32MOL    O2338284   5.405   6.767   1.788  0.1014  0.1094  0.2092
   32MOL    C2438285   5.428   6.892   1.853 -0.4326 -0.0776 -1.0103
   32MOL    C2538286   5.300   6.975   1.870 -0.4164 -0.5750 -0.4839
   32MOL    C2638287   5.325   7.115   1.906  0.3919 -0.5498 -0.7891
   32MOL    C2738288   5.191   7.187   1.926  0.2507  0.1403  0.1446
   32MOL    C2838289   5.209   7.316   2.005  0.1118  0.6569 -0.1576
   32MOL    C2938290   5.079   7.395   2.015 -0.0776 -0.4113  0.1398
   32MOL    C3038291   5.052   7.475   1.882  0.9907  0.5081 -0.4399
   32MOL    C3138292   4.916   7.529   1.880  0.0954 -0.3316 -0.2876
   32MOL    C3238293   4.894   7.577   1.733 -0.4303 -0.3882  0.1271
   32MOL    C3338294   4.768   7.650   1.715 -0.6152 -0.2519 -0.1068
   32MOL    O3438295   4.757   7.718   1.589  0.3108  0.1797 -0.1657
   32MOL    C3538296   4.677   7.675   1.497 -0.4183  0.4879 -0.1158
   32MOL    O3638297   4.616   7.567   1.496 -0.6845 -0.3628 -0.3139
   32MOL    C3738298   4.667   0.014   1.380 -0.4295  0.4573 -0.4234
   32MOL    C3838299   4.614   0.159   1.424  0.1466 -0.4247 -0.0648
   32MOL    C3938300   4.467   0.166   1.482 -0.1370  0.1610  0.0248
   32MOL    C4038301   4.439   0.300   1.549  0.6198  0.1447  0.0279
   32MOL    C4138302   4.288   0.321   1.581 -0.2009  0.4296 -0.4405
   32MOL    C4238303   4.268   0.449   1.663 -0.0193 -0.4060 -0.2561
   32MOL    C4338304   4.119   0.468   1.718 -0.0868 -0.1704 -0.2572
   32MOL    C4438305   4.099   0.587   1.814  0.0683 -0.0114 -0.6166
   32MOL    C4538306   4.189   0.592   1.936  0.1567  0.5376  0.5855
   32MOL    O4638307   4.272   0.678   1.959 -0.1991  0.2045 -0.0684
   32MOL    H4738308   5.475   6.868   1.949  0.0945  1.3325 -0.9012
   32MOL    H4838309   5.501   6.948   1.794  0.7239 -0.7639 -0.2657
   32MOL    H4938310   5.254   6.980   1.771  0.8867  0.9491 -1.0226
   32MOL    H5038311   5.233   6.946   1.951  0.5429  1.1719  0.9655
   32MOL    H5138312   5.377   7.117   2.002  0.7646 -1.3150 -0.9784
   32MOL    H5238313   5.384   7.168   1.832  1.8489  2.6180  2.4725
   32MOL    H5338314   5.147   7.207   1.829 -0.1097 -0.9150  0.0773
   32MOL    H5438315   5.117   7.126   1.978  0.9080  0.7185  1.7919
   32MOL    H5538316   5.279   7.374   1.944 -0.0360  0.3165 -0.6455
   32MOL    H5638317   5.272   7.296   2.092 -0.4995  1.2437  0.4285
   32MOL    H5738318   5.094   7.466   2.097  2.3263  0.8783 -1.3324
   32MOL    H5838319   4.993   7.333   2.036  0.4042 -1.0804  0.1386
   32MOL    H5938320   5.072   7.399   1.807 -1.9471 -1.4416  0.6864
   32MOL    H6038321   5.117   7.561   1.864  2.4231 -0.5627 -0.5604
   32MOL    H6138322   4.895   7.610   1.951 -0.6041 -1.5088  0.8683
   32MOL    H6238323   4.847   7.449   1.904  0.2957 -0.9959 -1.9091
   32MOL    H6338324   4.981   7.640   1.715 -1.6066  1.2371 -0.0122
   32MOL    H6438325   4.891   7.491   1.666 -1.3362 -2.2471  2.5017
   32MOL    H6538326   4.684   7.581   1.719  0.3515 -1.4454 -0.0754
   32MOL    H6638327   4.768   7.717   1.802  1.7063 -1.1032  0.5849
   32MOL    H6738328   4.608   7.737   1.294 -1.7962  1.1809  0.2060
   32MOL    H6838329   4.768   0.021   1.341 -0.1877  1.2529  0.3248
   32MOL    H6938330   4.637   0.235   1.349  1.5740 -0.8578 -0.0672
   32MOL    H7038331   4.688   0.188   1.497 -0.4404 -1.6318  1.0325
   32MOL    H7138332   4.460   0.085   1.554 -1.1667  0.5769  0.3959
   32MOL    H7238333   4.399   0.138   1.402  2.3563 -1.7116 -1.5528
   32MOL    H7338334   4.475   0.371   1.474 -0.3703  0.0090 -0.5856
   32MOL    H7438335   4.495   0.318   1.641 -0.0668 -0.3103  0.5410
   32MOL    H7538336   4.225   0.317   1.492 -1.5013 -3.3615  0.5708
   32MOL    H7638337   4.244   0.240   1.638 -0.0385 -0.7404 -1.9597
   32MOL    H7738338   4.323   0.437   1.757  0.6795 -4.3225 -1.0517
   32MOL    H7838339   4.296   0.532   1.599 -2.4574 -0.0509 -0.9141
   32MOL    H7938340   4.071   0.382   1.765 -1.3367 -0.0546 -1.2887
   32MOL    H8038341   4.065   0.483   1.625  0.4258 -0.0260 -0.5311
   32MOL    H8138342   4.124   0.679   1.762 -1.6353  0.8673  0.0621
   32MOL    H8238343   3.996   0.608   1.845  0.2873  0.2818 -0.0942
   32MOL    O8338344   4.166   0.487   2.018 -0.3124  0.1130  0.0550
   32MOL    C8438345   4.236   0.471   2.136 -0.0166  0.3364  0.0485
   32MOL    C8538346   4.255   0.322   2.172 -0.2780  0.4185 -0.6237
   32MOL    C8638347   4.337   0.243   2.068 -0.3610  0.0527 -0.2258
   32MOL    C8738348   4.373   0.106   2.122 -0.1812 -0.2035 -0.7298
   32MOL    C8838349   4.486   0.035   2.061  0.6459 -0.3378  0.2050
   32MOL    C8938350   4.536   7.659   2.120  0.0364 -0.4689  0.7899
   32MOL    C9038351   4.450   7.543   2.057 -0.0121  0.8686  0.1488
   32MOL    C9138352   4.490   7.404   2.117  0.3391 -0.7980  0.0848
   32MOL    C9238353   4.408   7.296   2.052 -0.2443 -0.8152  0.7441
   32MOL    C9338354   4.456   7.159   2.090  0.0489  0.6675 -0.2361
   32MOL    O9438355   4.372   7.052   2.048  0.5277  0.0511 -0.4872
   32MOL    C9538356   4.261   7.029   2.113 -0.2266  0.1195 -0.3678
   32MOL    O9638357   4.217   7.091   2.216 -0.4004 -0.1038 -0.6120
   32MOL    C9738358   4.202   6.901   2.066 -0.5098 -0.3212 -0.1143
   32MOL    C9838359   4.109   6.825   2.157 -0.1081  0.3355  0.3831
   32MOL    C9938360   4.106   6.666   2.151  0.3035  0.0742 -0.2236
   32MOL   C10038361   3.987   6.612   2.240  0.2136 -0.3866  0.0508
   32MOL   C10138362   3.973   6.462   2.219  0.3428  0.2368 -0.1388
   32MOL   C10238363   3.858   6.391   2.294 -0.1679  0.2155 -0.8318
   32MOL   C10338364   3.865   6.240   2.262  0.1530  0.8985 -0.4227
   32MOL   C10438365   3.756   6.158   2.338 -0.0758  0.5785  0.7218
   32MOL   C10538366   3.772   6.157   2.484 -0.3339  1.3588 -0.0761
   32MOL   O10638367   3.678   6.169   2.557 -0.6398 -0.4319 -0.0073
   32MOL   H10738368   4.322   0.536   2.151 -0.5151  1.1161 -0.4305
   32MOL   H10838369   4.162   0.497   2.212  0.7329  0.6411  0.6773
   32MOL   H10938370   4.307   0.313   2.267  0.7092  3.1069 -0.8706
   32MOL   H11038371   4.164   0.263   2.183 -0.7575  1.0095 -1.3960
   32MOL   H11138372   4.281   0.242   1.975  0.5452  0.7828 -0.7943
   32MOL   H11238373   4.427   0.304   2.055  1.6280 -2.9644 -1.2194
   32MOL   H11338374   4.405   0.114   2.225 -2.7667  0.2518  0.0769
   32MOL   H11438375   4.291   0.034   2.120 -0.1617 -0.2515  0.0638
   32MOL   H11538376   4.566   0.106   2.077 -0.1510  0.7754 -0.6960
   32MOL   H11638377   4.480   0.036   1.952 -0.7710 -1.0967  0.2660
   32MOL   H11738378   4.519   7.646   2.227 -1.0167 -0.3183  0.6421
   32MOL   H11838379   4.644   7.653   2.110 -0.1574 -0.2993 -1.6656
   32MOL   H11938380   4.451   7.549   1.948 -2.0852 -0.8221  0.0173
   32MOL   H12038381   4.343   7.557   2.072  0.0030 -0.4714  1.6122
   32MOL   H12138382   4.474   7.389   2.223 -0.5021 -2.0322 -0.1966
   32MOL   H12238383   4.596   7.392   2.097  0.8013  0.4070  1.7864
   32MOL   H12338384   4.300   7.306   2.066 -0.3684 -0.3050 -0.4632
   32MOL   H12438385   4.428   7.299   1.945  1.6151 -0.4970  1.0945
   32MOL   H12538386   4.552   7.134   2.044  0.8795  0.4816  1.5539
   32MOL   H12638387   4.475   7.154   2.197  0.2586 -1.3951 -0.3332
   32MOL   H12738388   4.288   6.836   2.048  1.1178  2.0117 -1.0351
   32MOL   H12838389   4.148   6.926   1.975 -0.8749 -3.5398 -0.8406
   32MOL   H12938390   4.008   6.867   2.156 -0.1348  0.2906  1.0895
   32MOL   H13038391   4.146   6.847   2.257  0.3460 -2.5550  0.8997
   32MOL   H13138392   4.199   6.626   2.191 -0.0262 -0.0449  0.4405
   32MOL   H13238393   4.079   6.645   2.048  2.3885  1.7822 -1.1572
   32MOL   H13338394   3.891   6.660   2.219 -0.3283 -1.0029  1.0649
   32MOL   H13438395   4.011   6.628   2.345  1.8669  0.1230 -0.3927
   32MOL   H13538396   3.952   6.455   2.112 -2.8042  0.2824  0.4339
   32MOL   H13638397   4.069   6.419   2.250  0.9385  0.5896 -1.4548
   32MOL   H13738398   3.878   6.411   2.399 -0.2775  2.6350 -1.2314
   32MOL   H13838399   3.764   6.439   2.266 -1.0088 -0.1214  1.3249
   32MOL   H13938400   3.964   6.204   2.289  0.1009  2.1483  1.6138
   32MOL   H14038401   3.861   6.221   2.155  1.7855  0.2536 -0.3812
   32MOL   H14138402   3.664   6.209   2.311 -0.9771 -1.0891  0.6294
   32MOL   H14238403   3.761   6.056   2.301 -1.2785 -0.0202  2.1877
   32MOL   O14338404   3.897   6.140   2.525  0.2445  0.2610  0.0064
   32MOL   C14438405   3.926   6.126   2.664 -0.2425 -0.2411  0.1882
   32MOL   C14538406   4.078   6.128   2.683 -0.2251  0.6316 -0.5446
   32MOL   C14638407   4.135   6.266   2.704 -0.4094  0.0821  0.5966
   32MOL   C14738408   4.137   6.344   2.573 -1.0515  0.0853  0.6599
   32MOL   C14838409   4.195   6.484   2.589  0.6409 -0.9737 -0.3185
   32MOL   C14938410   4.337   6.498   2.532 -0.2361 -0.7176 -0.2400
   32MOL   C15038411   4.414   6.627   2.572 -0.3137  0.3500 -0.3118
   32MOL   C15138412   4.350   6.746   2.513  0.9325  0.1631  0.3106
   32MOL   C15238413   4.433   6.869   2.561 -0.0351  0.1863  0.9565
   32MOL   C15338414   4.381   7.003   2.503 -0.1656  0.3066 -0.4705
   32MOL   O15438415   4.452   7.109   2.567 -0.2301 -0.4134 -0.2813
   32MOL   C15538416   4.405   7.139   2.688 -0.0259 -0.5148  0.0919
   32MOL   O15638417   4.303   7.100   2.738  0.0916  0.3502 -0.5165
   32MOL   C15738418   4.493   7.239   2.760 -0.6709 -0.8073 -0.2934
   32MOL   C15838419   4.631   7.183   2.796 -0.3244  0.2470 -0.1292
   32MOL   C15938420   4.745   7.269   2.745  0.1519 -0.2140 -0.1078
   32MOL   C16038421   4.872   7.229   2.808  0.3370 -0.3168  0.1244
   32MOL   C16138422   4.985   7.326   2.781  0.4127 -1.3253  0.5096
   32MOL   C16238423   5.123   7.289   2.849 -0.2055  0.4708  0.7722
   32MOL   C16338424   5.121   7.307   3.003 -0.1424 -0.4490 -0.0509
   32MOL   C16438425   5.250   7.356   3.069  0.4174 -0.4146  0.4234
   32MOL   C16538426   5.294   7.496   3.052 -0.0580  0.0913 -0.2300
   32MOL   O16638427   5.216   7.590   3.078 -1.0978 -0.4430 -0.1472
   32MOL   H16738428   3.877   6.208   2.718  2.2345  1.0946  0.5088
   32MOL   H16838429   3.885   6.030   2.694 -2.5791  0.6231 -0.1319
   32MOL   H16938430   4.106   6.055   2.760  0.4523 -0.5467 -1.8852
   32MOL   H17038431   4.129   6.075   2.603  0.6745  0.8443 -0.1170
   32MOL   H17138432   4.078   6.323   2.778 -1.6712 -2.2402  1.4679
   32MOL   H17238433   4.235   6.251   2.744 -0.3826 -0.1010  0.4564
   32MOL   H17338434   4.186   6.285   2.495  0.0543  0.8594  0.7540
   32MOL   H17438435   4.037   6.353   2.531 -1.2124 -0.6176  0.8866
   32MOL   H17538436   4.188   6.517   2.692  1.9034 -1.3074 -0.1148
   32MOL   H17638437   4.138   6.549   2.522 -1.5020  0.3591  2.6976
   32MOL   H17738438   4.338   6.493   2.423 -0.2552 -1.4603 -0.2127
   32MOL   H17838439   4.398   6.415   2.569  0.7672  0.7408  1.4979
   32MOL   H17938440   4.523   6.623   2.561 -0.2241 -1.1240  0.8983
   32MOL   H18038441   4.400   6.633   2.680 -3.2532  0.8326 -0.6759
   32MOL   H18138442   4.249   6.753   2.553  0.4653  0.7874 -0.9487
   32MOL   H18238443   4.350   6.749   2.404 -1.4494  1.4772  0.3130
   32MOL   H18338444   4.419   6.871   2.669  2.3588 -1.5236  1.3539
   32MOL   H18438445   4.537   6.855   2.532 -0.5514  1.2306 -1.5640
   32MOL   H18538446   4.404   6.998   2.396 -1.5224  2.3679 -0.8935
   32MOL   H18638447   4.275   7.012   2.525  0.0677  0.0518  0.7988
   32MOL   H18738448   4.442   7.254   2.855 -0.3819 -0.8713 -0.1292
   32MOL   H18838449   4.492   7.336   2.710  1.3701  0.2558  1.6445
   32MOL   H18938450   4.641   7.076   2.775 -0.0604 -0.0218  1.2917
   32MOL   H19038451   4.635   7.185   2.905 -0.1244  1.6978 -0.1502
   32MOL   H19138452   4.732   7.377   2.759  2.6642  0.1701 -0.6244
   32MOL   H19238453   4.737   7.246   2.638  0.5446  0.8325 -0.3686
   32MOL   H19338454   4.900   7.124   2.801 -0.8229 -0.6404  0.2923
   32MOL   H19438455   4.859   7.227   2.916  1.3788 -1.6656  0.2400
   32MOL   H19538456   4.986   7.324   2.672 -1.1426 -0.6579  0.4840
   32MOL   H19638457   4.958   7.429   2.806  1.9608 -1.0799  1.2231
   32MOL   H19738458   5.157   7.193   2.810 -2.7545 -1.2786  2.6942
   32MOL   H19838459   5.187   7.364   2.802  1.0530 -0.1269  1.5040
   32MOL   H19938460   5.093   7.211   3.046  0.7740  0.0938  1.8148
   32MOL   H20038461   5.035   7.362   3.043  3.3819  4.8295  0.7232
   32MOL   H20138462   5.242   7.336   3.176 -2.0414 -0.9679  0.1849
   32MOL   H20238463   5.329   7.300   3.021  0.8117  0.2347  0.3084
   32MOL   H20338464   5.394   7.518   3.015 -0.4635 -0.4770 -1.7167
   33MOL     O138465   2.339   6.494   0.561  0.8108  0.7792  0.1537
   33MOL     C238466   2.379   6.632   0.558  0.0856  0.9595  0.7398
   33MOL     C338467   2.305   6.704   0.444  1.0080  0.1999 -0.0532
   33MOL     C438468   2.368   6.836   0.419 -0.3059  0.5225 -0.0429
   33MOL     C538469   2.287   6.923   0.320 -0.8666  0.5413  0.4676
   33MOL     C638470   2.362   7.041   0.261 -0.6050 -0.1311  0.2807
   33MOL     C738471   2.278   7.106   0.150 -0.2335  0.1670  0.2919
   33MOL     C838472   2.151   7.191   0.188  0.2458 -0.1095  0.1386
   33MOL     C938473   2.047   7.206   0.078 -0.0814 -0.4074  0.1731
   33MOL    C1038474   2.093   7.265   7.695  0.0283  0.0065  0.8632
   33MOL    C1138475   2.143   7.401   7.710  0.0880 -0.2516 -0.3203
   33MOL    O1238476   2.095   7.484   7.602 -0.1105  0.1755  0.4500
   33MOL    C1338477   2.159   7.602   7.565  0.1587 -0.0969  0.7913
   33MOL    O1438478   2.268   7.640   7.611  0.1499  0.2084 -0.1655
   33MOL    C1538479   2.092   7.689   7.455  0.3346 -0.0379  0.5146
   33MOL    C1638480   2.100   7.600   7.320 -0.0776 -0.1228  0.4200
   33MOL    C1738481   1.953   7.577   7.257 -0.9651 -0.7755 -0.0477
   33MOL    C1838482   1.949   7.491   7.132  0.9932  0.0970 -0.1829
   33MOL    C1938483   1.803   7.464   7.078 -0.2012 -0.0577 -0.6555
   33MOL    C2038484   1.803   7.381   6.948  0.2498  0.0945  0.5514
   33MOL    C2138485   1.665   7.340   6.902  0.5415  0.7023  0.1536
   33MOL    C2238486   1.610   7.455   6.820  0.0584  0.6259  0.5550
   33MOL    C2338487   1.465   7.433   6.786  0.3811  0.3479  0.1875
   33MOL    O2438488   1.380   7.510   6.818 -0.3568  0.7884  0.0734
   33MOL    H2538489   2.343   6.670   0.654 -3.6007  1.1689 -0.6549
   33MOL    H2638490   2.487   6.647   0.557  0.0938  1.0525  1.7333
   33MOL    H2738491   2.304   6.647   0.351  0.1520  0.1716 -0.0383
   33MOL    H2838492   2.198   6.713   0.467  1.0423 -0.6268  0.4602
   33MOL    H2938493   2.392   6.893   0.509 -1.1215  0.0421  0.4855
   33MOL    H3038494   2.462   6.803   0.373 -1.5693 -1.5886 -1.1866
   33MOL    H3138495   2.270   6.857   0.235  0.9756 -0.3035  0.7225
   33MOL    H3238496   2.188   6.948   0.357 -0.7160  0.3429  1.0189
   33MOL    H3338497   2.460   7.009   0.226 -0.7210 -0.3528  0.1528
   33MOL    H3438498   2.377   7.110   0.344  2.0376 -0.0190 -0.2556
   33MOL    H3538499   2.256   7.017   0.090  1.0587 -0.2946  0.4927
   33MOL    H3638500   2.331   7.169   0.080  0.4773 -0.7967 -0.0495
   33MOL    H3738501   2.183   7.289   0.225 -2.7283  1.0889 -0.3583
   33MOL    H3838502   2.098   7.157   0.276 -1.2620 -1.6317 -1.3161
   33MOL    H3938503   1.962   7.259   0.120 -0.5842 -1.5375  0.5939
   33MOL    H4038504   2.015   7.103   0.065  0.6272 -0.5729 -0.3071
   33MOL    H4138505   2.174   7.205   7.653 -0.7256 -1.1433  1.0247
   33MOL    H4238506   2.004   7.265   7.633  1.3886  2.6544 -1.2210
   33MOL    H4338507   2.101   7.446   0.044  0.6277 -1.3314  0.4776
   33MOL    H4438508   2.252   7.412   7.716  0.2432 -2.1737  0.7071
   33MOL    H4538509   2.127   0.035   7.447  0.6077 -0.2174 -0.7308
   33MOL    H4638510   1.986   7.689   7.476  0.3705 -0.9972  0.7356
   33MOL    H4738511   2.147   7.503   7.338  0.9795  0.1168 -0.9508
   33MOL    H4838512   2.157   7.655   7.245 -1.1293  1.3442  0.6819
   33MOL    H4938513   1.901   7.672   7.243  0.6801  0.4164  1.6679
   33MOL    H5038514   1.902   7.512   7.328 -1.4898  0.3794  0.6519
   33MOL    H5138515   1.995   7.394   7.150 -0.1729 -0.4288  0.0125
   33MOL    H5238516   2.008   7.548   7.060 -1.0396  0.6068 -1.4781
   33MOL    H5338517   1.748   7.397   7.144  2.3102 -2.4657 -0.9056
   33MOL    H5438518   1.745   7.556   7.073 -0.4534 -0.2223 -0.8338
   33MOL    H5538519   1.865   7.421   6.868  0.3913  1.0534  1.1274
   33MOL    H5638520   1.857   7.288   6.966 -0.9930 -0.7310  0.0655
   33MOL    H5738521   1.596   7.317   6.984 -0.1127  2.0957  0.0110
   33MOL    H5838522   1.670   7.246   6.846 -2.7778 -0.6300  1.9455
   33MOL    H5938523   1.611   7.546   6.880  2.4054  1.0595 -0.0767
   33MOL    H6038524   1.670   7.479   6.732  2.6635  0.3107  2.1913
   33MOL    H6138525   2.396   6.444   0.618  2.5894  1.7063 -0.7638
   33MOL    O6238526   1.447   7.322   6.714  0.0005  0.0010  0.4295
   33MOL    C6338527   1.316   7.270   6.697 -0.4001 -0.0589  0.9827
   33MOL    C6438528   1.318   7.127   6.637  0.3585  0.9085 -0.0694
   33MOL    C6538529   1.350   7.133   6.486 -1.1069 -0.2638 -0.3964
   33MOL    C6638530   1.224   7.131   6.410  0.0847  0.1650  0.4718
   33MOL    C6738531   1.237   7.160   6.255  0.7158 -0.1765  0.1608
   33MOL    C6838532   1.110   7.228   6.193 -0.5605  0.5415  0.3106
   33MOL    C6938533   0.984   7.132   6.175 -0.0883  0.5050 -0.3259
   33MOL    C7038534   0.894   7.128   6.298  1.1820  0.0521  0.1674
   33MOL    C7138535   0.752   7.065   6.271  0.5790  0.3251  0.4642
   33MOL    C7238536   0.674   7.042   6.395  0.0025 -0.2378  0.7384
   33MOL    O7338537   0.555   6.985   6.361 -0.2770 -0.2163  0.0763
   33MOL    C7438538   0.442   7.062   6.355 -1.1077  0.8625  0.1474
   33MOL    O7538539   0.441   7.186   6.361 -0.2353 -0.1135 -0.0369
   33MOL    C7638540   0.312   6.973   6.340  0.1404 -0.5363 -0.2319
   33MOL    C7738541   0.216   7.047   6.245 -0.3168  0.2889  0.4657
   33MOL    C7838542   0.078   6.977   6.257 -0.5345  0.0022 -0.2331
   33MOL    C7938543   7.742   7.053   6.160 -0.4543 -0.3238 -0.0636
   33MOL    C8038544   7.692   7.188   6.220  0.3908  0.0444  0.0901
   33MOL    C8138545   7.605   7.266   6.114  0.0284  0.6309 -0.2390
   33MOL    C8238546   7.484   7.180   6.045 -0.0563  0.5086 -0.3734
   33MOL    C8338547   7.373   7.270   5.994  0.2202  0.3256 -0.2818
   33MOL    C8438548   7.324   7.234   5.855  0.0096  0.0735 -0.3350
   33MOL    O8538549   7.309   7.116   5.820  0.1476 -0.5781  0.0431
   33MOL    H8638550   1.269   7.278   6.795 -2.1691 -0.8879  0.2253
   33MOL    H8738551   1.254   7.329   6.629 -0.8820 -0.3383  1.1809
   33MOL    H8838552   1.384   7.060   6.691 -1.2889 -0.8295 -0.1719
   33MOL    H8938553   1.219   7.084   6.651  0.8982 -0.1971  0.3610
   33MOL    H9038554   1.420   7.214   6.463 -1.3546  0.3312  0.8413
   33MOL    H9138555   1.399   7.039   6.465 -1.5387 -0.9150  1.4325
   33MOL    H9238556   1.170   7.037   6.426 -0.8545  0.5278 -0.5377
   33MOL    H9338557   1.151   7.205   6.443 -1.4660 -1.0482 -0.1484
   33MOL    H9438558   1.242   7.070   6.194 -0.8345 -0.4536  0.4321
   33MOL    H9538559   1.320   7.228   6.239  0.9048 -0.3322  0.4853
   33MOL    H9638560   1.137   7.276   6.099  0.9682 -0.0862  0.4006
   33MOL    H9738561   1.079   7.302   6.267  1.8744  1.5258  0.4096
   33MOL    H9838562   1.020   7.037   6.135 -1.3717 -0.0382 -0.2076
   33MOL    H9938563   0.925   7.173   6.093 -0.4824 -0.3343 -0.4668
   33MOL   H10038564   0.882   7.230   6.335 -2.0946  0.0627 -0.7360
   33MOL   H10138565   0.946   7.070   6.373 -1.3884  1.3997  3.1041
   33MOL   H10238566   0.688   7.118   6.200  0.0211 -0.2003  0.5713
   33MOL   H10338567   0.766   6.970   6.220 -0.5972  0.3667  0.0488
   33MOL   H10438568   0.716   6.966   6.462  2.7238 -0.0636 -0.7251
   33MOL   H10538569   0.664   7.125   6.465 -3.3241  1.0898 -1.2184
   33MOL   H10638570   0.266   6.964   6.438  1.2480 -1.4778  0.2126
   33MOL   H10738571   0.336   6.877   6.296 -1.6989 -0.4402 -1.5067
   33MOL   H10838572   0.252   7.038   6.142  1.4357 -0.0439  1.0993
   33MOL   H10938573   0.209   7.156   6.246  0.5189  0.3489  0.0492
   33MOL   H11038574   0.027   6.979   6.353  0.2439  0.4248  0.1770
   33MOL   H11138575   0.095   6.874   6.226  1.2788  0.2154 -0.0369
   33MOL   H11238576   7.651   6.995   6.144 -0.1595 -0.8105  0.0250
   33MOL   H11338577   0.042   7.064   6.068 -1.5052  1.7368 -0.4976
   33MOL   H11438578   7.636   7.168   6.311  2.2781  4.3269  2.3309
   33MOL   H11538579   0.016   7.257   6.242 -1.0524  1.0797  2.3177
   33MOL   H11638580   7.560   7.344   6.175 -0.3926  1.0783 -1.1007
   33MOL   H11738581   7.667   7.316   6.039  0.5118 -1.3488 -1.1951
   33MOL   H11838582   7.438   7.109   6.113 -0.6051  0.8520 -0.3850
   33MOL   H11938583   7.530   7.132   5.958 -2.1862 -1.6144 -0.3784
   33MOL   H12038584   7.298   7.284   6.072  1.0093 -3.0334  1.1510
   33MOL   H12138585   7.407   7.374   5.988  1.9620  0.0822  3.6100
   33MOL   O12238586   7.296   7.343   5.782  0.3436  0.5646 -0.2076
   33MOL   C12338587   7.281   7.327   5.653  0.0397  0.2910 -0.7505
   33MOL   C12438588   7.255   7.457   5.583 -0.7016  0.5709 -0.1858
   33MOL   C12538589   7.216   7.434   5.436 -0.7919 -0.1316 -0.6094
   33MOL   C12638590   7.235   7.551   5.341  0.5870 -0.8348  0.1236
   33MOL   C12738591   7.189   7.525   5.199  0.3163  0.3689 -0.3828
   33MOL   C12838592   7.272   7.423   5.123 -0.3149  0.7582 -0.1641
   33MOL   C12938593   7.422   7.439   5.116  0.3533 -0.2236 -0.6213
   33MOL   C13038594   7.481   7.331   5.030 -0.0404  0.5058  0.7247
   33MOL   C13138595   7.628   7.356   4.995  0.6185  0.8520  0.0250
   33MOL   C13238596   7.694   7.247   4.914  0.2855  0.0197  0.0360
   33MOL   O13338597   0.059   7.291   4.868  0.1184  0.3251  0.0678
   33MOL   C13438598   0.065   7.342   4.742  0.0291 -0.5411  0.0573
   33MOL   O13538599   7.722   7.354   4.671 -0.0997 -0.2916  0.1018
   33MOL   C13638600   0.205   7.374   4.690  0.4517 -0.4592 -0.1630
   33MOL   C13738601   0.312   7.264   4.696  0.3035 -0.9015  0.1100
   33MOL   C13838602   0.456   7.304   4.669 -0.1733 -0.2905 -0.0614
   33MOL   C13938603   0.563   7.195   4.684 -0.4199 -0.9374  0.4382
   33MOL   C14038604   0.700   7.255   4.704 -0.4215 -0.2441  0.3693
   33MOL   C14138605   0.821   7.156   4.705 -0.0496 -0.3358  0.4877
   33MOL   C14238606   0.795   7.036   4.797 -0.3626  0.8801  0.3716
   33MOL   C14338607   0.914   6.937   4.815  0.1169 -0.6534  0.3337
   33MOL   C14438608   0.964   6.843   4.705 -0.6439 -0.3579 -0.0943
   33MOL   O14538609   1.053   6.757   4.719  0.4669  0.0243  0.2813
   33MOL   H14638610   7.364   7.283   5.597  0.4419 -0.3803  0.3601
   33MOL   H14738611   7.185   7.280   5.629 -0.6412  0.5356  1.4040
   33MOL   H14838612   7.180   7.512   5.640  1.2716 -1.0972  4.2573
   33MOL   H14938613   7.350   7.509   5.573  0.3852 -1.5656 -1.0794
   33MOL   H15038614   7.268   7.348   5.394 -1.0296 -0.4192 -0.3247
   33MOL   H15138615   7.112   7.402   5.430 -1.2125  1.1129 -0.1616
   33MOL   H15238616   7.191   7.643   5.380 -1.6747 -1.5989 -0.5646
   33MOL   H15338617   7.340   7.580   5.329  0.8221 -1.9172 -0.4566
   33MOL   H15438618   7.201   7.623   5.153  0.6700  0.3682 -0.2911
   33MOL   H15538619   7.082   7.508   5.188 -0.0831  1.4111  1.8215
   33MOL   H15638620   7.226   7.409   5.026  0.0565  0.1764 -0.2596
   33MOL   H15738621   7.249   7.329   5.174  1.1058 -0.2088 -1.2724
   33MOL   H15838622   7.471   7.435   5.213  0.1568 -1.2475 -0.5548
   33MOL   H15938623   7.434   7.538   5.072  0.3458  0.1688  0.2295
   33MOL   H16038624   7.426   7.337   4.936  1.6958 -0.3149 -0.3699
   33MOL   H16138625   7.460   7.230   5.065 -1.3117  1.5557  3.0995
   33MOL   H16238626   7.629   7.447   4.936  0.0218  0.2605 -0.8966
   33MOL   H16338627   7.684   7.359   5.089  2.3397 -0.0516 -0.9272
   33MOL   H16438628   7.717   7.167   4.983 -2.0687 -0.8763 -0.1625
   33MOL   H16538629   7.621   7.221   4.838 -0.1726 -1.5056  0.9811
   33MOL   H16638630   0.242   7.470   4.727 -1.5080  0.3250 -0.2269
   33MOL   H16738631   0.199   7.402   4.585  0.4658 -1.0160 -0.3143
   33MOL   H16838632   0.284   7.189   4.622  0.7989 -1.0085  0.0290
   33MOL   H16938633   0.314   7.217   4.795  2.7281  1.1048  1.0747
   33MOL   H17038634   0.465   7.376   4.751  3.5160 -1.2544  0.4438
   33MOL   H17138635   0.474   7.352   4.573  1.8688 -3.3655 -1.2786
   33MOL   H17238636   0.555   7.123   4.602  0.3191 -1.5576  0.9064
   33MOL   H17338637   0.529   7.139   4.771 -1.5294 -1.1245 -0.0990
   33MOL   H17438638   0.716   7.324   4.621  1.8727 -2.4742 -1.1225
   33MOL   H17538639   0.711   7.316   4.793 -0.4474  0.7526 -0.3016
   33MOL   H17638640   0.836   7.117   4.605 -0.4112  0.1804  0.2282
   33MOL   H17738641   0.908   7.219   4.727  0.7079 -0.4694 -1.9982
   33MOL   H17838642   0.713   6.969   4.769 -0.9444  1.3893  0.8291
   33MOL   H17938643   0.771   7.073   4.897  0.1334  0.9378  0.4705
   33MOL   H18038644   1.003   6.983   4.858 -0.2038 -0.2889  0.6128
   33MOL   H18138645   0.875   6.863   4.884  0.1337 -0.8128  0.1722
   33MOL   O18238646   0.900   6.880   4.585  0.0275  0.6076 -0.3476
   33MOL   C18338647   0.958   6.833   4.463  0.0957  0.7286  0.2224
   33MOL   C18438648   0.920   6.920   4.342 -0.5292  0.1329 -0.0002
   33MOL   C18538649   0.778   6.914   4.289 -0.5264  0.4331 -0.0156
   33MOL   C18638650   0.744   6.789   4.217 -0.2885  0.5069 -0.5802
   33MOL   C18738651   0.603   6.770   4.164  0.1728  0.0351 -1.0605
   33MOL   C18838652   0.558   6.887   4.077  0.7734  0.1420  0.3033
   33MOL   C18938653   0.435   6.856   3.996 -0.6714 -0.1612 -0.4559
   33MOL   C19038654   0.417   6.958   3.889 -0.2707  0.2248 -0.4485
   33MOL   C19138655   0.292   6.942   3.798  0.4775  0.6356  0.6626
   33MOL   C19238656   0.299   7.042   3.685 -0.1274  0.2114  0.1254
   33MOL   O19338657   0.280   7.162   3.754 -0.0966  0.3802 -0.0381
   33MOL   C19438658   0.264   7.272   3.688 -0.2234 -0.8671  0.4162
   33MOL   O19538659   0.229   7.282   3.570  0.3707  0.3860 -0.0637
   33MOL   C19638660   0.273   7.393   3.784 -0.0284  0.6205  0.4856
   33MOL   C19738661   0.205   7.514   3.716 -0.5288  0.4661  0.3229
   33MOL   C19838662   0.177   7.625   3.824 -0.4444  0.0381  1.5077
   33MOL   C19938663   0.126   7.751   3.744  0.4315 -0.1526 -0.3146
   33MOL   C20038664   0.091   0.115   3.824 -0.1102  0.7729  0.1295
   33MOL   C20138665   7.741   0.199   3.751  0.0937 -0.0640 -0.1984
   33MOL   C20238666   0.006   0.339   3.803  0.3071  0.1526  0.1917
   33MOL   C20338667   7.675   0.449   3.734 -0.8220 -0.7621 -0.0543
   33MOL   C20438668   7.526   0.428   3.725  0.1916  0.1993 -0.0433
   33MOL   O20538669   7.465   0.398   3.826  0.2130  0.2008 -0.1183
   33MOL   H20638670   1.067   6.836   4.467  0.0428  0.2804  2.3405
   33MOL   H20738671   0.928   6.729   4.448  0.7965  0.7418 -1.3831
   33MOL   H20838672   0.939   7.027   4.349  1.0033 -0.1233 -0.0810
   33MOL   H20938673   0.977   6.886   4.256 -0.0024  2.2264 -0.5112
   33MOL   H21038674   0.707   6.924   4.371  3.3902  3.5926  3.2125
   33MOL   H21138675   0.772   7.000   4.222 -0.6170 -0.7422 -1.5454
   33MOL   H21238676   0.807   6.773   4.129  0.2832 -0.0696 -0.0735
   33MOL   H21338677   0.768   6.705   4.282  0.2222  0.2119 -1.1462
   33MOL   H21438678   0.541   6.755   4.252 -0.9079  1.5094 -1.5425
   33MOL   H21538679   0.585   6.679   4.108 -0.5501 -0.4790 -0.0008
   33MOL   H21638680   0.636   6.912   4.005 -0.3763  1.2055 -0.5911
   33MOL   H21738681   0.534   6.981   4.127  1.1566  1.3588 -1.7581
   33MOL   H21838682   0.353   6.859   4.068  0.2762 -2.6033  0.7897
   33MOL   H21938683   0.436   6.760   3.944 -0.3286 -0.4459  0.0672
   33MOL   H22038684   0.495   6.950   3.813  1.8836 -0.8531  1.7872
   33MOL   H22138685   0.419   7.061   3.925  0.3379  0.2651 -0.5912
   33MOL   H22238686   0.306   6.846   3.749  0.4946  0.6444  0.6492
   33MOL   H22338687   0.194   6.949   3.843  0.1019  1.0959 -0.2034
   33MOL   H22438688   0.394   7.046   3.632 -1.0004  0.6853 -1.4385
   33MOL   H22538689   0.212   7.017   3.624 -0.1376  1.2488 -0.2932
   33MOL   H22638690   0.378   7.398   3.811  0.4250 -2.9603 -0.4133
   33MOL   H22738691   0.216   7.370   3.874  1.6544 -1.4780  1.0418
   33MOL   H22838692   0.107   7.488   3.675  0.2646 -0.6598 -0.8864
   33MOL   H22938693   0.258   7.561   3.633 -2.1745  0.6245 -0.6629
   33MOL   H23038694   0.278   7.636   3.864 -0.2863  4.8633  0.2156
   33MOL   H23138695   0.103   7.582   3.891 -1.6977 -1.3211 -0.6883
   33MOL   H23238696   0.037   7.723   3.689  1.1811 -3.7946  0.2246
   33MOL   H23338697   0.194   0.020   3.662 -0.2727 -1.9766 -1.4801
   33MOL   H23438698   0.058   0.084   3.923  1.0856  2.1616  0.9850
   33MOL   H23538699   0.186   0.169   3.832  0.0226  0.5484  0.0630
   33MOL   H23638700   7.753   0.198   3.643  1.7639  0.1813 -0.0276
   33MOL   H23738701   7.637   0.174   3.775  0.4717 -0.3146  1.2394
   33MOL   H23838702   0.111   0.363   3.790  0.9271 -1.8240  1.3639
   33MOL   H23938703   7.745   0.348   3.910 -0.4629 -0.8963  0.1587
   33MOL   H24038704   7.708   0.534   3.795  0.9368 -1.7369  0.4150
   33MOL   H24138705   7.716   0.473   3.636 -1.6661 -1.5976 -0.6164
   33MOL   O24238706   7.474   0.418   3.600  0.0590 -0.0447 -0.2588
   33MOL   C24338707   7.331   0.407   3.576 -0.0135 -0.3969  0.2947
   33MOL   C24438708   7.280   0.545   3.534  0.6141 -0.2608 -0.3345
   33MOL   C24538709   7.296   0.580   3.381  0.6529 -0.7503  0.3441
   33MOL   C24638710   7.237   0.720   3.343 -0.3631 -0.0722 -0.5452
   33MOL   C24738711   7.267   0.744   3.191  0.4593 -0.6627 -1.5166
   33MOL   C24838712   7.142   0.738   3.106 -0.1485 -0.4977 -0.6862
   33MOL   C24938713   7.083   0.595   3.088 -0.4022 -0.1976  0.4178
   33MOL   C25038714   6.963   0.591   2.986 -0.3435  0.3957 -0.8468
   33MOL   C25138715   6.919   0.444   2.951 -0.6864  0.0229  0.3716
   33MOL   C25238716   6.820   0.423   2.836 -0.2342 -0.0364  0.1279
   33MOL   O25338717   6.701   0.506   2.845 -0.4400  0.2207 -0.5136
   33MOL   C25438718   6.599   0.468   2.923 -0.1394 -1.0971  0.1559
   33MOL   O25538719   6.593   0.373   2.998  0.1240  0.2162  0.2551
   33MOL   C25638720   6.487   0.577   2.924 -0.5726  0.1023  0.2625
   33MOL   C25738721   6.516   0.692   3.014 -0.8940 -0.1246  0.0654
   33MOL   C25838722   6.567   0.662   3.156 -0.1602  0.1058  0.0883
   33MOL   C25938723   6.623   0.790   3.227 -0.7259  1.0557  0.0126
   33MOL   C26038724   6.682   0.776   3.367  0.3920  0.1511  0.2935
   33MOL   C26138725   6.739   0.902   3.440 -0.1581  0.1654  0.2139
   33MOL   C26238726   6.771   0.895   3.589  0.0887 -0.0348 -0.0746
   33MOL   C26338727   6.761   1.030   3.671  0.7281 -0.5483  0.1142
   33MOL   C26438728   6.760   1.027   3.826 -0.1701  0.1709  0.0609
   33MOL   O26538729   6.789   1.130   3.887  0.3594 -0.8422 -0.2668
   33MOL   H26638730   7.316   0.319   3.513 -2.3288 -0.7112  1.2388
   33MOL   H26738731   7.275   0.378   3.665 -1.4855  1.1781 -0.0994
   33MOL   H26838732   7.173   0.551   3.555  0.7553  0.7302  0.0979
   33MOL   H26938733   7.331   0.618   3.597 -1.1267 -0.3272  1.2093
   33MOL   H27038734   7.402   0.586   3.360  0.9360 -1.3278  1.5900
   33MOL   H27138735   7.252   0.508   3.311  0.4000  0.0561 -0.3452
   33MOL   H27238736   7.133   0.733   3.373 -0.7210 -2.3541 -0.6948
   33MOL   H27338737   7.292   0.786   3.409 -2.4110 -1.0404  2.2256
   33MOL   H27438738   7.341   0.672   3.156  0.7868 -0.6564 -0.8428
   33MOL   H27538739   7.307   0.846   3.188  0.4153 -0.6055 -0.3579
   33MOL   H27638740   7.172   0.774   3.008 -0.5340  1.0842 -0.2305
   33MOL   H27738741   7.060   0.808   3.125 -0.3949 -0.6746 -1.0827
   33MOL   H27838742   7.051   0.565   3.188 -3.0721  2.5707  0.4783
   33MOL   H27938743   7.156   0.524   3.050 -1.8299 -0.8456 -1.1411
   33MOL   H28038744   6.993   0.645   2.896  0.4539  1.0581 -0.1952
   33MOL   H28138745   6.873   0.636   3.029  0.8538  1.7695  0.2674
   33MOL   H28238746   7.006   0.394   2.907 -2.6151 -3.1909  0.0725
   33MOL   H28338747   6.894   0.389   3.042 -1.6775  1.0080  0.7023
   33MOL   H28438748   6.864   0.458   2.742  2.0188  0.9301  1.5100
   33MOL   H28538749   6.780   0.322   2.826  1.0398 -0.5443 -0.0065
   33MOL   H28638750   6.394   0.535   2.962 -1.1185  0.8768 -0.1839
   33MOL   H28738751   6.467   0.615   2.823 -2.7621 -2.4603 -0.3106
   33MOL   H28838752   6.431   0.760   3.019 -0.8942 -0.0512 -0.8225
   33MOL   H28938753   6.597   0.747   2.965 -1.0608  0.5016  0.4900
   33MOL   H29038754   6.648   0.589   3.154 -0.3820 -0.1128 -0.7634
   33MOL   H29138755   6.490   0.604   3.207 -1.1440 -0.2072 -1.7215
   33MOL   H29238756   6.548   0.868   3.227 -1.7670  0.0723 -0.6051
   33MOL   H29338757   6.692   0.830   3.153  2.4573 -1.4242  1.4828
   33MOL   H29438758   6.612   0.725   3.432 -0.0227 -1.1719 -1.1522
   33MOL   H29538759   6.761   0.700   3.361 -0.8660 -1.2523  1.2793
   33MOL   H29638760   6.815   0.952   3.380 -0.4578 -1.1837 -1.3651
   33MOL   H29738761   6.664   0.979   3.426  2.0391  2.5979  1.3893
   33MOL   H29838762   6.870   0.851   3.598 -0.6648 -1.4514  1.5853
   33MOL   H29938763   6.703   0.825   3.638  0.8007 -0.4000  0.3906
   33MOL   H30038764   6.851   1.089   3.653 -0.3485  1.4387  1.0542
   33MOL   H30138765   6.674   1.089   3.642  0.3562 -0.6329  1.0669
   33MOL   O30238766   6.749   0.897   3.876  0.5097  0.0300  0.0657
   33MOL   C30338767   6.790   0.875   4.008 -0.5478  0.3660  1.1322
   33MOL   C30438768   6.784   0.724   4.037 -0.1261 -0.6748 -0.0751
   33MOL   C30538769   6.866   0.626   3.946 -0.1304 -0.5970  0.2465
   33MOL   C30638770   6.852   0.472   3.971 -0.2385  0.3300  0.3790
   33MOL   C30738771   6.989   0.406   3.974  1.0275  0.0742  0.4961
   33MOL   C30838772   6.968   0.261   4.016  0.3563 -1.2349 -0.1065
   33MOL   C30938773   7.062   0.169   3.948  0.5957 -0.1225  0.0506
   33MOL   C31038774   7.203   0.181   4.006  0.3700 -0.0999  0.2926
   33MOL   C31138775   7.303   0.091   3.939 -0.3440  1.5337 -0.6853
   33MOL   C31238776   7.448   0.092   4.003 -0.0695 -0.1350 -0.5067
   33MOL   O31338777   7.444   0.028   4.132  0.0475  0.4965  0.3618
   33MOL   C31438778   7.541   7.692   4.155 -0.2515 -0.1460  0.8670
   33MOL   O31538779   7.643   7.670   4.089 -0.1095  0.1242  0.2802
   33MOL   C31638780   7.512   7.617   4.282  0.4743 -0.2183 -0.0421
   33MOL   C31738781   7.546   7.465   4.268 -0.0004 -0.4336  0.1442
   33MOL   C31838782   7.527   7.383   4.405 -0.5264 -0.1796  0.5375
   33MOL   C31938783   7.384   7.334   4.431  0.4712 -0.3515 -0.3197
   33MOL   C32038784   7.362   7.260   4.558  0.5660 -0.5071  0.0616
   33MOL   C32138785   7.212   7.224   4.577 -0.5701  1.2014 -0.0871
   33MOL   C32238786   7.184   7.149   4.709  0.2186 -0.8731  0.2600
   33MOL   C32338787   7.029   7.132   4.725 -0.2922  0.1421 -1.0535
   33MOL   C32438788   6.951   7.018   4.663 -0.6499  0.2316 -0.6639
   33MOL   O32538789   6.984   6.971   4.554  0.2544 -0.1501  0.1825
   33MOL   H32638790   6.890   0.918   4.021 -0.6278  0.6551  0.8052
   33MOL   H32738791   6.734   0.923   4.089 -0.9771  1.1357  0.3929
   33MOL   H32838792   6.830   0.720   4.135 -2.7640  0.5782  1.2335
   33MOL   H32938793   6.679   0.694   4.043 -0.4527  0.2247 -1.0896
   33MOL   H33038794   6.840   0.651   3.843 -0.8765 -1.5163  0.1969
   33MOL   H33138795   6.971   0.657   3.948  0.0462 -1.2265  2.0497
   33MOL   H33238796   6.826   0.459   4.076  1.5117 -0.9263  0.6917
   33MOL   H33338797   6.778   0.417   3.914  0.4390 -1.0695  0.8220
   33MOL   H33438798   7.059   0.442   4.050  1.4960  1.6530 -0.6654
   33MOL   H33538799   7.027   0.415   3.872 -2.8088  0.3372 -0.9675
   33MOL   H33638800   6.868   0.221   3.998 -0.6234 -0.8718  3.9014
   33MOL   H33738801   6.982   0.252   4.124  1.8463 -2.4178 -0.3838
   33MOL   H33838802   7.062   0.195   3.842  2.9882  0.8148  0.2397
   33MOL   H33938803   7.024   0.068   3.959  0.0262  0.1418  0.5478
   33MOL   H34038804   7.185   0.153   4.110 -1.2708  0.9543  0.3162
   33MOL   H34138805   7.239   0.283   3.990 -1.8076  0.7489  0.6560
   33MOL   H34238806   7.263   7.747   3.937  1.5318  0.7542 -0.5546
   33MOL   H34338807   7.314   0.114   3.833 -0.5175  0.4794 -0.9338
   33MOL   H34438808   7.516   0.049   3.930  0.5506  3.0867 -1.8906
   33MOL   H34538809   7.471   0.198   4.012 -0.7945  0.0011 -0.1650
   33MOL   H34638810   7.405   7.621   4.301  0.7064  1.5554  0.9775
   33MOL   H34738811   7.569   7.657   4.367  0.9899 -1.0987  0.0313
   33MOL   H34838812   7.655   7.457   4.260  0.2924  1.7998  1.3641
   33MOL   H34938813   7.507   7.413   4.181 -1.5907  0.5566  0.2451
   33MOL   H35038814   7.556   7.445   4.490  1.5240 -1.8374  1.0770
   33MOL   H35138815   7.597   7.301   4.420  1.3417  0.7800 -2.5514
   33MOL   H35238816   7.355   7.274   4.344 -0.3490  2.1158 -1.8180
   33MOL   H35338817   7.316   7.419   4.428 -0.1536 -0.8204  0.4860
   33MOL   H35438818   7.422   7.170   4.547  0.8929 -0.1370 -1.2599
   33MOL   H35538819   7.404   7.305   4.648  2.5164 -0.8569 -0.6463
   33MOL   H35638820   7.149   7.311   4.559 -0.5832  1.1052 -0.5170
   33MOL   H35738821   7.194   7.156   4.493  1.8819  0.0289  0.2811
   33MOL   H35838822   7.220   7.220   4.783  0.3496  0.2374 -0.8563
   33MOL   H35938823   7.246   7.059   4.713 -1.0030 -1.7166  0.5346
   33MOL   H36038824   7.015   7.129   4.833  3.0916 -0.7218 -0.5838
   33MOL   H36138825   6.973   7.221   4.697  0.4084  1.2358  0.9624
   33MOL   O36238826   6.839   6.994   4.733  0.2873 -0.2991  0.0396
   33MOL   C36338827   6.752   6.891   4.703 -0.6057 -0.2441 -0.1492
   33MOL   C36438828   6.699   6.833   4.833 -0.0562  0.3289  0.3218
   33MOL   C36538829   6.647   6.685   4.822 -0.0969 -0.0828 -0.5255
   33MOL   C36638830   6.609   6.605   4.954  0.1525  0.3243 -0.2105
   33MOL   C36738831   6.729   6.584   5.048  0.4306  0.1185 -0.2587
   33MOL   C36838832   6.711   6.471   5.151  0.4128  0.0705 -0.2167
   33MOL   C36938833   6.832   6.470   5.257 -0.4616 -0.5791 -0.9029
   33MOL   C37038834   6.980   6.469   5.200 -0.1711 -0.4612  0.2651
   33MOL   C37138835   6.991   6.336   5.121  0.5554  0.2252  0.3855
   33MOL   C37238836   7.133   6.321   5.057 -0.3257  0.6256 -0.0362
   33MOL   O37338837   7.170   6.407   4.954  0.1329  0.2101  1.0880
   33MOL   C37438838   7.126   6.377   4.834 -0.1073 -0.0721  0.2954
   33MOL   O37538839   7.052   6.281   4.808  0.2406  0.3786  0.1087
   33MOL   C37638840   7.165   6.489   4.728 -0.0632  0.1381  0.6507
   33MOL   C37738841   7.048   6.568   4.656  0.3178 -0.0288  0.4875
   33MOL   C37838842   7.004   6.497   4.524  0.7489  0.0118  0.1290
   33MOL   C37938843   6.897   6.571   4.455  0.0719  0.6073 -0.0117
   33MOL   C38038844   6.864   6.508   4.324 -0.6264  0.5072  0.6007
   33MOL   C38138845   6.746   6.573   4.260 -0.8865  0.4965 -0.1036
   33MOL   C38238846   6.765   6.726   4.231  0.3229  0.1704 -0.7102
   33MOL   C38338847   6.632   6.787   4.210  0.3901  0.5928  1.2102
   33MOL   C38438848   6.567   6.821   4.343  0.8060  0.5569 -0.1466
   33MOL   O38538849   6.619   6.906   4.414 -0.5456  0.0177  1.1746
   33MOL   H38638850   6.670   6.934   4.644 -1.2923 -0.1439  0.8665
   33MOL   H38738851   6.788   6.811   4.639  0.7401  0.8319 -0.7718
   33MOL   H38838852   6.779   6.837   4.908 -0.7162 -1.3354  1.1476
   33MOL   H38938853   6.617   6.896   4.866 -1.8703 -0.4060 -2.6420
   33MOL   H39038854   6.570   6.675   4.746 -0.2447 -0.7031 -0.2961
   33MOL   H39138855   6.724   6.622   4.777  0.9779  0.8086  0.0058
   33MOL   H39238856   6.526   6.649   5.010  0.8135 -2.3342  3.0548
   33MOL   H39338857   6.564   6.508   4.933 -0.6577  0.5259  0.5458
   33MOL   H39438858   6.774   6.676   5.087  3.5901 -1.1791 -0.6668
   33MOL   H39538859   6.809   6.542   4.987 -0.4275 -2.4597  0.3295
   33MOL   H39638860   6.695   6.374   5.104 -1.4770  0.7750 -1.0744
   33MOL   H39738861   6.614   6.488   5.198 -0.4498  1.8021 -2.5105
   33MOL   H39838862   6.807   6.398   5.336 -2.5432  0.8156 -0.2391
   33MOL   H39938863   6.828   6.562   5.316  0.5262 -1.0352 -0.1150
   33MOL   H40038864   7.058   6.464   5.276 -0.3025  2.1038  0.6087
   33MOL   H40138865   7.004   6.560   5.145 -0.2352 -0.5304  0.1252
   33MOL   H40238866   6.972   6.254   5.190 -0.1437 -0.1831 -0.2850
   33MOL   H40338867   6.905   6.331   5.055 -1.4587 -1.6464  3.0514
   33MOL   H40438868   7.204   6.324   5.140 -0.3375  0.6464 -0.0277
   33MOL   H40538869   7.150   6.218   5.027  1.0959  1.5753 -2.6654
   33MOL   H40638870   7.237   6.451   4.656 -0.0511  0.1685  0.6470
   33MOL   H40738871   7.220   6.564   4.784  0.0821  1.5532 -1.3329
   33MOL   H40838872   7.091   6.666   4.636  0.9895 -0.7183 -1.5973
   33MOL   H40938873   6.959   6.581   4.718 -0.3747  1.2841 -0.7572
   33MOL   H41038874   6.960   6.400   4.549  2.1240 -0.5930  0.2345
   33MOL   H41138875   7.089   6.497   4.456  0.5700  0.0526 -0.0967
   33MOL   H41238876   6.926   6.675   4.440  1.0510  0.2321 -0.8031
   33MOL   H41338877   6.813   6.570   4.523 -2.9018 -3.2632 -3.4866
   33MOL   H41438878   6.955   6.512   4.264 -1.2307 -1.1814 -0.4536
   33MOL   H41538879   6.845   6.402   4.341  0.5905  0.2992  0.7052
   33MOL   H41638880   6.725   6.526   4.164  1.1284  0.2523 -0.4491
   33MOL   H41738881   6.654   6.556   4.315  1.3062 -1.9164  3.0241
   33MOL   H41838882   6.824   6.746   4.142 -1.2525  0.2861 -1.7578
   33MOL   H41938883   6.822   6.786   4.302  0.2875 -0.5093 -0.0990
   33MOL   H42038884   6.636   6.884   4.160 -0.0291 -1.2611 -2.6411
   33MOL   H42138885   6.574   6.714   4.153  0.8252  0.9392  0.3193
   33MOL   O42238886   6.469   6.734   4.382 -0.2765 -0.1449 -0.1769
   33MOL   C42338887   6.424   6.735   4.514 -0.1022  0.0864  0.0509
   33MOL   C42438888   6.271   6.688   4.508  0.4762  0.2370 -0.8098
   33MOL   C42538889   6.210   6.656   4.643  0.2303  0.1760 -0.0722
   33MOL   C42638890   6.072   6.596   4.628  0.6072 -0.0549  0.0820
   33MOL   C42738891   5.991   6.574   4.761 -0.1279 -0.0067 -0.6002
   33MOL   C42838892   5.858   6.516   4.740  0.0259  0.6096  0.1101
   33MOL   C42938893   5.749   6.586   4.656 -0.2306 -0.4929 -0.3703
   33MOL   C43038894   5.607   6.520   4.658 -0.8903 -0.5120 -0.3141
   33MOL   C43138895   5.501   6.616   4.594 -0.4115 -0.2638  0.3558
   33MOL   C43238896   5.357   6.578   4.635  0.0660 -0.3761  0.0339
   33MOL   O43338897   5.257   6.664   4.579  0.4148  0.2102  0.2476
   33MOL   C43438898   5.128   6.663   4.618  0.4179 -0.3058  0.0842
   33MOL   O43538899   5.081   6.602   4.712 -0.1586  0.5957 -0.6774
   33MOL   C43638900   5.044   6.737   4.511  0.0756 -0.0278 -0.4754
   33MOL   C43738901   4.920   6.809   4.570 -0.2032  0.9223  0.4237
   33MOL   C43838902   4.805   6.711   4.623 -0.1642  0.2617 -0.1162
   33MOL   C43938903   4.664   6.761   4.625  0.8371 -0.1236  0.1374
   33MOL   C44038904   4.578   6.726   4.503  0.5611  0.4500  0.0879
   33MOL   C44138905   4.440   6.790   4.493  0.6092  0.2405  0.2894
   33MOL   C44238906   4.383   6.769   4.356 -0.3255  0.5535 -0.4199
   33MOL   C44338907   4.335   6.624   4.346  0.0476  0.2604 -0.0911
   33MOL   C44438908   4.389   6.539   4.228 -0.4121  0.2267 -0.7963
   33MOL   O44538909   4.324   6.459   4.163  0.0294 -0.1247  0.2883
   33MOL   H44638910   6.483   6.659   4.567 -0.3720  0.3216  0.6912
   33MOL   H44738911   6.432   6.832   4.563 -3.4778  0.4769 -0.0684
   33MOL   H44838912   6.209   6.758   4.453 -0.6190 -2.1459 -2.6673
   33MOL   H44938913   6.275   6.598   4.446  0.5099 -0.2425 -0.1264
   33MOL   H45038914   6.274   6.577   4.682  1.8795  0.2767 -2.4771
   33MOL   H45138915   6.210   6.741   4.712  0.6346 -0.3709  0.6073
   33MOL   H45238916   6.009   6.661   4.567  0.9440 -0.7843 -1.0767
   33MOL   H45338917   6.087   6.505   4.570  1.6310  1.0770 -1.4968
   33MOL   H45438918   5.986   6.669   4.815  0.7882  0.0560 -0.6251
   33MOL   H45538919   6.043   6.508   4.830 -0.2605  1.7547  1.2301
   33MOL   H45638920   5.804   6.489   4.830 -0.0165  1.1848  0.2579
   33MOL   H45738921   5.875   6.419   4.693 -1.7391 -0.4510  1.6111
   33MOL   H45838922   5.785   6.607   4.555  1.9086  1.9107  0.8550
   33MOL   H45938923   5.740   6.686   4.697 -2.1152 -1.6285  2.1491
   33MOL   H46038924   5.571   6.502   4.759 -0.2714  0.3764  0.0767
   33MOL   H46138925   5.607   6.426   4.603 -1.7885 -1.2769  0.9893
   33MOL   H46238926   5.524   6.716   4.629  1.7455 -1.1886  1.6692
   33MOL   H46338927   5.521   6.606   4.488 -0.6264 -0.3333  0.3203
   33MOL   H46438928   5.350   6.475   4.601 -0.6470 -0.2177 -0.3267
   33MOL   H46538929   5.347   6.583   4.743 -2.1861 -2.0984 -0.0521
   33MOL   H46638930   5.006   6.670   4.434 -0.7445 -0.3740  0.2357
   33MOL   H46738931   5.113   6.813   4.474  0.0867  0.3157  0.2536
   33MOL   H46838932   4.864   6.872   4.501  1.9934  2.8090  0.2797
   33MOL   H46938933   4.950   6.877   4.651  1.0596  1.4881 -0.5078
   33MOL   H47038934   4.823   6.682   4.727  0.3791 -1.3032 -0.6428
   33MOL   H47138935   4.799   6.625   4.557 -1.3656  0.0258  0.3011
   33MOL   H47238936   4.673   6.869   4.642  3.8531 -0.4270  0.7308
   33MOL   H47338937   4.613   6.730   4.716 -1.8747 -0.3170 -1.3775
   33MOL   H47438938   4.637   6.742   4.413 -0.4541  2.4541 -0.2449
   33MOL   H47538939   4.551   6.620   4.506 -0.5367  0.7389  0.4615
   33MOL   H47638940   4.375   6.759   4.575  1.8793  1.7237  1.8859
   33MOL   H47738941   4.457   6.893   4.525  1.0139  0.5244 -0.8113
   33MOL   H47838942   4.453   6.790   4.275  1.2747 -0.2187  0.7477
   33MOL   H47938943   4.290   6.825   4.350  0.5780  1.9089 -2.6131
   33MOL   H48038944   4.357   6.568   4.436 -0.2650  1.3356  0.6755
   33MOL   H48138945   4.227   6.623   4.331  0.2523 -0.2324 -1.5466
   33MOL   O48238946   4.528   6.555   4.223  0.0584 -0.9434  0.4797
   33MOL   C48338947   4.595   6.501   4.116  0.3321  0.8264  0.3056
   33MOL   C48438948   4.744   6.540   4.129  0.3219 -0.0436 -0.3733
   33MOL   C48538949   4.840   6.455   4.046 -0.5247  0.1246  0.2968
   33MOL   C48638950   4.826   6.488   3.896 -0.3048  0.8721 -0.1230
   33MOL   C48738951   4.903   6.388   3.805 -0.2142 -0.3493  0.1377
   33MOL   C48838952   4.900   6.443   3.660 -0.6089 -0.2265 -0.2479
   33MOL   C48938953   4.771   6.461   3.572 -0.1877  0.0562 -0.2996
   33MOL   C49038954   4.725   6.319   3.515 -0.5879 -0.7746  0.3829
   33MOL   C49138955   4.596   6.310   3.422 -0.9471  0.2435 -0.1941
   33MOL   C49238956   4.549   6.177   3.358  0.1533 -0.1224  0.4052
   33MOL   O49338957   4.519   6.087   3.471  0.3918  0.1545 -0.3856
   33MOL   C49438958   4.393   6.071   3.508  0.4718 -0.1467 -0.0735
   33MOL   O49538959   4.295   6.142   3.476  0.0414  0.2037  0.5255
   33MOL   C49638960   4.373   5.963   3.613  0.5769 -0.8672  0.4149
   33MOL   C49738961   4.425   5.821   3.580  0.1614  0.7579  0.7178
   33MOL   C49838962   4.338   5.733   3.487  0.0018  1.1482 -0.4916
   33MOL   C49938963   4.387   5.589   3.468 -0.3247  0.7019 -0.0014
   33MOL   C50038964   4.325   5.505   3.366  0.6737  0.6245  0.4144
   33MOL   C50138965   4.378   5.362   3.352  0.3077 -0.2278  0.0964
   33MOL   C50238966   4.515   5.340   3.276 -0.3612  0.8247  0.1902
   33MOL   C50338967   4.527   5.404   3.138  0.1749 -0.1225 -0.4498
   33MOL   C50438968   4.468   5.328   3.024 -0.1139 -0.4049 -0.4825
   33MOL   O50538969   4.391   5.388   2.954 -0.3822  0.7939  0.7027
   33MOL   H50638970   4.573   6.394   4.122  2.7703  0.3873  2.2137
   33MOL   H50738971   4.554   6.542   4.024 -0.2904 -2.3505 -0.8904
   33MOL   H50838972   4.758   6.647   4.123 -3.0238  0.6673  2.8197
   33MOL   H50938973   4.779   6.527   4.232 -2.0526  0.1677  0.4819
   33MOL   H51038974   4.941   6.455   4.085 -0.2634 -1.6150 -0.3355
   33MOL   H51138975   4.818   6.348   4.048  1.7126 -0.3269  1.1464
   33MOL   H51238976   4.721   6.483   3.867 -1.0307 -0.3451  2.5455
   33MOL   H51338977   4.855   6.592   3.876  0.8195  0.6626  0.3547
   33MOL   H51438978   4.870   6.285   3.809  0.8703 -0.7207 -0.5094
   33MOL   H51538979   5.008   6.393   3.834 -0.2550 -0.2689  0.2748
   33MOL   H51638980   4.977   6.388   3.606 -0.9687  0.9292 -1.9764
   33MOL   H51738981   4.953   6.538   3.659  0.3908 -0.7639  1.1267
   33MOL   H51838982   4.809   6.513   3.484  0.3807 -2.0869 -1.3525
   33MOL   H51938983   4.692   6.522   3.617 -0.1826  1.0333 -1.5825
   33MOL   H52038984   4.702   6.260   3.604 -3.8476  1.7968  1.3947
   33MOL   H52138985   4.809   6.273   3.464 -0.0066  0.0252  0.6018
   33MOL   H52238986   4.515   6.333   3.492 -2.5314  0.2193 -1.9797
   33MOL   H52338987   4.602   6.388   3.347 -0.7824 -0.3029 -0.7537
   33MOL   H52438988   4.464   6.197   3.292  0.4850  1.8179  0.5599
   33MOL   H52538989   4.625   6.126   3.299 -0.0127 -0.7099  0.6922
   33MOL   H52638990   4.265   5.969   3.630  0.7953 -2.4255  2.5251
   33MOL   H52738991   4.418   6.011   3.700  0.1203 -0.6081  0.5077
   33MOL   H52838992   4.441   5.767   3.674  2.2222 -1.0639 -0.6001
   33MOL   H52938993   4.525   5.824   3.535 -0.9410 -0.2516 -1.9360
   33MOL   H53038994   4.331   5.773   3.386  1.2247 -1.6470 -1.7480
   33MOL   H53138995   4.241   5.717   3.534  0.1464  0.6091 -0.3792
   33MOL   H53238996   4.369   5.543   3.565  0.1165 -1.4880 -0.9391
   33MOL   H53338997   4.496   5.585   3.458 -0.3862 -0.7009 -0.0842
   33MOL   H53438998   4.217   5.501   3.381  0.2511  0.3055 -2.5289
   33MOL   H53538999   4.330   5.561   3.273 -0.7559  0.2667  0.1069
   33MOL   H53639000   4.395   5.325   3.453 -3.1062  0.1102  0.8327
   33MOL   H53739001   4.298   5.309   3.300 -0.1812 -0.8044  1.4165
   33MOL   H53839002   4.532   5.233   3.267 -1.2764  0.8271 -1.6896
   33MOL   H53939003   4.599   5.370   3.339  1.0622 -1.7829 -0.3859
   33MOL   H54039004   4.490   5.505   3.128  1.6965  0.2665 -2.5308
   33MOL   H54139005   4.632   5.407   3.107  0.0682 -0.1091 -0.8005
   33MOL   O54239006   4.519   5.209   3.003  0.2884 -0.2469 -0.5617
   33MOL   C54339007   4.486   5.134   2.890 -0.6903 -0.2148 -0.4115
   33MOL   C54439008   4.632   5.079   2.848 -0.0997  0.3095  0.5041
   33MOL   C54539009   4.621   5.010   2.708  0.2160 -0.5405 -0.1154
   33MOL   C54639010   4.746   4.925   2.671  0.4812  0.5128 -0.0385
   33MOL   C54739011   4.715   4.843   2.548 -0.1560  1.1880  0.9949
   33MOL   C54839012   4.698   4.912   2.413 -0.8173 -0.5828  0.4803
   33MOL   C54939013   4.830   4.970   2.358  0.0766 -0.7421 -0.0033
   33MOL   C55039014   4.827   5.095   2.266 -0.5343  0.7104 -0.2292
   33MOL   C55139015   4.765   5.070   2.123  0.9932 -0.2519  1.0181
   33MOL   C55239016   4.745   5.207   2.055  0.1408 -0.2774 -0.2757
   33MOL   O55339017   4.649   5.282   2.132  0.9848  0.2544 -0.3690
   33MOL   C55439018   4.619   5.406   2.081  0.0741  0.1170  0.1425
   33MOL   O55539019   4.656   5.451   1.973  0.1519 -0.0501 -0.5074
   33MOL   C55639020   4.527   5.495   2.173  0.4975 -0.0569  0.3868
   33MOL   C55739021   4.521   5.647   2.122 -0.5557 -0.0388 -0.3466
   33MOL   C55839022   4.660   5.713   2.123  0.2084 -0.0320  0.0656
   33MOL   C55939023   4.648   5.862   2.072  0.4051  0.2323  0.0733
   33MOL   C56039024   4.779   5.935   2.078  0.2595  0.6853 -0.2778
   33MOL   C56139025   4.774   6.089   2.090 -0.1154 -0.2583 -0.2550
   33MOL   C56239026   4.911   6.152   2.093  0.7473 -0.4945 -0.8046
   33MOL   C56339027   4.921   6.304   2.091 -0.1671  0.5749  0.1848
   33MOL   C56439028   4.879   6.371   1.962 -0.4968  0.8106  0.5316
   33MOL   O56539029   4.761   6.385   1.939  0.6261  0.7951  0.5408
   33MOL   H56639030   4.401   5.066   2.901 -2.3198  2.1393  1.8930
   33MOL   H56739031   4.445   5.207   2.820 -0.0908  1.1104  0.6067
   33MOL   H56839032   4.703   5.162   2.845  0.9920 -0.6363 -0.6013
   33MOL   H56939033   4.674   5.013   2.923  1.8159 -0.0065 -0.8122
   33MOL   H57039034   4.535   4.945   2.724 -0.5744  0.6544  0.4924
   33MOL   H57139035   4.590   5.092   2.644 -1.7101 -1.0898  0.0757
   33MOL   H57239036   4.833   4.989   2.656  1.5164 -0.8956 -0.1514
   33MOL   H57339037   4.769   4.857   2.753 -3.3315 -0.3198  0.4362
   33MOL   H57439038   4.619   4.791   2.549  1.3951 -1.7645  1.0288
   33MOL   H57539039   4.793   4.768   2.543 -0.5388  0.9789 -4.4052
   33MOL   H57639040   4.620   4.986   2.433 -1.0648 -1.2378  1.9660
   33MOL   H57739041   4.663   4.843   2.336  0.9216 -2.3791  1.2417
   33MOL   H57839042   4.878   4.892   2.299  2.3559  2.1457 -2.0948
   33MOL   H57939043   4.886   4.998   2.448 -0.6161  0.5404  0.0460
   33MOL   H58039044   4.929   5.132   2.253 -0.5751  0.6731 -0.6628
   33MOL   H58139045   4.763   5.166   2.318 -0.3464  0.5392  0.2311
   33MOL   H58239046   4.821   5.000   2.061 -0.8518 -2.0462  1.3212
   33MOL   H58339047   4.666   5.027   2.141 -0.2244  2.5282  1.2770
   33MOL   H58439048   4.828   5.277   2.051  1.4867 -1.8957 -0.9610
   33MOL   H58539049   4.704   5.185   1.956  0.2653  0.2553 -0.4462
   33MOL   H58639050   4.550   5.495   2.279  2.4143 -1.8542 -0.0090
   33MOL   H58739051   4.426   5.455   2.164 -0.0736  1.3124  0.6053
   33MOL   H58839052   4.472   5.707   2.199 -1.1506  1.6557 -2.0221
   33MOL   H58939053   4.451   5.657   2.039 -0.2516 -1.3068 -0.7697
   33MOL   H59039054   4.728   5.663   2.055 -1.5239 -0.0328 -1.7167
   33MOL   H59139055   4.707   5.712   2.221  2.7924  1.5992 -1.1134
   33MOL   H59239056   4.569   5.920   2.119 -0.0152 -0.2687 -0.0104
   33MOL   H59339057   4.610   5.856   1.970 -0.2184 -0.2115  0.3273
   33MOL   H59439058   4.844   5.896   2.157 -0.0756  1.4142  0.3729
   33MOL   H59539059   4.842   5.921   1.991  0.2479 -1.1376 -0.0109
   33MOL   H59639060   4.714   6.134   2.011  1.9518  2.2712 -0.4797
   33MOL   H59739061   4.727   6.116   2.185  0.5388 -2.4066  0.7202
   33MOL   H59839062   4.957   6.113   2.003  0.1601 -0.8778 -0.9403
   33MOL   H59939063   4.970   6.110   2.174  0.6647  0.4869 -0.2214
   33MOL   H60039064   4.846   6.329   2.165 -1.6046 -0.2033 -0.9695
   33MOL   H60139065   5.017   6.345   2.122  0.0799 -1.6014  2.4101
   33MOL   O60239066   4.988   6.390   1.871  0.2575  0.0431 -0.5627
   33MOL   C60339067   4.971   6.459   1.756 -0.0014  0.4764 -0.1719
   33MOL   C60439068   5.037   6.598   1.771  0.3865 -0.8619 -0.2730
   33MOL   C60539069   5.056   6.679   1.642  0.5062 -0.2116 -0.3816
   33MOL   C60639070   4.923   6.692   1.569  0.4055  0.7498  0.4278
   33MOL   C60739071   4.930   6.786   1.451  0.2660  0.7525 -0.4876
   33MOL   C60839072   4.981   6.738   1.318  1.0498  0.7304 -0.4389
   33MOL   C60939073   5.001   6.839   1.201  0.0691  0.1997 -0.1253
   33MOL   C61039074   5.045   6.778   1.067  0.0935  0.6367 -0.3779
   33MOL   C61139075   5.182   6.714   1.062 -0.1231  0.6076 -0.1691
   33MOL   C61239076   5.188   6.605   0.957  1.0834  1.2832 -0.2578
   33MOL   O61339077   5.173   6.679   0.835  0.2194 -0.0161 -0.5649
   33MOL   C61439078   5.274   6.683   0.743 -0.2887  0.1655 -0.5848
   33MOL   O61539079   5.382   6.634   0.763  0.0240  0.0237  0.0856
   33MOL   C61639080   5.242   6.762   0.615  0.0385  0.2105 -0.3503
   33MOL   C61739081   5.364   6.790   0.524 -0.0444 -0.2620  0.0235
   33MOL   C61839082   5.477   6.874   0.584  0.6350  0.0762  0.8539
   33MOL   C61939083   5.590   6.902   0.494 -0.5823 -0.0898 -0.4636
   33MOL   C62039084   5.694   6.999   0.559  0.1415 -0.6219  0.3314
   33MOL   C62139085   5.828   7.031   0.480 -0.0803 -0.8271  0.2016
   33MOL   C62239086   5.913   7.130   0.553  0.5289  0.0520 -0.2360
   33MOL   C62339087   6.028   7.180   0.463 -0.2161 -0.1353 -0.3321
   33MOL   C62439088   6.132   7.256   0.535 -0.1664 -0.1714  0.7753
   33MOL   O62539089   6.158   7.374   0.521  0.0774  0.2165  0.1592
   33MOL   H62639090   5.018   6.413   1.669 -1.4091  1.3372 -1.4247
   33MOL   H62739091   4.864   6.467   1.733 -0.5076  2.1061  2.5323
   33MOL   H62839092   4.982   6.647   1.851  1.7355  2.1676 -1.1291
   33MOL   H62939093   5.134   6.588   1.818 -0.1323  0.6906  1.1651
   33MOL   H63039094   5.096   6.776   1.673  0.2235 -0.3620  0.4815
   33MOL   H63139095   5.122   6.639   1.565  1.9250 -2.0538  1.7275
   33MOL   H63239096   4.894   6.591   1.539  0.6603  0.6889  0.3809
   33MOL   H63339097   4.856   6.732   1.645 -1.3903 -1.3681  0.0032
   33MOL   H63439098   4.986   6.872   1.487 -0.1286  0.0971  1.7541
   33MOL   H63539099   4.834   6.837   1.447 -1.2504 -1.5281  3.7262
   33MOL   H63639100   4.913   6.659   1.286  1.1969  0.0481  0.8957
   33MOL   H63739101   5.081   6.695   1.331  0.6762  0.6415  2.4225
   33MOL   H63839102   5.069   6.921   1.224 -0.7329  0.8478 -0.0510
   33MOL   H63939103   4.903   6.876   1.172  0.5792  0.0480 -2.1202
   33MOL   H64039104   5.047   6.845   0.981  0.8311 -0.1568 -0.9792
   33MOL   H64139105   4.980   6.693   1.048  0.1644  0.4094  0.3595
   33MOL   H64239106   5.253   6.794   1.045  0.0507  0.2905 -0.9618
   33MOL   H64339107   5.210   6.660   1.153  2.0508  2.6068  0.3886
   33MOL   H64439108   5.281   6.551   0.970 -0.1164 -0.3387  1.8921
   33MOL   H64539109   5.106   6.535   0.970  0.3008  1.9595 -1.4990
   33MOL   H64639110   5.211   6.866   0.629  0.3683  0.3846 -0.9131
   33MOL   H64739111   5.163   6.717   0.555 -1.4803  0.4823  1.3779
   33MOL   H64839112   5.327   6.832   0.431 -0.8192 -1.4880 -0.2313
   33MOL   H64939113   5.401   6.691   0.501 -0.3372 -0.5508  0.7770
   33MOL   H65039114   5.525   6.823   0.668 -0.4745 -0.0575  1.4098
   33MOL   H65139115   5.437   6.971   0.612  1.8875  0.2651  2.0537
   33MOL   H65239116   5.541   6.930   0.401  0.4676 -1.0675 -1.3190
   33MOL   H65339117   5.639   6.809   0.465 -0.5397 -0.4794  0.8447
   33MOL   H65439118   5.650   7.094   0.590  2.0596  0.3083  0.2480
   33MOL   H65539119   5.719   6.961   0.659 -0.1060 -0.7620  0.3410
   33MOL   H65639120   5.885   6.939   0.469  1.6511  0.1156  1.1379
   33MOL   H65739121   5.790   7.081   0.391  1.9874 -0.2924 -0.4001
   33MOL   H65839122   5.939   7.078   0.645  1.3523 -1.4489 -1.2860
   33MOL   H65939123   5.855   7.221   0.566 -1.0776 -0.2626 -4.3334
   33MOL   H66039124   6.080   7.092   0.423 -0.0152 -0.2676  0.2183
   33MOL   H66139125   5.996   7.229   0.371 -2.7661 -2.5906 -0.7962
   33MOL   O66239126   6.195   7.176   0.620 -0.1379  0.0206 -0.0625
   33MOL   C66339127   6.299   7.219   0.704 -0.7219 -0.4270 -0.4025
   33MOL   C66439128   6.251   7.284   0.838  0.1020  0.0506 -0.0886
   33MOL   C66539129   6.374   7.299   0.931 -0.2590  0.1705 -0.1948
   33MOL   C66639130   6.331   7.342   1.073 -1.2652  0.1871 -0.6519
   33MOL   C66739131   6.435   7.314   1.185 -0.0048  0.3977  0.2937
   33MOL   C66839132   6.554   7.409   1.184  0.7226  0.4126  0.0248
   33MOL   C66939133   6.605   7.440   1.326 -0.1054 -0.1806 -0.2762
   33MOL   C67039134   6.705   7.558   1.319  0.2106  0.2234  0.5087
   33MOL   C67139135   6.741   7.624   1.454 -0.5766  0.2178 -0.0835
   33MOL   C67239136   6.860   7.724   1.429 -0.2041  0.8212 -0.1759
   33MOL   O67339137   6.978   7.634   1.420 -0.1460 -0.4603 -0.0082
   33MOL   C67439138   7.043   7.599   1.535  0.0078 -0.3419  0.6290
   33MOL   O67539139   7.006   7.639   1.644  0.2304 -0.1311  0.4917
   33MOL   C67639140   7.165   7.512   1.510 -0.3174  0.3413  0.0328
   33MOL   C67739141   7.139   7.367   1.560  0.3069 -0.3260  0.0335
   33MOL   C67839142   7.123   7.268   1.441 -0.4942 -0.0389  0.1011
   33MOL   C67939143   6.985   7.273   1.381 -0.0466  0.2767  0.0884
   33MOL   C68039144   6.979   7.180   1.256 -0.0423  0.1213  0.9034
   33MOL   C68139145   6.844   7.192   1.190  0.3219  0.2072 -0.0053
   33MOL   C68239146   6.823   7.106   1.065 -0.0177  0.2466 -0.2005
   33MOL   C68339147   6.937   7.110   0.952  0.3465  0.1286  0.7314
   33MOL   C68439148   6.904   7.051   0.820  0.1166  0.3345  0.6647
   33MOL   O68539149   6.939   6.936   0.789 -0.5673 -0.1793 -0.4005
   33MOL   H68639150   6.357   7.130   0.730 -0.2553 -0.2314 -0.7878
   33MOL   H68739151   6.360   7.290   0.649 -0.7596  0.6112  0.8700
   33MOL   H68839152   6.211   7.382   0.816 -0.4872 -0.2191 -0.2199
   33MOL   H68939153   6.178   7.216   0.882  0.8074 -1.7459 -1.6006
   33MOL   H69039154   6.417   7.198   0.932 -2.3811 -0.7607  0.6874
   33MOL   H69139155   6.449   7.367   0.892  0.2672 -1.3361 -1.8831
   33MOL   H69239156   6.306   7.448   1.077  0.4576  0.5834  0.4362
   33MOL   H69339157   6.246   7.282   1.108 -1.4831  0.0754 -1.3670
   33MOL   H69439158   6.458   7.208   1.174  0.3355  0.5546 -0.5140
   33MOL   H69539159   6.380   7.325   1.278 -1.9995  0.0531 -0.8159
   33MOL   H69639160   6.530   7.500   1.128 -0.4496 -1.4943 -2.6544
   33MOL   H69739161   6.639   7.356   1.142 -0.0469  2.4164 -4.2895
   33MOL   H69839162   6.650   7.348   1.365 -0.0365 -0.0700 -0.0975
   33MOL   H69939163   6.519   7.464   1.389  0.0885 -1.7008  0.5852
   33MOL   H70039164   6.666   7.634   1.251  0.2259 -0.6122 -0.4352
   33MOL   H70139165   6.797   7.532   1.268 -0.8537  1.0402 -1.8826
   33MOL   H70239166   6.645   7.664   1.485 -0.4523  1.0734 -0.8016
   33MOL   H70339167   6.772   7.548   1.527  3.2720  0.7035 -1.1091
   33MOL   H70439168   6.845   0.024   1.337 -0.3022 -0.6946 -1.1083
   33MOL   H70539169   6.881   0.041   1.507 -2.9759 -1.1635  2.5630
   33MOL   H70639170   7.244   7.554   1.573 -1.1825  1.3037  0.5052
   33MOL   H70739171   7.185   7.521   1.404  1.4479  0.9547  0.3948
   33MOL   H70839172   7.066   7.360   1.640  1.7808  0.9040  1.5263
   33MOL   H70939173   7.229   7.334   1.613  1.2192 -1.1534 -1.9864
   33MOL   H71039174   7.134   7.167   1.479 -1.8777 -0.7852 -1.4260
   33MOL   H71139175   7.199   7.275   1.362 -1.8002 -1.7120 -1.3395
   33MOL   H71239176   6.966   7.376   1.350  0.0317 -0.3935 -2.3077
   33MOL   H71339177   6.905   7.249   1.451 -0.0397  0.4832  0.1675
   33MOL   H71439178   7.050   7.209   1.178 -1.5817  1.6042  0.0423
   33MOL   H71539179   6.995   7.076   1.283  1.1223  0.7928  2.8546
   33MOL   H71639180   6.768   7.166   1.263  0.8933  1.1260  0.9176
   33MOL   H71739181   6.827   7.296   1.161 -0.6344  0.1864  0.4566
   33MOL   H71839182   6.731   7.128   1.009 -1.0729  0.5641  1.6365
   33MOL   H71939183   6.815   7.007   1.109  2.2809  0.3487  0.4610
   33MOL   H72039184   6.957   7.215   0.932  1.0078 -0.0368  0.5163
   33MOL   H72139185   7.027   7.066   0.994  1.4077 -1.3551 -2.9073
   33MOL   O72239186   6.814   7.122   0.749  0.1592  0.3302 -0.2981
   33MOL   C72339187   6.755   7.078   0.622 -0.4761 -0.4574  0.2978
   33MOL   C72439188   6.683   7.187   0.558  0.2477  0.3167  0.3092
   33MOL   C72539189   6.765   7.319   0.532 -0.9442 -0.0897  0.1502
   33MOL   C72639190   6.694   7.438   0.470  0.1355  0.6900  0.1003
   33MOL   C72739191   6.792   7.551   0.427  0.2931  0.4593 -0.6234
   33MOL   C72839192   6.719   7.678   0.384 -0.3323 -0.4481  0.0488
   33MOL   C72939193   6.815   0.034   0.347 -0.5370 -0.3444  0.3247
   33MOL   C73039194   6.864   0.122   0.465  0.4512 -0.0967 -0.5755
   33MOL   C73139195   7.001   0.066   0.519 -0.2928 -0.7476 -0.5414
   33MOL   C73239196   7.059   0.147   0.633 -0.1716  0.0684 -0.3267
   33MOL   O73339197   7.083   0.283   0.599 -0.9632 -0.0919  0.0824
   33MOL   C73439198   7.190   0.317   0.530  0.2691 -0.0572  0.3691
   33MOL   O73539199   7.260   0.242   0.465  0.0638 -0.1522  0.4301
   33MOL   C73639200   7.222   0.466   0.551  0.7123 -0.5618  0.3220
   33MOL   C73739201   7.309   0.520   0.437  0.2004 -0.2758  0.2718
   33MOL   C73839202   7.223   0.520   0.304 -0.1762  0.0663  0.8091
   33MOL   C73939203   7.279   0.593   0.184 -0.4577 -0.0009 -0.9945
   33MOL   C74039204   7.304   0.739   0.207  0.2865 -0.0815  1.4086
   33MOL   C74139205   7.332   0.811   0.073 -0.0130  0.3334 -0.5106
   33MOL   C74239206   7.316   0.962   0.092  0.5238 -0.2709 -0.0505
   33MOL   C74339207   7.337   1.045   7.726  0.3744  0.8048  0.3842
   33MOL   C74439208   7.477   1.039   7.670  0.5170 -0.1476 -0.6827
   33MOL   O74539209   7.493   0.985   7.562 -0.5140  0.2315 -0.0080
   33MOL   H74639210   6.836   7.053   0.553  0.3789  2.9635 -0.0254
   33MOL   H74739211   6.694   6.988   0.630 -2.1848  0.6364 -0.2005
   33MOL   H74839212   6.654   7.154   0.458  0.9189  2.6164 -0.6652
   33MOL   H74939213   6.594   7.215   0.615  1.8105  4.1204  0.9958
   33MOL   H75039214   6.817   7.350   0.623  1.7647  0.0598 -1.3931
   33MOL   H75139215   6.855   7.284   0.480 -0.1714  0.8674  0.8270
   33MOL   H75239216   6.639   7.400   0.384  1.3256 -0.0208 -0.3700
   33MOL   H75339217   6.623   7.490   0.534 -0.5403 -0.7558  0.5473
   33MOL   H75439218   6.860   7.522   0.347  1.3938 -1.6178  0.9942
   33MOL   H75539219   6.863   7.581   0.505  2.0916  1.5421 -2.6170
   33MOL   H75639220   6.649   7.711   0.461  1.2394  1.8958  0.5308
   33MOL   H75739221   6.658   7.653   0.297 -0.6108 -0.5746  0.2806
   33MOL   H75839222   6.754   0.106   0.291  0.1953 -1.5694 -2.1316
   33MOL   H75939223   6.894   7.756   0.280 -1.7499  1.7980 -2.3399
   33MOL   H76039224   6.791   0.129   0.545  1.8371  3.2214  0.4897
   33MOL   H76139225   6.882   0.228   0.446 -0.2302  0.3911  1.3614
   33MOL   H76239226   7.006   7.722   0.561 -0.1267  0.2947  2.0213
   33MOL   H76339227   7.074   0.057   0.438  0.8803  0.6497  0.3412
   33MOL   H76439228   6.991   0.136   0.718 -1.8998  0.7211 -1.5915
   33MOL   H76539229   7.156   0.108   0.666 -0.0040  0.1424 -0.7322
   33MOL   H76639230   7.270   0.466   0.649 -0.4074 -3.2358  0.9064
   33MOL   H76739231   7.132   0.524   0.567  0.1400 -1.7593  1.4983
   33MOL   H76839232   7.399   0.458   0.434  0.7556  0.3920  2.2080
   33MOL   H76939233   7.328   0.626   0.455  2.6839 -0.6539  0.1293
   33MOL   H77039234   7.122   0.560   0.313  0.0158  0.8677 -0.4136
   33MOL   H77139235   7.209   0.420   0.264  0.2136 -0.3377  1.6812
   33MOL   H77239236   7.211   0.570   0.102  0.9539 -2.4668 -1.5331
   33MOL   H77339237   7.373   0.542   0.162  1.2601  3.2165 -1.3575
   33MOL   H77439238   7.216   0.788   0.248 -0.5762 -0.9992  0.6827
   33MOL   H77539239   7.386   0.765   0.274  1.8848 -0.4546 -0.3712
   33MOL   H77639240   7.431   0.777   0.043  0.8811  2.2283  0.1796
   33MOL   H77739241   7.256   0.777   0.003  0.7392 -0.8145 -0.7924
   33MOL   H77839242   7.384   0.995   0.171  0.0152 -0.4094  0.4507
   33MOL   H77939243   7.214   0.970   0.128  0.8570  1.3391  0.6143
   33MOL   H78039244   7.268   1.012   7.649 -0.5747 -0.3936  1.7252
   33MOL   H78139245   7.328   1.152   7.747 -1.1591  0.6224  0.7192
   33MOL   O78239246   7.570   1.107   7.747  0.4378 -0.3223  0.2269
   33MOL   C78339247   7.707   1.083   7.716 -1.1156 -0.2192  0.1682
   33MOL   C78439248   0.023   1.000   0.067 -0.5030  0.2554 -0.2827
   33MOL   C78539249   0.015   1.068   0.205  0.6134 -0.0327 -0.0200
   33MOL   C78639250   0.113   1.001   0.317 -0.1317  0.2056 -0.1044
   33MOL   C78739251   0.121   1.090   0.442 -0.3304 -0.0611 -0.7364
   33MOL   C78839252   0.226   1.034   0.539  0.1819 -0.3194 -0.5449
   33MOL   C78939253   0.213   1.073   0.687  0.2596 -0.9999  0.1203
   33MOL   C79039254   0.338   1.055   0.781  0.0309 -0.6736 -0.0781
   33MOL   C79139255   0.369   0.909   0.799  0.5738  0.1113  0.1531
   33MOL   C79239256   0.492   0.883   0.892 -0.0044  0.2904  0.3107
   33MOL   O79339257   0.508   0.746   0.916  0.2964 -0.3711 -0.0385
   33MOL   C79439258   0.628   0.701   0.973 -0.1617 -0.2955  0.5664
   33MOL   O79539259   0.732   0.763   0.996 -0.0092 -0.6921  0.4017
   33MOL   C79639260   0.623   0.551   1.002 -0.3719 -0.6412  0.4447
   33MOL   C79739261   0.525   0.494   1.110 -0.0563 -0.1613  0.5038
   33MOL   C79839262   0.387   0.557   1.116  0.0182  0.1641 -0.1059
   33MOL   C79939263   0.313   0.499   1.234 -0.4002  0.0337 -0.0086
   33MOL   C80039264   0.176   0.545   1.260 -0.0512 -0.6354  0.4647
   33MOL   C80139265   0.073   0.543   1.147 -0.1132 -0.0359 -0.0228
   33MOL   C80239266   7.689   0.560   1.190 -0.0577 -0.0402  0.4390
   33MOL   C80339267   7.653   0.706   1.212  0.0420 -0.1670 -0.2399
   33MOL   C80439268   7.646   0.795   1.088  0.1278  0.6783 -0.0958
   33MOL   O80539269   7.735   0.812   1.007  0.0452  0.0280 -0.0009
   33MOL   H80639270   7.725   1.055   7.612 -0.9086  1.1827 -0.1966
   33MOL   H80739271   7.753   1.182   7.725  1.5634 -1.4378  0.2684
   33MOL   H80839272   7.740   0.899   0.083  0.4465 -0.2064 -0.7941
   33MOL   H80939273   0.127   0.981   0.042  0.0531  0.7234  1.6109
   33MOL   H81039274   0.047   1.173   0.197 -1.4240  0.6158  0.1797
   33MOL   H81139275   7.672   1.066   0.247 -0.6597 -0.3582 -2.9331
   33MOL   H81239276   0.093   0.897   0.343 -1.0919  0.4739  0.2213
   33MOL   H81339277   0.214   1.005   0.274  0.7500 -0.7604  1.8453
   33MOL   H81439278   0.021   1.078   0.485  0.4527 -0.0576  1.1015
   33MOL   H81539279   0.144   1.192   0.413 -0.9108 -0.1415 -1.5362
   33MOL   H81639280   0.327   1.040   0.499 -0.0324 -0.9091 -1.1954
   33MOL   H81739281   0.202   0.928   0.546  1.0626 -0.4452  0.6593
   33MOL   H81839282   0.137   1.007   0.730 -1.6009  1.5006  0.7860
   33MOL   H81939283   0.186   1.178   0.696  0.8743 -1.0396  3.0431
   33MOL   H82039284   0.322   1.085   0.885  1.9952 -1.4215  0.4796
   33MOL   H82139285   0.422   1.116   0.749 -0.0799 -0.2250  0.4745
   33MOL   H82239286   0.284   0.870   0.855  0.8329  1.1231  1.2740
   33MOL   H82339287   0.385   0.849   0.709  0.5664  0.0315  0.2051
   33MOL   H82439288   0.580   0.927   0.846  1.5638 -1.7764  1.2447
   33MOL   H82539289   0.465   0.935   0.984  1.0149 -0.7668  1.2152
   33MOL   H82639290   0.723   0.518   1.031  0.1130  0.1095 -0.3602
   33MOL   H82739291   0.601   0.505   0.905  0.4371  0.0769 -0.0866
   33MOL   H82839292   0.571   0.506   1.208 -1.6152  1.5173  1.0703
   33MOL   H82939293   0.508   0.389   1.087 -1.9085  0.2533 -0.1544
   33MOL   H83039294   0.342   0.534   1.019  0.4194  1.7524 -0.6977
   33MOL   H83139295   0.400   0.663   1.139 -1.0532 -0.1160  1.8859
   33MOL   H83239296   0.376   0.500   1.323  0.9972 -2.0326 -0.9300
   33MOL   H83339297   0.306   0.391   1.222  1.8021  0.0819 -1.9155
   33MOL   H83439298   0.128   0.484   1.337 -0.7664 -2.8061 -1.6421
   33MOL   H83539299   0.172   0.652   1.281  0.0075 -0.4406 -0.5058
   33MOL   H83639300   0.098   0.605   1.061  3.0089 -0.3665  0.5644
   33MOL   H83739301   0.090   0.442   1.110 -0.0518  0.3845 -1.1328
   33MOL   H83839302   7.687   0.517   1.290  0.9127 -1.3565 -0.0855
   33MOL   H83939303   7.621   0.507   1.122  1.2616  1.3077 -1.9856
   33MOL   H84039304   7.555   0.718   1.260 -0.8964  0.9233 -2.3741
   33MOL   H84139305   7.731   0.735   1.281 -0.5095  0.9842 -0.0921
   33MOL   O84239306   7.530   0.857   1.086  0.8428 -0.0890  0.2429
   33MOL   C84339307   7.493   0.947   0.982  0.5060 -0.0360 -0.0671
   33MOL   C84439308   7.560   1.089   1.000  1.1760 -0.0210 -0.2660
   33MOL   C84539309   7.558   1.178   0.871  0.7682  0.4042  0.3206
   33MOL   C84639310   7.636   1.313   0.888 -0.3446  0.7151 -0.3149
   33MOL   C84739311   7.636   1.398   0.756  0.0766 -0.7455 -0.7442
   33MOL   C84839312   7.727   1.350   0.646 -0.1138 -0.6240 -0.2544
   33MOL   C84939313   7.729   1.427   0.511  0.1148 -0.4053  0.8668
   33MOL   C85039314   7.594   1.391   0.441 -0.1132 -1.1732  0.1389
   33MOL   C85139315   7.578   1.445   0.297 -0.1810  0.0235 -0.5110
   33MOL   C85239316   7.450   1.391   0.225  0.3246 -0.4114  0.4576
   33MOL   O85339317   7.329   1.437   0.274 -0.5061 -0.3784 -0.1102
   33MOL   C85439318   7.261   1.347   0.351  0.0149 -0.1733  0.3588
   33MOL   O85539319   7.290   1.227   0.368  0.1562 -0.2773 -0.1360
   33MOL   C85639320   7.133   1.404   0.412 -0.7549  0.4822  0.1432
   33MOL   C85739321   7.008   1.361   0.329 -0.7109  0.1750  0.1738
   33MOL   C85839322   6.879   1.389   0.411  0.1125 -0.2289 -0.2768
   33MOL   C85939323   6.756   1.366   0.313  0.0801  0.2516 -0.3355
   33MOL   C86039324   6.617   1.430   0.347  0.3699  0.0454 -0.5273
   33MOL   C86139325   6.588   1.557   0.271  0.1985 -0.1866  0.2046
   33MOL   C86239326   6.674   1.676   0.325 -0.0850  0.5950  0.1964
   33MOL   C86339327   6.608   1.821   0.315 -0.3412 -0.1314 -0.0827
   33MOL   C86439328   6.518   1.860   0.428  0.0580  0.2822 -0.9894
   33MOL   O86539329   6.522   1.977   0.477  0.1608  0.0122 -0.2276
   33MOL   H86639330   7.510   0.900   0.884  2.1693 -0.0851  0.2354
   33MOL   H86739331   7.384   0.954   0.986  0.5187  0.8944 -1.1826
   33MOL   H86839332   7.501   1.134   1.080  1.0553 -4.4223  2.2235
   33MOL   H86939333   7.664   1.074   1.028  0.7888 -1.3986  0.4800
   33MOL   H87039334   7.609   1.129   0.787  0.4127  1.3306 -0.4427
   33MOL   H87139335   7.456   1.202   0.840  1.3443  1.2394 -0.9789
   33MOL   H87239336   7.579   1.370   0.962 -1.6183  0.2731 -0.9295
   33MOL   H87339337   7.739   1.311   0.922  0.0406  0.6110 -1.4743
   33MOL   H87439338   7.659   1.502   0.783 -0.3777 -0.9548  0.4561
   33MOL   H87539339   7.535   1.409   0.717  0.0173 -0.8396 -0.6167
   33MOL   H87639340   7.694   1.246   0.638 -0.5341 -0.5259  0.1949
   33MOL   H87739341   0.072   1.343   0.685  0.0312 -1.2307 -0.7281
   33MOL   H87839342   0.051   1.393   0.444  0.4903  1.8614  0.1210
   33MOL   H87939343   7.740   1.535   0.523 -1.5591 -0.0972 -0.3202
   33MOL   H88039344   7.510   1.428   0.499  0.8464 -0.3760  1.0451
   33MOL   H88139345   7.597   1.283   0.437  1.1429 -1.0955 -1.4651
   33MOL   H88239346   7.583   1.553   0.308  0.5160 -0.1596  1.0595
   33MOL   H88339347   7.670   1.419   0.245  1.9219 -2.1199  4.0270
   33MOL   H88439348   7.446   1.424   0.121  4.3427 -1.0381  0.0383
   33MOL   H88539349   7.444   1.283   0.209  0.8033 -0.7646  2.4960
   33MOL   H88639350   7.138   1.513   0.416  1.4176  0.4234 -0.4524
   33MOL   H88739351   7.124   1.368   0.514  0.8296  2.8168  1.1548
   33MOL   H88839352   6.998   1.255   0.302  2.4417 -0.2549  0.5554
   33MOL   H88939353   7.018   1.427   0.243 -0.4777  0.1399  0.1745
   33MOL   H89039354   6.885   1.485   0.461  1.1862  0.8638 -2.4538
   33MOL   H89139355   6.874   1.319   0.495 -1.9546 -1.5788 -1.4831
   33MOL   H89239356   6.744   1.258   0.316 -1.5436  0.3985 -1.2395
   33MOL   H89339357   6.780   1.387   0.209 -1.5991  0.6664 -0.6457
   33MOL   H89439358   6.537   1.365   0.312  1.1974 -1.7588  0.8507
   33MOL   H89539359   6.605   1.436   0.455 -0.9255  1.4435 -0.7262
   33MOL   H89639360   6.607   1.545   0.165 -1.6683 -0.4766 -0.1168
   33MOL   H89739361   6.482   1.581   0.280 -0.3524 -2.5237  0.1934
   33MOL   H89839362   6.774   1.683   0.282  0.6412  0.0970  1.7418
   33MOL   H89939363   6.705   1.657   0.428  2.2434  1.1982 -0.3655
   33MOL   H90039364   6.679   1.903   0.325 -0.5360 -0.0604  0.7623
   33MOL   H90139365   6.543   1.827   0.228 -0.1518  2.5083 -0.0596
   33MOL   O90239366   6.416   1.766   0.440  0.4197 -0.0012 -0.1550
   33MOL   C90339367   6.319   1.797   0.534  0.2757  0.0293 -0.3971
   33MOL   C90439368   6.204   1.694   0.524  0.4722 -1.0118 -0.4222
   33MOL   C90539369   6.255   1.553   0.536  0.1332 -0.6586  0.2369
   33MOL   C90639370   6.144   1.457   0.536  0.9015 -0.2428  0.1957
   33MOL   C90739371   6.197   1.313   0.527 -0.2516 -0.2886 -0.1426
   33MOL   C90839372   6.103   1.197   0.550 -0.1077 -0.1217  0.2430
   33MOL   C90939373   6.174   1.060   0.550 -0.0239 -0.7143 -0.3434
   33MOL   C91039374   6.078   0.941   0.557  0.3727 -0.1625 -0.3140
   33MOL   C91139375   6.034   0.886   0.412  0.6056  0.1389  0.1036
   33MOL   C91239376   5.939   0.768   0.425 -0.1222 -0.5098  0.0103
   33MOL   O91339377   5.918   0.716   0.295 -0.4477  0.8233 -0.5227
   33MOL   C91439378   5.798   0.647   0.265 -0.4231  0.1292  0.1247
   33MOL   O91539379   5.704   0.628   0.341  0.1813 -0.0129 -0.3934
   33MOL   C91639380   5.812   0.568   0.132 -0.4519 -0.4785 -0.4055
   33MOL   C91739381   5.829   0.648   0.007  0.7653 -0.7440 -0.4263
   33MOL   C91839382   5.695   0.694   7.708  0.5573 -0.4995  0.0559
   33MOL   C91939383   5.706   0.772   7.579 -0.3757  0.1352  1.0917
   33MOL   C92039384   5.584   0.845   7.539 -0.0524 -0.0462  1.5540
   33MOL   C92139385   5.611   0.921   7.410 -0.3470  0.3647 -0.8409
   33MOL   C92239386   5.489   0.982   7.353 -0.2622  0.5496  0.1798
   33MOL   C92339387   5.520   1.054   7.224 -0.3619  0.0968 -0.2946
   33MOL   C92439388   5.410   1.145   7.163  0.6494  1.0331  0.6545
   33MOL   O92539389   5.404   1.156   7.040  0.3449 -0.7276 -0.0852
   33MOL   H92639390   6.349   1.803   0.639  0.3748  0.1298 -0.4316
   33MOL   H92739391   6.276   1.894   0.511 -0.7861 -0.7270 -1.6902
   33MOL   H92839392   6.127   1.713   0.598  2.3684  1.8808  0.9109
   33MOL   H92939393   6.151   1.706   0.429 -0.9330 -0.3060  0.4343
   33MOL   H93039394   6.320   1.538   0.451  0.0592 -0.5409  0.1587
   33MOL   H93139395   6.322   1.536   0.620 -1.9771 -0.7559  1.9459
   33MOL   H93239396   6.083   1.469   0.625  2.0525 -1.3535  1.1600
   33MOL   H93339397   6.087   1.467   0.444  1.1246  2.3202  0.3124
   33MOL   H93439398   6.272   1.317   0.606  2.3812  1.3537 -2.6256
   33MOL   H93539399   6.253   1.296   0.435 -1.2961 -0.2978 -0.7918
   33MOL   H93639400   6.015   1.199   0.485  0.1302 -0.4039 -0.0909
   33MOL   H93739401   6.049   1.199   0.644  0.9118 -0.5924  0.8409
   33MOL   H93839402   6.226   1.062   0.645 -2.6778 -0.9333  1.1479
   33MOL   H93939403   6.248   1.041   0.472  1.2080  1.0483  0.3735
   33MOL   H94039404   5.990   0.956   0.619  1.9618 -0.3704  2.0487
   33MOL   H94139405   6.136   0.866   0.610  1.4629 -0.0572 -1.3255
   33MOL   H94239406   6.005   0.975   0.357 -2.4201 -0.0559  1.3039
   33MOL   H94339407   6.122   0.835   0.371  0.6458 -0.1789  0.5796
   33MOL   H94439408   5.961   0.685   0.492  1.1704  1.2873  1.8895
   33MOL   H94539409   5.846   0.811   0.463  1.8917  1.9646  2.4191
   33MOL   H94639410   5.739   0.487   0.133  0.9399 -1.8630 -3.5765
   33MOL   H94739411   5.905   0.512   0.144 -0.0559  0.4375  1.0072
   33MOL   H94839412   5.886   0.593   7.689  1.6044 -2.2404  1.2787
   33MOL   H94939413   5.888   0.737   0.024 -0.5989  0.3853 -1.4031
   33MOL   H95039414   5.639   0.753   0.024 -1.3486  0.1201 -1.8585
   33MOL   H95139415   5.637   0.605   7.684 -1.5126  1.0949 -0.9568
   33MOL   H95239416   5.740   0.706   7.499  0.2478  0.8336  0.7762
   33MOL   H95339417   5.782   0.849   7.594 -0.6561  0.4758  0.7856
   33MOL   H95439418   5.501   0.779   7.515 -0.4685  0.1934  2.2914
   33MOL   H95539419   5.545   0.914   7.615 -1.5556  0.5372  0.2884
   33MOL   H95639420   5.687   0.996   7.429  1.1888 -0.8329 -2.1087
   33MOL   H95739421   5.656   0.849   7.341 -0.4964  0.1941 -0.7617
   33MOL   H95839422   5.432   1.047   7.420  0.1968  0.8881  0.2428
   33MOL   H95939423   5.419   0.898   7.349  0.8413 -0.3376 -0.6663
   33MOL   H96039424   5.594   1.131   7.244 -1.0367  1.0152 -1.2908
   33MOL   H96139425   5.560   0.981   7.154 -0.5649  0.2782 -0.6002
   33MOL   O96239426   5.329   1.216   7.251 -0.2892  0.0293  0.0800
   33MOL   C96339427   5.229   1.296   7.197  0.4587 -0.5011  0.0655
   33MOL   C96439428   5.176   1.382   7.310 -0.1114  0.3970  0.4904
   33MOL   C96539429   5.104   1.302   7.421  0.2568  0.0113  0.4778
   33MOL   C96639430   4.951   1.274   7.407  0.3853 -0.3310  0.3688
   33MOL   C96739431   4.901   1.242   7.262  0.1134 -0.4646 -0.3753
   33MOL   C96839432   4.748   1.241   7.254 -0.3997 -0.2325 -0.4599
   33MOL   C96939433   4.687   1.109   7.307 -0.3774  0.4561 -0.0055
   33MOL   C97039434   4.546   1.123   7.378 -0.1552 -0.1011  1.0005
   33MOL   C97139435   4.536   1.032   7.494 -0.3133  0.2668 -0.7882
   33MOL   C97239436   4.394   1.003   7.532 -0.0424 -0.3535 -0.1071
   33MOL   O97339437   4.379   0.897   7.625  0.3933  0.3123 -1.0373
   33MOL   C97439438   4.257   0.887   7.681 -0.1704  0.3934  0.0202
   33MOL   O97539439   4.167   0.966   7.662 -0.2364  0.6721 -0.2582
   33MOL   C97639440   4.241   0.774   0.016 -0.7007  0.2449  0.2121
   33MOL   C97739441   4.091   0.749   0.046  0.5394 -0.5023 -0.3486
   33MOL   C97839442   4.078   0.645   0.160  0.2115  0.2956  0.2070
   33MOL   C97939443   3.932   0.600   0.186 -0.2303 -0.2952 -0.4871
   33MOL   C98039444   3.920   0.500   0.309 -0.5044  0.0297  0.0735
   33MOL   C98139445   3.772   0.469   0.344 -0.3693 -0.0989  0.5238
   33MOL   C98239446   3.757   0.417   0.484 -0.2696  0.3627  0.1188
   33MOL   C98339447   3.615   0.370   0.525 -0.1236  1.0487  0.1550
   33MOL   C98439448   3.562   0.246   0.452  0.3043 -0.1301 -0.2318
   33MOL   O98539449   3.624   0.184   0.359 -0.1182 -0.7637 -0.3122
   33MOL   H98639450   5.253   1.363   7.115  0.9513  1.3053  1.6270
   33MOL   H98739451   5.157   1.221   7.165  0.7649 -1.4109  1.4440
   33MOL   H98839452   5.254   1.441   7.358 -0.2766  2.5253 -1.7414
   33MOL   H98939453   5.110   1.459   7.268  2.6302  1.1599 -2.6689
   33MOL   H99039454   5.155   1.207   7.437  1.8730  0.4138 -2.0394
   33MOL   H99139455   5.117   1.351   7.517  1.5734 -0.9257  0.8049
   33MOL   H99239456   4.909   1.190   7.463  1.5137 -0.6028  0.8257
   33MOL   H99339457   4.896   1.362   7.440  0.9400 -0.5718  1.9906
   33MOL   H99439458   4.950   1.150   7.230 -0.1035  0.0715 -2.2793
   33MOL   H99539459   4.929   1.315   7.187 -0.9995  0.5462  0.1691
   33MOL   H99639460   4.716   1.248   7.150 -2.6523 -0.7234  0.1751
   33MOL   H99739461   4.692   1.317   7.308 -0.8478 -1.2376  0.5122
   33MOL   H99839462   4.759   1.072   7.381  0.0780 -0.9507 -1.1308
   33MOL   H99939463   4.677   1.032   7.231 -1.6051  0.4170  0.1942
   33MOL     H139464   4.465   1.101   7.309  0.6135 -0.1270  0.0863
   33MOL     H239465   4.528   1.223   7.416  0.2634 -0.6683  2.7860
   33MOL     H339466   4.574   0.931   7.479 -2.5473 -0.6743 -0.2907
   33MOL     H439467   4.582   1.076   7.583 -0.9626 -0.4236 -0.1055
   33MOL     H539468   4.331   1.085   7.567  0.1988  0.6360 -1.9221
   33MOL     H639469   4.334   0.968   7.448 -0.1638 -1.4919  0.4466
   33MOL     H739470   4.313   0.777   0.097  1.5331  0.1791 -1.7041
   33MOL     H839471   4.275   0.685   7.719 -0.8674  0.1985  0.1830
   33MOL     H939472   4.041   0.714   7.713  0.6048 -0.2566 -0.4802
   33MOL    H1039473   4.040   0.842   0.072  0.2171 -0.8510  0.2964
   33MOL    H1139474   4.114   0.682   0.256  2.4417 -2.3608  0.4849
   33MOL    H1239475   4.136   0.555   0.140 -1.4693 -0.8930  0.5968
   33MOL    H1339476   3.887   0.556   0.097  0.7481  2.2500 -2.2976
   33MOL    H1439477   3.875   0.687   0.218 -0.4309 -0.8605  0.6903
   33MOL    H1539478   3.984   0.414   0.289  0.5818  0.7473  0.4198
   33MOL    H1639479   3.968   0.549   0.393  0.9203 -1.6532  0.2725
   33MOL    H1739480   3.717   0.563   0.350 -0.2468  0.1323 -1.5242
   33MOL    H1839481   3.725   0.410   0.265  0.4846  0.7076 -0.6165
   33MOL    H1939482   3.777   0.504   0.547 -0.0072  0.2778  0.1516
   33MOL    H2039483   3.828   0.340   0.513 -1.3979  0.2109  2.6392
   33MOL    H2139484   3.612   0.354   0.633 -0.9367 -0.8400 -0.1187
   33MOL    H2239485   3.543   0.450   0.507 -0.8533  0.4862  0.5326
   33MOL    O2339486   3.440   0.209   0.510 -0.0096  0.4985 -0.3968
   33MOL    C2439487   3.360   0.109   0.461  0.3066 -0.2261  0.0293
   33MOL    C2539488   3.285   0.174   0.338 -0.1712  0.2540  0.1121
   33MOL    C2639489   3.190   0.289   0.371  0.1192  0.1366  0.4448
   33MOL    C2739490   3.074   0.299   0.280  0.2125 -0.0906  0.6761
   33MOL    C2839491   2.962   0.386   0.332 -0.0861  0.7386 -0.1300
   33MOL    C2939492   2.883   0.442   0.215 -0.0574 -0.0414 -0.1340
   33MOL    C3039493   2.763   0.535   0.255  0.0861  0.0175  0.1727
   33MOL    C3139494   2.743   0.662   0.169 -0.3885  0.5823  0.0866
   33MOL    C3239495   2.679   0.781   0.231 -0.4990  0.3498  0.6416
   33MOL    C3339496   2.647   0.899   0.133 -0.0814 -0.4531  0.2486
   33MOL    O3439497   2.601   1.003   0.221  0.3682  0.1976 -0.1866
   33MOL    C3539498   2.473   1.012   0.248  0.1431  0.6618 -0.6507
   33MOL    O3639499   2.381   0.951   0.190  0.6108  0.0936  0.4342
   33MOL    C3739500   2.451   1.096   0.367  0.2620 -0.3637 -0.0272
   33MOL    C3839501   2.317   1.175   0.365  0.3785  0.1219 -0.4731
   33MOL    C3939502   2.292   1.265   0.244 -0.0363  0.3287 -0.1424
   33MOL    C4039503   2.375   1.393   0.258  0.6487  0.2881 -0.2907
   33MOL    C4139504   2.335   1.501   0.164  0.5760  0.5037  0.6420
   33MOL    C4239505   2.293   1.463   0.017 -0.0323  0.5468 -0.8242
   33MOL    C4339506   2.408   1.402   7.695 -0.2021 -0.3421 -0.1378
   33MOL    C4439507   2.402   1.434   7.544  0.1017 -0.4350 -0.3761
   33MOL    C4539508   2.292   1.370   7.466  1.5110  0.7840  0.5189
   33MOL    O4639509   2.303   1.272   7.390 -0.1867 -0.2782 -0.3937
   33MOL    H4739510   3.419   0.023   0.428  1.2649  0.4539 -0.0528
   33MOL    H4839511   3.287   0.071   0.533 -0.8164  0.5796 -0.6641
   33MOL    H4939512   3.352   0.199   0.256  0.4865 -2.3005 -0.1929
   33MOL    H5039513   3.222   0.092   0.302  0.3468 -0.3674  0.5930
   33MOL    H5139514   3.154   0.275   0.473  1.0751 -1.8800  0.5332
   33MOL    H5239515   3.232   0.390   0.371 -1.7377  0.9496  2.0319
   33MOL    H5339516   3.117   0.347   0.192 -1.9869 -3.9928 -2.7448
   33MOL    H5439517   3.039   0.208   0.231 -1.2049 -0.0146  1.5254
   33MOL    H5539518   3.003   0.460   0.400  0.3593  0.1671  0.2253
   33MOL    H5639519   2.895   0.325   0.393  2.1525 -2.4221 -0.7331
   33MOL    H5739520   2.857   0.360   0.149  0.8758 -0.9533  0.5922
   33MOL    H5839521   2.949   0.495   0.147  1.4193 -2.0203 -0.3030
   33MOL    H5939522   2.756   0.556   0.362 -0.3852  1.1511 -0.0720
   33MOL    H6039523   2.672   0.477   0.241 -0.5288  0.9215  0.3854
   33MOL    H6139524   2.678   0.646   0.083  0.4118  1.4718 -0.6974
   33MOL    H6239525   2.839   0.682   0.121  1.4901  1.0128  3.8784
   33MOL    H6339526   2.586   0.737   0.267 -0.2836  0.2634  1.0834
   33MOL    H6439527   2.729   0.809   0.323 -1.4003  2.3112  0.5540
   33MOL    H6539528   2.747   0.924   0.095 -0.4930  1.3805  0.2963
   33MOL    H6639529   2.582   0.875   0.049 -1.4105 -0.9112  1.4077
   33MOL    H6739530   2.532   1.169   0.378  0.3195 -0.4975  0.4603
   33MOL    H6839531   2.455   1.025   0.450 -1.0750  0.3189  0.6306
   33MOL    H6939532   2.303   1.232   0.456 -2.8698  1.1982 -1.5822
   33MOL    H7039533   2.238   1.100   0.362  2.1422 -1.8115  0.1463
   33MOL    H7139534   2.187   1.289   0.231  0.4585  2.1811 -0.9077
   33MOL    H7239535   2.316   1.217   0.149  2.0055 -1.3449  1.1530
   33MOL    H7339536   2.482   1.375   0.241  1.1290  0.5606  2.2299
   33MOL    H7439537   2.364   1.446   0.353  0.1094 -1.0633  0.4183
   33MOL    H7539538   2.246   1.551   0.203 -0.4457 -1.1376  0.4507
   33MOL    H7639539   2.405   1.584   0.153 -1.2452  2.0945  0.6487
   33MOL    H7739540   2.203   1.401   0.016  0.9152 -0.9346  1.3785
   33MOL    H7839541   2.275   1.554   7.717  3.6679  0.0856 -2.9365
   33MOL    H7939542   2.397   1.294   7.706 -3.0119  0.0398  1.2777
   33MOL    H8039543   2.504   1.434   7.736 -1.0281  1.0122  0.7834
   33MOL    H8139544   2.400   1.542   7.527 -1.4209 -0.5556 -1.0880
   33MOL    H8239545   2.495   1.417   7.490 -1.1020 -3.0670 -1.7141
   33MOL    O8339546   2.182   1.433   7.492  0.8538  0.3567  0.0435
   33MOL    C8439547   2.061   1.396   7.425  0.8818  0.8122 -0.2331
   33MOL    C8539548   1.938   1.456   7.505  0.1676 -0.2988  0.3741
   33MOL    C8639549   1.812   1.444   7.420 -0.3637  0.0717 -0.7765
   33MOL    C8739550   1.683   1.495   7.471 -0.0321  0.3878  0.3611
   33MOL    C8839551   1.565   1.494   7.375  0.4222 -0.0540 -0.0832
   33MOL    C8939552   1.436   1.540   7.455 -0.0121 -0.1305 -0.1557
   33MOL    C9039553   1.328   1.571   7.343 -0.1153 -0.1042  0.3842
   33MOL    C9139554   1.183   1.565   7.392 -0.2441  0.2916  0.4584
   33MOL    C9239555   1.076   1.605   7.288 -0.3532  0.6411  0.2793
   33MOL    C9339556   0.939   1.594   7.348  0.2351  0.6591  0.1279
   33MOL    O9439557   0.905   1.459   7.385  0.5949 -0.2334  0.1703
   33MOL    C9539558   0.786   1.431   7.436  0.0138 -0.3714  0.8523
   33MOL    O9639559   0.695   1.513   7.459 -0.0853  0.6581  0.8276
   33MOL    C9739560   0.768   1.284   7.461  0.1122 -0.0485 -0.6954
   33MOL    C9839561   0.748   1.199   7.329  0.1940 -0.6215 -0.2354
   33MOL    C9939562   0.630   1.240   7.234  0.2316 -0.0244  0.1702
   33MOL   C10039563   0.499   1.235   7.309  0.0888 -0.1566 -0.3064
   33MOL   C10139564   0.378   1.256   7.224  0.1079  0.3810 -0.6151
   33MOL   C10239565   0.385   1.375   7.123 -0.0708  0.0746 -0.1165
   33MOL   C10339566   0.248   1.394   7.052  0.8927 -0.7196  0.7835
   33MOL   C10439567   0.246   1.495   6.934 -0.3777  0.1009 -0.0740
   33MOL   C10539568   0.125   1.479   6.840 -0.4531  0.4730 -0.1730
   33MOL   O10639569   0.140   1.458   6.718  0.3883  0.1048  0.3071
   33MOL   H10739570   2.061   1.438   7.324 -0.1100  1.3914 -0.0026
   33MOL   H10839571   2.046   1.289   7.418  0.4053  0.8487  0.1278
   33MOL   H10939572   1.923   1.410   7.603 -0.7789 -1.7850 -0.4461
   33MOL   H11039573   1.962   1.560   7.526  2.7581 -0.8710  0.4070
   33MOL   H11139574   1.831   1.489   7.323 -0.7151  0.7654 -0.5287
   33MOL   H11239575   1.796   1.339   7.401  0.3109 -0.8756  3.3408
   33MOL   H11339576   1.649   1.430   7.552  1.2759 -1.6260 -0.6428
   33MOL   H11439577   1.695   1.593   7.516  2.5618 -0.4519  1.6320
   33MOL   H11539578   1.559   1.392   7.337  0.4064  0.2329 -0.8559
   33MOL   H11639579   1.587   1.570   7.299 -0.7576 -0.0255 -0.4106
   33MOL   H11739580   1.451   1.623   7.525  1.6323  0.3729 -1.0842
   33MOL   H11839581   1.400   1.448   7.501  0.6233 -0.1656  0.2835
   33MOL   H11939582   1.342   1.493   7.268 -1.5401 -1.4193  1.4609
   33MOL   H12039583   1.366   1.668   7.311 -0.7144 -0.0874 -0.3010
   33MOL   H12139584   1.158   1.615   7.485 -2.1768 -2.0011  1.2362
   33MOL   H12239585   1.176   1.460   7.421 -1.4310  0.6311  1.4330
   33MOL   H12339586   1.091   1.704   7.246 -2.0364  0.2669 -1.2407
   33MOL   H12439587   1.085   1.537   7.204  2.7573  0.4619  0.6730
   33MOL   H12539588   0.920   1.665   7.428 -0.8107  2.1690 -1.4170
   33MOL   H12639589   0.867   1.629   7.275 -0.6828 -0.7815  0.3097
   33MOL   H12739590   0.698   1.277   7.544  1.4658 -0.3096  0.4451
   33MOL   H12839591   0.865   1.253   7.499 -0.0973  2.9884  2.5854
   33MOL   H12939592   0.725   1.094   7.343  0.5422 -0.5740  0.7129
   33MOL   H13039593   0.843   1.195   7.277 -1.2903 -0.7343 -3.0941
   33MOL   H13139594   0.616   1.161   7.160  0.2463  0.1942 -0.0681
   33MOL   H13239595   0.654   1.334   7.184 -2.7845  0.7576  0.1187
   33MOL   H13339596   0.496   1.306   7.392 -1.6448 -0.8124  0.2073
   33MOL   H13439597   0.489   1.144   7.368 -0.0923  0.3046  0.3775
   33MOL   H13539598   0.355   1.165   7.169 -2.1886  2.1627 -2.7432
   33MOL   H13639599   0.299   1.282   7.295 -0.0531 -1.3942 -0.1390
   33MOL   H13739600   0.405   1.470   7.173 -0.2540 -1.0013  2.0265
   33MOL   H13839601   0.461   1.359   7.046  2.1131  1.9551  1.5917
   33MOL   H13939602   0.171   1.419   7.125 -0.6067 -0.6935 -0.7656
   33MOL   H14039603   0.217   1.291   7.030  0.1337 -0.7323  1.8321
   33MOL   H14139604   0.240   1.597   6.972  1.7661  0.5297 -0.8335
   33MOL   H14239605   0.337   1.488   6.874 -0.5230  1.5793 -0.4756
   33MOL   O14339606   0.015   1.511   6.902  0.5578  0.1613  0.0714
   33MOL   C14439607   7.643   1.517   6.837 -0.8014 -0.2837  0.8986
   33MOL   C14539608   7.566   1.383   6.853 -0.3558  0.2133 -0.1947
   33MOL   C14639609   7.514   1.370   6.998  0.0754  0.2996  0.1240
   33MOL   C14739610   7.411   1.255   7.027  0.1523  0.1431  0.0004
   33MOL   C14839611   7.389   1.212   7.177 -0.2901  0.4765  0.2522
   33MOL   C14939612   7.269   1.112   7.180 -0.4103  0.3380 -0.1367
   33MOL   C15039613   7.251   1.055   7.321  0.1174 -0.6796  0.0284
   33MOL   C15139614   7.120   0.968   7.327  0.2135 -0.1073 -0.1973
   33MOL   C15239615   7.087   0.926   7.472 -0.0731 -0.0112 -0.2430
   33MOL   C15339616   6.952   0.861   7.497 -0.3505  0.4739  0.2032
   33MOL   O15439617   6.907   0.883   7.624  0.0887 -0.8900  0.1215
   33MOL   C15539618   6.941   0.797   7.725  0.8292 -0.8107 -0.1244
   33MOL   O15639619   6.990   0.684   7.708  0.3449  0.1721 -0.9042
   33MOL   C15739620   6.900   0.853   0.105 -0.0260 -0.2608  0.6590
   33MOL   C15839621   6.778   0.784   0.169 -0.0325  1.2627 -0.3312
   33MOL   C15939622   6.828   0.665   0.251  0.6499  0.1285 -0.7537
   33MOL   C16039623   6.711   0.574   0.297  0.2336  0.2511  0.5524
   33MOL   C16139624   6.736   0.491   0.417  0.3404 -0.3663  0.0982
   33MOL   C16239625   6.623   0.399   0.458  0.6290 -0.3654 -0.3666
   33MOL   C16339626   6.508   0.468   0.537 -0.1179  0.3014  0.6985
   33MOL   C16439627   6.415   0.361   0.610  0.7089  0.0840  0.4103
   33MOL   C16539628   6.294   0.417   0.683 -0.2475 -0.3368  0.0495
   33MOL   O16639629   6.246   0.522   0.638  0.2250  0.4619 -0.3134
   33MOL   H16739630   7.576   1.593   6.876 -0.1925  2.1100 -2.4902
   33MOL   H16839631   7.654   1.518   6.728 -1.0816  0.1892  0.8741
   33MOL   H16939632   7.483   1.386   6.782 -1.9187  0.2496  1.6198
   33MOL   H17039633   7.623   1.293   6.829  0.1758  1.1519 -2.6090
   33MOL   H17139634   7.596   1.350   7.067  1.5210  2.0095 -1.0728
   33MOL   H17239635   7.471   1.465   7.031  0.3098  0.3715  0.2212
   33MOL   H17339636   7.314   1.285   6.989  0.6606  1.9275  0.0686
   33MOL   H17439637   7.435   1.166   6.968  0.1520  0.3693 -0.3408
   33MOL   H17539638   7.374   1.299   7.240  2.0348  1.7207 -0.8454
   33MOL   H17639639   7.479   1.156   7.204 -0.2420 -0.8332 -2.4290
   33MOL   H17739640   7.286   1.024   7.119  1.2593  0.0978  0.6551
   33MOL   H17839641   7.177   1.162   7.148 -0.8447 -0.8326 -0.7278
   33MOL   H17939642   7.251   1.141   7.388 -0.8382 -1.1192  0.5967
   33MOL   H18039643   7.337   0.992   7.345 -0.7239 -2.1025 -0.6777
   33MOL   H18139644   7.140   0.880   7.265  0.0770 -1.3062  1.4224
   33MOL   H18239645   7.034   1.019   7.284  1.4385  1.1346 -1.2301
   33MOL   H18339646   7.164   0.868   7.522  0.8724  2.3058  1.1036
   33MOL   H18439647   7.104   1.016   7.531  1.5665  0.5000 -1.4536
   33MOL   H18539648   6.881   0.911   7.430 -1.2062 -1.3119 -0.2631
   33MOL   H18639649   6.960   0.762   7.452 -0.1221  0.9558 -0.8439
   33MOL   H18739650   6.884   0.960   0.095  0.3980 -0.5627 -4.6132
   33MOL   H18839651   6.986   0.845   0.172 -1.1691 -3.5769  1.8592
   33MOL   H18939652   6.704   0.767   0.091  0.3912  0.8106 -0.6387
   33MOL   H19039653   6.736   0.851   0.244  0.0984  0.3346  0.5791
   33MOL   H19139654   6.882   0.706   0.337 -0.6413 -0.1953  0.2239
   33MOL   H19239655   6.905   0.614   0.194  1.3013  1.1060 -0.7740
   33MOL   H19339656   6.694   0.504   0.215  0.8020 -0.5207  1.0847
   33MOL   H19439657   6.616   0.626   0.304 -0.0893 -0.0647 -1.1907
   33MOL   H19539658   6.829   0.441   0.394 -0.1485 -0.5633 -1.4965
   33MOL   H19639659   6.754   0.566   0.494  1.1853 -0.3484 -0.1163
   33MOL   H19739660   6.593   0.332   0.378  1.2537  2.1102 -2.7360
   33MOL   H19839661   6.679   0.330   0.522  2.5367  0.5763 -0.9783
   33MOL   H19939662   6.446   0.528   0.470  0.3266  1.5012  1.3571
   33MOL   H20039663   6.545   0.539   0.610 -1.3494  0.7771  0.8732
   33MOL   H20139664   6.380   0.292   0.534 -0.4427  0.7941  0.2859
   33MOL   H20239665   6.462   0.292   0.681 -0.2982 -1.7575 -0.6689
   33MOL   H20339666   6.255   0.370   0.773  0.0893  1.7282  1.2867
   34MOL     O139667   7.463   3.570   1.083  0.4351 -0.1085  0.5391
   34MOL     C239668   7.405   3.667   0.999 -0.4845 -0.5626 -0.1746
   34MOL     C339669   7.389   3.590   0.873 -0.6120 -0.1145 -0.4493
   34MOL     C439670   7.267   3.492   0.882 -0.3294 -0.3618 -0.4879
   34MOL     C539671   7.221   3.456   0.748  0.2647  0.0663 -0.3923
   34MOL     C639672   7.085   3.383   0.763 -0.1561 -0.4983  0.4293
   34MOL     C739673   7.036   3.312   0.632 -0.6761  0.1198  0.0708
   34MOL     C839674   6.916   3.231   0.674  1.0014  0.1062 -0.4065
   34MOL     C939675   6.951   3.103   0.751 -0.3490 -0.2408 -0.0650
   34MOL    C1039676   6.823   3.011   0.792  0.3703 -0.4433  0.0350
   34MOL    C1139677   6.722   3.047   0.907 -0.0562 -0.1072  0.0696
   34MOL    O1239678   6.612   2.954   0.904 -0.5699  0.2271 -0.3936
   34MOL    C1339679   6.569   2.904   1.019 -0.1473 -0.3977  0.2106
   34MOL    O1439680   6.607   2.935   1.134 -0.2329 -0.1200  0.0313
   34MOL    C1539681   6.464   2.797   0.989  0.0552  0.5643  0.2512
   34MOL    C1639682   6.467   2.692   1.097  0.0620 -0.0404  0.7628
   34MOL    C1739683   6.354   2.594   1.086  0.1848 -1.1643  0.6695
   34MOL    C1839684   6.378   2.468   1.179  0.3103  0.3636 -0.3014
   34MOL    C1939685   6.270   2.356   1.169 -0.3327 -0.0004  0.1819
   34MOL    C2039686   6.264   2.290   1.031  0.1209  0.0750  0.2419
   34MOL    C2139687   6.182   2.166   1.025 -0.2123  0.1018 -0.2369
   34MOL    C2239688   6.031   2.194   1.042 -0.2261  0.1604 -0.3736
   34MOL    C2339689   5.945   2.065   1.029 -0.6632  0.4921 -0.7859
   34MOL    O2439690   5.957   1.985   0.939  0.1868  0.1661 -0.0652
   34MOL    H2539691   7.315   3.707   1.046  1.5930  1.8147  1.9985
   34MOL    H2639692   7.469   3.755   0.994 -0.9137 -0.3488 -2.1983
   34MOL    H2739693   7.377   3.662   0.792 -2.8426 -1.2723 -1.1833
   34MOL    H2839694   7.478   3.531   0.852  0.6911  1.5565  0.1893
   34MOL    H2939695   7.296   3.400   0.933 -1.0578 -0.7467 -0.7546
   34MOL    H3039696   7.189   3.531   0.949 -0.1029  0.1934 -0.5504
   34MOL    H3139697   7.216   3.549   0.691  1.3500  0.2252 -0.2411
   34MOL    H3239698   7.286   3.386   0.696 -1.2751 -1.6926 -0.0223
   34MOL    H3339699   7.008   3.445   0.808 -1.1268 -1.6652  0.4190
   34MOL    H3439700   7.100   3.304   0.837  0.3347  1.7672  2.7896
   34MOL    H3539701   7.103   3.239   0.587 -1.9049  0.0453 -1.6901
   34MOL    H3639702   7.006   3.382   0.555  0.5897  1.2504  0.5971
   34MOL    H3739703   6.863   3.200   0.583 -1.5583 -0.0735  1.0905
   34MOL    H3839704   6.847   3.286   0.739  0.3212 -2.4526  1.0832
   34MOL    H3939705   7.012   3.105   0.842 -4.2630  2.2696  2.6468
   34MOL    H4039706   7.007   3.042   0.680 -1.1578 -0.7678 -0.2513
   34MOL    H4139707   6.772   2.985   0.699 -2.7185 -2.0496  2.0631
   34MOL    H4239708   6.870   2.918   0.824 -0.8099 -1.2865 -0.5913
   34MOL    H4339709   6.766   3.062   1.006  0.5341  1.1830 -0.3814
   34MOL    H4439710   6.680   3.144   0.883  0.2671 -0.3204 -1.3674
   34MOL    H4539711   6.485   2.746   0.895 -1.3528  1.3111 -0.4737
   34MOL    H4639712   6.370   2.851   0.982 -0.8212 -0.9569  0.1563
   34MOL    H4739713   6.464   2.736   1.197  2.1682  0.9213  0.4265
   34MOL    H4839714   6.565   2.644   1.089  0.3150  0.5969 -0.0687
   34MOL    H4939715   6.338   2.554   0.986  2.4029 -1.2320  0.2984
   34MOL    H5039716   6.265   2.647   1.118 -0.2557 -0.2246 -1.9667
   34MOL    H5139717   6.365   2.500   1.282 -1.7938 -2.5200  0.3868
   34MOL    H5239718   6.478   2.428   1.161  0.4746  1.1657 -1.2209
   34MOL    H5339719   6.281   2.278   1.244 -0.7890 -1.4271 -1.1906
   34MOL    H5439720   6.168   2.387   1.190 -1.3460 -1.9803 -1.6101
   34MOL    H5539721   6.227   2.364   0.959  1.6638 -1.1387 -1.8376
   34MOL    H5639722   6.358   2.252   0.991 -0.9682  0.2081 -2.5243
   34MOL    H5739723   6.212   2.097   1.104 -0.6371  0.2410  0.0460
   34MOL    H5839724   6.185   2.108   0.933  0.4584  0.3759 -0.3883
   34MOL    H5939725   6.012   2.264   1.123 -3.2234 -0.5199 -0.4472
   34MOL    H6039726   5.998   2.249   0.953 -1.1310 -0.3853 -0.3776
   34MOL    H6139727   7.495   3.610   1.162  1.8462 -1.4931  0.6910
   34MOL    O6239728   5.855   2.061   1.124 -0.4127  0.8228 -0.7076
   34MOL    C6339729   5.753   1.959   1.124  0.6982 -0.3708  0.0718
   34MOL    C6439730   5.648   1.979   1.021  0.8905  0.1278 -0.7882
   34MOL    C6539731   5.565   2.107   1.045  0.0852  0.0943 -0.4246
   34MOL    C6639732   5.439   2.123   0.955  0.0486 -0.6403  0.6682
   34MOL    C6739733   5.377   2.259   0.967  0.5204  0.5474  0.0117
   34MOL    C6839734   5.276   2.276   0.856 -0.1091 -0.3485 -0.1062
   34MOL    C6939735   5.211   2.414   0.862 -0.4504  0.2548 -0.2757
   34MOL    C7039736   5.079   2.418   0.785  0.7753 -0.0843 -0.6211
   34MOL    C7139737   4.990   2.546   0.820 -0.3678  0.0209 -0.0477
   34MOL    C7239738   4.855   2.551   0.744 -0.3848 -0.0339 -0.3105
   34MOL    O7339739   4.777   2.438   0.778 -0.0573  0.4973  0.3170
   34MOL    C7439740   4.642   2.439   0.784 -0.8527  0.2684  0.6390
   34MOL    O7539741   4.572   2.526   0.737 -0.4383 -0.7101  0.5929
   34MOL    C7639742   4.585   2.316   0.848  0.5419  0.0161  0.1029
   34MOL    C7739743   4.434   2.334   0.873 -0.2464  0.2298  0.1938
   34MOL    C7839744   4.400   2.435   0.986  0.2521  0.3590  0.4420
   34MOL    C7939745   4.247   2.458   0.994 -0.3961  0.0549  0.3871
   34MOL    C8039746   4.155   2.349   1.055 -0.0072  0.2860 -0.0798
   34MOL    C8139747   4.016   2.411   1.093 -0.2086 -0.1747  0.3023
   34MOL    C8239748   3.914   2.431   0.986  0.1290 -0.1830  0.4596
   34MOL    C8339749   3.788   2.499   1.036  0.4623 -0.1322 -0.1392
   34MOL    C8439750   3.823   2.636   1.086  0.2455  0.5360  0.5791
   34MOL    O8539751   3.811   2.666   1.202  0.0802 -0.0187  0.2778
   34MOL    H8639752   5.800   1.861   1.119 -1.1325 -1.2627 -0.1362
   34MOL    H8739753   5.716   1.947   1.226  1.3917 -1.5034  0.2000
   34MOL    H8839754   5.700   1.989   0.926  0.4380 -2.4714 -1.3478
   34MOL    H8939755   5.589   1.889   1.003  0.4014  0.6385 -1.7732
   34MOL    H9039756   5.529   2.113   1.148  1.9038  1.3723  0.1661
   34MOL    H9139757   5.637   2.189   1.041  0.2807 -0.1594 -2.1937
   34MOL    H9239758   5.475   2.109   0.853 -0.2716 -1.7072  0.6934
   34MOL    H9339759   5.366   2.042   0.959 -0.4654 -0.1289  1.6833
   34MOL    H9439760   5.451   2.338   0.967  0.9936  0.1630  2.5966
   34MOL    H9539761   5.332   2.261   1.066  0.5867  1.6917  0.0188
   34MOL    H9639762   5.213   2.188   0.863  1.2251 -1.1205  3.1939
   34MOL    H9739763   5.317   2.258   0.756 -1.8826 -0.4219 -0.8295
   34MOL    H9839764   5.279   2.488   0.820  0.0528  1.5101  2.5741
   34MOL    H9939765   5.195   2.449   0.965 -0.4257  0.4383 -0.3332
   34MOL   H10039766   5.026   2.324   0.800  0.9020  0.0964  1.0160
   34MOL   H10139767   5.088   2.411   0.676  0.5846 -1.7285 -0.5412
   34MOL   H10239768   4.973   2.558   0.927 -1.0256  0.4212 -0.1960
   34MOL   H10339769   5.048   2.632   0.786 -2.2962  0.6012 -2.0003
   34MOL   H10439770   4.804   2.644   0.769 -0.2487 -0.3543  1.2193
   34MOL   H10539771   4.868   2.551   0.636 -0.8437  0.4770 -0.3667
   34MOL   H10639772   4.626   2.301   0.948  0.0608 -3.3610 -0.1304
   34MOL   H10739773   4.598   2.229   0.784 -0.9540  0.0996 -0.3313
   34MOL   H10839774   4.381   2.241   0.895 -0.9740  0.0298 -2.2551
   34MOL   H10939775   4.396   2.369   0.777  0.3439 -0.4417 -0.2924
   34MOL   H11039776   4.455   2.528   0.970  0.7226  0.5259  2.9142
   34MOL   H11139777   4.428   2.384   1.078  1.1705  0.4560  0.2231
   34MOL   H11239778   4.205   2.484   0.897 -2.1043 -2.1873  0.4768
   34MOL   H11339779   4.243   2.557   1.039  1.1950  0.1772  0.2740
   34MOL   H11439780   4.121   2.276   0.982  0.9738 -0.2608  0.0043
   34MOL   H11539781   4.186   2.304   1.150  0.4852  0.6148 -0.0794
   34MOL   H11639782   3.962   2.335   1.149 -1.0418 -0.1278 -0.4410
   34MOL   H11739783   4.031   2.501   1.153  2.5074 -0.7782  0.6208
   34MOL   H11839784   3.877   2.334   0.953 -2.1457  0.1720  1.8571
   34MOL   H11939785   3.952   2.479   0.895 -0.0157  0.9752  0.9956
   34MOL   H12039786   3.714   2.521   0.959  0.0883 -0.6496  0.0701
   34MOL   H12139787   3.752   2.450   1.126 -1.7875  1.5735 -0.0407
   34MOL   O12239788   3.868   2.724   0.987  0.3588  0.0935  0.4889
   34MOL   C12339789   3.921   2.848   1.017 -0.1313  0.0767 -0.0396
   34MOL   C12439790   3.990   2.912   0.902  0.4885  0.0508  0.5570
   34MOL   C12539791   4.135   2.871   0.894  0.2624  0.9664  0.0818
   34MOL   C12639792   4.218   2.946   0.778  0.3027 -0.5935 -0.2215
   34MOL   C12739793   4.353   2.875   0.766  0.5161 -0.1729  0.0866
   34MOL   C12839794   4.463   2.926   0.857  0.3496  0.0866 -0.3268
   34MOL   C12939795   4.594   2.848   0.868 -0.3634  0.0081 -0.1665
   34MOL   C13039796   4.690   2.900   0.983  0.9602  0.3846 -0.6735
   34MOL   C13139797   4.818   2.810   1.003 -0.6632 -0.0963 -0.2729
   34MOL   C13239798   4.894   2.838   1.128  0.1224  0.3174 -0.7791
   34MOL   O13339799   4.978   2.724   1.155  0.1532 -0.0152 -0.2538
   34MOL   C13439800   5.106   2.739   1.194 -0.2508  0.1128  1.0316
   34MOL   O13539801   5.168   2.848   1.208  0.0370 -0.2052 -0.2463
   34MOL   C13639802   5.175   2.607   1.218  0.2480  0.1873 -0.6136
   34MOL   C13739803   5.157   2.551   1.363 -0.2644  0.1827  0.6870
   34MOL   C13839804   5.024   2.485   1.397 -0.0901  0.3274 -0.5891
   34MOL   C13939805   5.006   2.338   1.359  0.3598  0.3449 -0.0161
   34MOL   C14039806   4.965   2.313   1.215 -0.0389 -0.6784  0.0498
   34MOL   C14139807   4.965   2.164   1.186 -0.8883  0.0804 -0.5458
   34MOL   C14239808   4.900   2.135   1.051  0.7182  0.2247  0.2159
   34MOL   C14339809   4.904   1.993   1.003 -0.0286 -0.4709  0.3281
   34MOL   C14439810   4.902   1.982   0.850 -0.5699 -0.3754  0.1669
   34MOL   O14539811   5.004   1.936   0.792 -0.1918  0.5936  0.2933
   34MOL   H14639812   3.838   2.908   1.055  0.1649  1.0410 -0.8802
   34MOL   H14739813   3.993   2.842   1.099 -0.5204  0.6620  0.3536
   34MOL   H14839814   3.941   2.894   0.806 -1.3749  1.9627  1.1149
   34MOL   H14939815   3.982   3.020   0.914 -1.0682  0.2193 -1.5755
   34MOL   H15039816   4.179   2.875   0.994  0.2111  1.4152  0.0831
   34MOL   H15139817   4.142   2.764   0.875 -1.0783  0.9296 -0.2607
   34MOL   H15239818   4.162   2.925   0.688 -3.3480  2.8857  1.1121
   34MOL   H15339819   4.227   3.054   0.786  3.7182 -0.7038 -1.6447
   34MOL   H15439820   4.386   2.887   0.663  0.4385 -0.3912  0.0342
   34MOL   H15539821   4.349   2.767   0.779  0.5981 -0.5924 -2.8818
   34MOL   H15639822   4.423   2.945   0.957 -2.2466 -1.8217 -0.9387
   34MOL   H15739823   4.491   3.028   0.833  2.8761  0.1644  2.6263
   34MOL   H15839824   4.638   2.846   0.768 -0.4200 -0.1993 -0.1881
   34MOL   H15939825   4.570   2.746   0.899 -0.3777 -0.3380 -1.3057
   34MOL   H16039826   4.629   2.906   1.073  0.7964  0.5487 -0.7937
   34MOL   H16139827   4.724   3.001   0.958  1.5202  0.3230 -0.1726
   34MOL   H16239828   4.786   2.706   1.005  1.3267 -0.7514 -0.7951
   34MOL   H16339829   4.888   2.821   0.920 -1.3529 -2.0505 -1.1335
   34MOL   H16439830   4.953   2.929   1.119  0.7352 -0.0138 -0.2409
   34MOL   H16539831   4.833   2.839   1.218 -1.2176 -1.4128 -1.6517
   34MOL   H16639832   5.282   2.619   1.198  0.3194 -0.4554 -0.6069
   34MOL   H16739833   5.149   2.533   1.144  0.1271 -0.7038  0.3078
   34MOL   H16839834   5.179   2.629   1.435  0.3515  2.4300 -1.8506
   34MOL   H16939835   5.229   2.471   1.377 -0.7897 -0.0864  1.8864
   34MOL   H17039836   4.947   2.553   1.359 -0.7799  0.1029  0.3586
   34MOL   H17139837   5.016   2.494   1.506  3.3156  2.4749 -0.4600
   34MOL   H17239838   4.927   2.296   1.422  0.4123  1.2237  0.6575
   34MOL   H17339839   5.097   2.283   1.381  0.0044 -0.3540 -0.3059
   34MOL   H17439840   4.866   2.352   1.191 -0.1012 -1.7121 -1.3857
   34MOL   H17539841   5.037   2.363   1.151 -0.4312 -1.3714 -0.9450
   34MOL   H17639842   5.066   2.124   1.175 -0.3976 -0.6932  4.9985
   34MOL   H17739843   4.914   2.103   1.261  0.8339  0.1397  0.7312
   34MOL   H17839844   4.953   2.202   0.983  1.0248 -0.0673  0.1697
   34MOL   H17939845   4.805   2.187   1.038  1.1563  2.0658  3.5837
   34MOL   H18039846   4.997   1.947   1.037 -1.7786 -2.2555  2.8140
   34MOL   H18139847   4.821   1.943   1.052  1.1404 -1.9932  0.8236
   34MOL   O18239848   4.787   2.019   0.790 -0.2559  0.1662  0.0189
   34MOL   C18339849   4.788   2.032   0.649  0.0675  0.2324 -0.1758
   34MOL   C18439850   4.673   1.945   0.595 -0.4419 -0.3780  0.3094
   34MOL   C18539851   4.701   1.800   0.562 -0.4896  0.4140 -0.6636
   34MOL   C18639852   4.595   1.729   0.472  0.3105 -0.2305 -0.0335
   34MOL   C18739853   4.450   1.736   0.533 -0.1431 -0.5146  0.0598
   34MOL   C18839854   4.360   1.624   0.473 -0.5241 -0.0901 -0.4491
   34MOL   C18939855   4.214   1.644   0.527 -0.8738 -1.0361 -0.5755
   34MOL   C19039856   4.111   1.553   0.467  0.0516 -0.8449  0.2626
   34MOL   C19139857   3.970   1.570   0.528  0.2651 -0.6510  0.2207
   34MOL   C19239858   3.869   1.668   0.463 -0.0068  0.5944  0.3496
   34MOL   O19339859   3.754   1.665   0.544  0.3192  0.3886 -0.3263
   34MOL   C19439860   3.644   1.737   0.509  0.1852 -0.8811 -0.0631
   34MOL   O19539861   3.641   1.813   0.411  0.3995  0.4813 -0.4229
   34MOL   C19639862   3.538   1.734   0.617  0.6360  0.2404  0.1119
   34MOL   C19739863   3.395   1.769   0.579 -0.1634 -0.2677 -0.2909
   34MOL   C19839864   3.373   1.920   0.551  0.6198  0.0865  0.3231
   34MOL   C19939865   3.223   1.962   0.556 -0.0129  0.1036  0.3058
   34MOL   C20039866   3.195   2.097   0.493  0.6347 -0.8155  0.4776
   34MOL   C20139867   3.044   2.096   0.465 -0.3983 -0.6745 -0.6030
   34MOL   C20239868   2.972   2.234   0.445 -0.5617 -0.7105 -0.5754
   34MOL   C20339869   2.831   2.230   0.398 -0.0324 -0.3636 -0.4473
   34MOL   C20439870   2.814   2.199   0.251 -0.0552 -0.2331 -0.0264
   34MOL   O20539871   2.771   2.089   0.215 -0.0894 -0.0683  1.0411
   34MOL   H20639872   4.760   2.135   0.623  1.5163  0.8889  0.8301
   34MOL   H20739873   4.884   2.006   0.604 -1.0186 -1.5142 -1.5577
   34MOL   H20839874   4.577   1.958   0.646 -1.4739 -0.0116 -1.6828
   34MOL   H20939875   4.652   1.986   0.496  0.1988  2.6204  1.3841
   34MOL   H21039876   4.805   1.780   0.537 -0.6617 -0.1171 -0.9717
   34MOL   H21139877   4.692   1.746   0.656  2.3047  0.2107 -0.4561
   34MOL   H21239878   4.593   1.772   0.372  0.6115  0.6009  0.3126
   34MOL   H21339879   4.626   1.625   0.460  1.2665  0.0098  0.3059
   34MOL   H21439880   4.415   1.838   0.521  2.4220  0.4831  0.7399
   34MOL   H21539881   4.451   1.719   0.640  0.4381 -0.7766  0.0178
   34MOL   H21639882   4.395   1.526   0.507 -2.2450 -1.4336 -2.4491
   34MOL   H21739883   4.356   1.636   0.365  2.8595 -0.0886 -0.6561
   34MOL   H21839884   4.169   1.744   0.521  0.4102 -0.2020  2.9241
   34MOL   H21939885   4.215   1.622   0.633  1.0559  1.7947  0.0227
   34MOL   H22039886   4.135   1.447   0.471  1.1660 -0.5988  0.1548
   34MOL   H22139887   4.113   1.563   0.358  1.0997 -0.4217  0.3194
   34MOL   H22239888   3.921   1.473   0.525 -0.2195 -0.4318  0.8484
   34MOL   H22339889   3.976   1.590   0.635 -0.0609  0.1015  0.1000
   34MOL   H22439890   3.914   1.767   0.465  1.6064 -0.1061 -0.5967
   34MOL   H22539891   3.843   1.643   0.361 -1.0311  0.1191  0.7242
   34MOL   H22639892   3.578   1.792   0.700  0.7997  0.2747  0.0096
   34MOL   H22739893   3.548   1.632   0.654  2.2534  0.2053 -0.4221
   34MOL   H22839894   3.332   1.731   0.660 -0.1281  0.6150  0.1629
   34MOL   H22939895   3.375   1.707   0.491  2.2743 -3.1096  1.0567
   34MOL   H23039896   3.416   1.942   0.454 -1.2339 -1.7514 -0.9742
   34MOL   H23139897   3.426   1.978   0.627 -0.7287 -0.0382  1.3957
   34MOL   H23239898   3.196   1.968   0.661  1.7092  0.0130  0.7713
   34MOL   H23339899   3.160   1.885   0.511 -0.9219  0.0090  1.7202
   34MOL   H23439900   3.224   2.171   0.567 -2.0854  0.7764 -0.0148
   34MOL   H23539901   3.244   2.120   0.398  0.4980  2.3101  1.1410
   34MOL   H23639902   3.018   2.032   0.380 -1.9305 -0.1709 -0.5319
   34MOL   H23739903   2.986   2.046   0.543 -0.0776 -0.1433 -0.0187
   34MOL   H23839904   3.032   2.277   0.365 -0.2109 -2.0179 -1.0159
   34MOL   H23939905   2.990   2.298   0.532  0.7715 -1.1021 -0.5375
   34MOL   H24039906   2.771   2.157   0.451 -0.3637  1.2766  1.5172
   34MOL   H24139907   2.788   2.330   0.414  1.3267  0.2710 -0.7085
   34MOL   O24239908   2.851   2.296   0.171  0.1607 -0.4380 -0.1590
   34MOL   C24339909   2.851   2.290   0.027  0.1641  0.4352  0.2468
   34MOL   C24439910   2.976   2.252   7.717 -0.3292 -0.3741 -0.2210
   34MOL   C24539911   2.977   2.251   7.561  1.1104  0.6022 -0.1658
   34MOL   C24639912   3.082   2.156   7.497  0.1138  0.2302  1.1658
   34MOL   C24739913   3.084   2.175   7.343  0.0204  0.6049  0.0961
   34MOL   C24839914   3.174   2.078   7.266  0.0980 -0.1115 -0.1587
   34MOL   C24939915   3.148   2.057   7.111 -0.9309  0.0077 -0.1721
   34MOL   C25039916   3.037   1.946   7.102 -0.1828  0.3797  0.0260
   34MOL   C25139917   3.019   1.888   6.960 -0.3779  0.2564 -0.1945
   34MOL   C25239918   2.903   1.788   6.960 -0.0822  0.5092  1.4242
   34MOL   O25339919   2.777   1.853   6.976  0.2790 -0.1108  0.1490
   34MOL   C25439920   2.655   1.787   6.928  0.1161  0.1034  0.3432
   34MOL   O25539921   2.647   1.677   6.877 -0.0328 -0.3247 -0.7172
   34MOL   C25639922   2.531   1.865   6.952  0.8311  0.3876  0.3616
   34MOL   C25739923   2.538   1.996   6.876 -0.0532 -0.4342 -0.1641
   34MOL   C25839924   2.485   1.984   6.738  1.1799 -0.0169  0.0087
   34MOL   C25939925   2.333   1.950   6.720 -0.4068  0.8735 -0.1181
   34MOL   C26039926   2.315   1.927   6.574 -1.0429 -0.0704  0.4787
   34MOL   C26139927   2.176   1.939   6.522 -0.2860 -0.2144 -0.2261
   34MOL   C26239928   2.151   1.877   6.373 -0.9788 -0.0188 -0.6421
   34MOL   C26339929   2.237   1.930   6.255  0.0916  0.4979 -0.1899
   34MOL   C26439930   2.238   2.084   6.250  0.3055 -0.3602 -0.4803
   34MOL   O26539931   2.140   2.154   6.269  0.2115 -0.7296 -1.0207
   34MOL   H26639932   2.768   2.227   7.752  1.2981 -0.4834 -0.9817
   34MOL   H26739933   2.841   2.388   7.736  1.3690  1.0765  1.2656
   34MOL   H26839934   3.065   2.307   7.749 -1.0441 -0.8604  2.7289
   34MOL   H26939935   3.001   2.150   7.742 -1.2483 -0.0443  2.1439
   34MOL   H27039936   2.876   2.222   7.533  1.0930  2.5361 -2.2634
   34MOL   H27139937   2.991   2.356   7.535 -1.6108  0.6816 -1.4762
   34MOL   H27239938   3.182   2.176   7.535  0.7607  4.0548 -2.1871
   34MOL   H27339939   3.065   2.052   7.522 -2.5881  0.2110 -0.5165
   34MOL   H27439940   3.098   2.280   7.317 -0.9426  0.1216 -2.4868
   34MOL   H27539941   2.984   2.151   7.307 -0.3651  1.8386  0.3373
   34MOL   H27639942   3.169   1.988   7.327 -0.9831  1.8715  2.7666
   34MOL   H27739943   3.274   2.120   7.278 -0.1037  0.0860  0.8950
   34MOL   H27839944   3.242   2.011   7.079 -0.9808 -1.0357  1.1161
   34MOL   H27939945   3.127   2.147   7.053 -0.3854 -0.4477 -1.0919
   34MOL   H28039946   2.945   1.997   7.131 -0.7346 -0.8912  0.5375
   34MOL   H28139947   3.058   1.867   7.173  1.2058 -0.1339 -0.9344
   34MOL   H28239948   3.010   1.966   6.884 -2.1065  1.4607  1.1987
   34MOL   H28339949   3.110   1.829   6.945 -0.9247 -1.4425  2.7779
   34MOL   H28439950   2.903   1.745   6.860 -0.3272 -2.3087  2.5882
   34MOL   H28539951   2.918   1.713   7.037  1.6143  2.0682  2.6749
   34MOL   H28639952   2.515   1.884   7.058  0.0370  1.5622  0.0340
   34MOL   H28739953   2.446   1.806   6.918  1.8770 -0.9882  0.0542
   34MOL   H28839954   2.641   2.032   6.875 -0.2124  0.0075 -0.5966
   34MOL   H28939955   2.485   2.071   6.934 -0.2548  0.0783 -1.0057
   34MOL   H29039956   2.532   1.905   6.679  0.9038  0.4083 -0.7989
   34MOL   H29139957   2.519   2.064   6.672 -0.3570 -0.0127 -0.8138
   34MOL   H29239958   2.276   2.030   6.766  0.3814  0.8258  0.9588
   34MOL   H29339959   2.321   1.858   6.777  0.2585 -0.0117 -1.3715
   34MOL   H29439960   2.382   1.991   6.517  1.3827 -2.8312  0.0615
   34MOL   H29539961   2.352   1.825   6.558 -1.0661  0.2608 -1.7899
   34MOL   H29639962   2.105   1.891   6.589  1.2331 -0.2716  1.3566
   34MOL   H29739963   2.150   2.045   6.526  0.0001 -0.1314 -0.5605
   34MOL   H29839964   2.048   1.901   6.346 -0.9910  1.4167  0.5934
   34MOL   H29939965   2.146   1.769   6.379 -1.1920  0.0546  0.6772
   34MOL   H30039966   2.335   1.888   6.278 -0.5229 -0.6046  0.5001
   34MOL   H30139967   2.208   1.892   6.157  4.6860  0.0601 -1.4902
   34MOL   O30239968   2.359   2.134   6.210  0.1984  0.0401 -0.5736
   34MOL   C30339969   2.387   2.268   6.228  0.2202  0.4915  0.2349
   34MOL   C30439970   2.500   2.292   6.131 -0.0973 -0.1714  0.2375
   34MOL   C30539971   2.642   2.236   6.156  0.5890  0.4673  0.1156
   34MOL   C30639972   2.742   2.243   6.040 -0.0636  0.3861  0.4337
   34MOL   C30739973   2.712   2.135   5.933  0.2998  0.9645 -0.2473
   34MOL   C30839974   2.827   2.101   5.839  0.3164 -0.6298 -0.6771
   34MOL   C30939975   2.828   1.958   5.782 -0.1004 -0.3030  0.0334
   34MOL   C31039976   2.938   1.915   5.679 -0.3864 -0.1648  0.3131
   34MOL   C31139977   2.902   1.765   5.645 -0.6005 -0.1038  0.2922
   34MOL   C31239978   2.994   1.691   5.557 -0.0020 -1.2496  0.0749
   34MOL   O31339979   3.123   1.701   5.613 -0.3930 -0.1838  0.2606
   34MOL   C31439980   3.149   1.616   5.715  0.6740 -0.0303 -0.8579
   34MOL   O31539981   3.078   1.518   5.747 -0.1787  0.3820 -0.0176
   34MOL   C31639982   3.270   1.649   5.801 -0.1807  0.4894  0.3352
   34MOL   C31739983   3.261   1.792   5.859  0.0696  0.7912 -0.1799
   34MOL   C31839984   3.151   1.794   5.965 -0.4018  0.5579  0.2100
   34MOL   C31939985   3.161   1.917   6.063 -0.1676 -0.0885  0.5214
   34MOL   C32039986   3.064   1.913   6.176  0.0508  0.1359  0.4357
   34MOL   C32139987   3.108   1.992   6.297  0.1617 -0.4730 -0.1160
   34MOL   C32239988   3.050   2.135   6.300  0.1017  0.1196 -0.0375
   34MOL   C32339989   3.098   2.222   6.421  0.9161  0.4687  0.1349
   34MOL   C32439990   3.030   2.179   6.555 -0.2710 -0.2619  0.0421
   34MOL   O32539991   3.092   2.152   6.658 -0.3490 -0.1431  0.2148
   34MOL   H32639992   2.308   2.342   6.215 -1.0227 -1.0228 -0.9108
   34MOL   H32739993   2.427   2.300   6.324  0.9364 -0.1000  0.1374
   34MOL   H32839994   2.464   2.274   6.029 -2.5057  0.2968  0.9787
   34MOL   H32939995   2.504   2.400   6.121 -1.0653 -0.1425  0.1470
   34MOL   H33039996   2.670   2.268   6.256  1.5656 -1.8002  0.5892
   34MOL   H33139997   2.629   2.131   6.180 -3.0275  0.9734  0.6992
   34MOL   H33239998   2.724   2.346   6.008  0.0381  0.1391 -0.4036
   34MOL   H33339999   2.841   2.234   6.085 -0.5014 -0.7364  1.2019
   34MOL   H33440000   2.629   2.179   5.878 -0.4410 -0.7705 -0.5384
   34MOL   H33540001   2.686   2.039   5.978  1.2967  0.5445 -0.5722
   34MOL   H33640002   2.921   2.114   5.894  0.2433  1.5343 -1.0175
   34MOL   H33740003   2.826   2.174   5.759  0.8205  0.9579  0.7378
   34MOL   H33840004   2.735   1.951   5.726 -0.1652 -1.1871  0.2438
   34MOL   H33940005   2.811   1.883   5.860 -2.3160  3.2671  3.1914
   34MOL   H34040006   3.037   1.927   5.725  0.5808 -1.2848 -1.3928
   34MOL   H34140007   2.929   1.974   5.588  0.8966  0.8004  0.7948
   34MOL   H34240008   2.884   1.705   5.734 -0.0390 -0.7882 -0.0557
   34MOL   H34340009   2.805   1.768   5.595 -0.1598  2.0330 -0.5177
   34MOL   H34440010   2.970   1.586   5.539 -1.9838 -0.4389 -2.3936
   34MOL   H34540011   3.002   1.740   5.460 -0.3806 -3.8474 -1.3167
   34MOL   H34640012   3.364   1.643   5.747  0.9476  4.0342  1.7478
   34MOL   H34740013   3.283   1.566   5.870  0.8791  0.0916 -0.3325
   34MOL   H34840014   3.227   1.863   5.784  0.5312  0.6749 -0.4970
   34MOL   H34940015   3.355   1.829   5.899 -0.3575  0.3118  1.3457
   34MOL   H35040016   3.169   1.702   6.021  1.5575  1.1586  0.6234
   34MOL   H35140017   3.053   1.792   5.918  0.6184  2.4887 -2.1501
   34MOL   H35240018   3.166   2.016   6.017 -1.2139  0.7345  2.1481
   34MOL   H35340019   3.255   1.898   6.113 -0.5366  1.9847  2.0532
   34MOL   H35440020   2.971   1.956   6.139 -0.6342 -0.3467  1.5618
   34MOL   H35540021   3.053   1.808   6.204 -0.9962  0.3963  0.9922
   34MOL   H35640022   3.092   1.939   6.391  2.3367 -1.6054 -0.3559
   34MOL   H35740023   3.216   1.996   6.302  0.0335  1.4729  1.4201
   34MOL   H35840024   2.941   2.133   6.303  0.1070  1.1879  1.2691
   34MOL   H35940025   3.088   2.178   6.207  0.5354  2.2548  1.0979
   34MOL   H36040026   3.206   2.227   6.435  0.7044 -1.9580  2.9266
   34MOL   H36140027   3.059   2.321   6.396  0.9612  0.2622 -0.7570
   34MOL   O36240028   2.905   2.159   6.536 -0.2427  0.7523 -0.2215
   34MOL   C36340029   2.832   2.097   6.647  1.0105  0.5935  0.1382
   34MOL   C36440030   2.852   1.950   6.614 -0.2506 -0.0120  0.2814
   34MOL   C36540031   2.763   1.894   6.496  0.2483  0.7250  0.3716
   34MOL   C36640032   2.721   1.751   6.525  0.0901  0.1097 -0.6237
   34MOL   C36740033   2.614   1.714   6.421  0.6836  0.3199  0.5834
   34MOL   C36840034   2.569   1.567   6.430 -0.0171  0.0590 -0.0617
   34MOL   C36940035   2.432   1.533   6.355  0.0989  0.4993 -0.0784
   34MOL   C37040036   2.376   1.395   6.393 -0.4087 -0.1245 -0.0336
   34MOL   C37140037   2.297   1.333   6.278 -0.6540 -0.3437 -0.5506
   34MOL   C37240038   2.242   1.197   6.307 -0.1549  0.4409 -0.1469
   34MOL   O37340039   2.154   1.180   6.202 -0.2610 -0.2728  0.5863
   34MOL   C37440040   2.085   1.066   6.177 -0.2628 -1.0839  0.0059
   34MOL   O37540041   2.084   0.963   6.246  0.4600  0.2025  0.6398
   34MOL   C37640042   2.011   1.071   6.041 -0.1652 -0.0935  0.0908
   34MOL   C37740043   2.060   0.977   5.940 -0.7373 -0.2974 -0.4478
   34MOL   C37840044   2.012   0.834   5.947  0.6265  1.1020  0.2959
   34MOL   C37940045   2.052   0.755   5.817  0.4384 -0.0467 -0.3503
   34MOL   C38040046   1.960   0.640   5.790  0.1825 -0.0933  0.1312
   34MOL   C38140047   1.984   0.582   5.647 -0.4865 -0.1097 -0.1115
   34MOL   C38240048   1.883   0.480   5.599 -0.1181  0.1339  0.4062
   34MOL   C38340049   1.877   0.347   5.675  0.1135 -0.0796 -0.3939
   34MOL   C38440050   1.997   0.257   5.644 -0.2682  0.1466 -0.4859
   34MOL   O38540051   2.104   0.272   5.705  0.2364  0.0230  0.2354
   34MOL   H38640052   2.857   2.128   6.748 -3.1377  1.0111  1.1182
   34MOL   H38740053   2.725   2.111   6.633  1.1804 -0.6048 -2.6808
   34MOL   H38840054   2.955   1.921   6.598  0.7729  2.2451  2.4745
   34MOL   H38940055   2.828   1.882   6.696 -1.0881 -1.7157 -1.3353
   34MOL   H39040056   2.675   1.957   6.501  0.1585  0.6973 -0.8404
   34MOL   H39140057   2.801   1.906   6.395  1.4354 -2.6837  0.3331
   34MOL   H39240058   2.809   1.689   6.508  0.3577  0.2007  0.3856
   34MOL   H39340059   2.679   1.745   6.625  2.6664 -1.7002  0.3986
   34MOL   H39440060   2.652   1.752   6.325  0.3084  1.9655  1.0768
   34MOL   H39540061   2.534   1.782   6.451  0.6682  1.4885 -1.9322
   34MOL   H39640062   2.579   1.542   6.535  2.3365  1.0339 -0.0269
   34MOL   H39740063   2.646   1.504   6.385  0.6347  1.3320 -0.7573
   34MOL   H39840064   2.454   1.541   6.248  1.0735  1.4926  0.1874
   34MOL   H39940065   2.359   1.609   6.380  0.1783  0.1386  1.2682
   34MOL   H40040066   2.317   1.394   6.485  0.9190  0.1858  0.8392
   34MOL   H40140067   2.460   1.330   6.418  0.2534 -0.1719 -2.2587
   34MOL   H40240068   2.213   1.399   6.255  0.8038  2.1518  0.9897
   34MOL   H40340069   2.356   1.326   6.187  0.3523 -2.4828  0.2283
   34MOL   H40440070   2.320   1.121   6.303 -0.0324  0.5440  0.2924
   34MOL   H40540071   2.184   1.197   6.399 -0.4973  0.5102 -0.3657
   34MOL   H40640072   2.023   1.174   6.006 -0.4120 -0.1297 -0.0950
   34MOL   H40740073   1.903   1.061   6.051 -0.4397  0.5104 -2.0201
   34MOL   H40840074   2.169   0.973   5.934 -0.7755 -0.2137 -1.2300
   34MOL   H40940075   2.040   1.021   5.842  1.2317  0.1101 -0.6922
   34MOL   H41040076   1.905   0.824   5.959  0.7863  2.1189  3.0857
   34MOL   H41140077   2.050   0.769   6.026 -1.5289 -0.1911  0.2914
   34MOL   H41240078   2.154   0.715   5.817  0.8686  0.9924 -1.7948
   34MOL   H41340079   2.045   0.810   5.723 -1.2104 -1.4518 -1.0828
   34MOL   H41440080   1.972   0.561   5.863  0.0359  0.1793  0.4504
   34MOL   H41540081   1.855   0.669   5.792  0.0987 -0.3417 -0.4882
   34MOL   H41640082   2.000   0.661   5.574  0.7795  2.4127  2.8005
   34MOL   H41740083   2.079   0.529   5.648  0.8198  2.2037 -0.1298
   34MOL   H41840084   1.907   0.458   5.495  1.5425  0.7708  0.6429
   34MOL   H41940085   1.784   0.526   5.602 -0.7192 -1.0699 -0.5433
   34MOL   H42040086   1.866   0.365   5.782 -1.5380 -0.3407 -0.5031
   34MOL   H42140087   1.781   0.299   5.658  0.0069  0.5528 -1.5840
   34MOL   O42240088   1.969   0.169   5.549  0.0938  0.0565 -0.0968
   34MOL   C42340089   2.075   0.106   5.481 -0.0993 -0.1062 -0.0015
   34MOL   C42440090   2.023   0.023   5.371  1.1047  0.2166 -0.0606
   34MOL   C42540091   2.128   7.726   5.275 -0.4644 -0.0222 -0.2752
   34MOL   C42640092   2.087   7.611   5.187 -1.0225  0.6980  0.2906
   34MOL   C42740093   2.190   7.578   5.078 -0.0868  0.7503  0.8404
   34MOL   C42840094   2.153   7.446   5.003 -0.5542 -0.5370 -0.1427
   34MOL   C42940095   2.276   7.418   4.913  0.5604 -0.2116  0.2165
   34MOL   C43040096   2.275   7.272   4.879 -0.0896  0.7979 -0.1135
   34MOL   C43140097   2.378   7.217   4.781 -0.0565 -0.0346  0.4516
   34MOL   C43240098   2.398   7.066   4.777  0.2464 -0.8598  0.0692
   34MOL   O43340099   2.459   7.023   4.898 -0.0156  0.3205  0.0760
   34MOL   C43440100   2.452   6.897   4.934 -0.2042  0.5204  0.6835
   34MOL   O43540101   2.425   6.797   4.861  0.7459  0.2456 -0.1686
   34MOL   C43640102   2.518   6.881   5.073 -0.5821 -0.3894  0.0484
   34MOL   C43740103   2.669   6.860   5.059  0.0759 -0.3118  0.0255
   34MOL   C43840104   2.753   6.966   4.981 -0.0085 -0.2387 -0.5630
   34MOL   C43940105   2.910   6.960   5.009 -0.3778 -0.3050 -0.3797
   34MOL   C44040106   2.982   6.833   5.026 -0.1143  0.9770  0.2744
   34MOL   C44140107   2.981   6.738   4.898  0.3328  0.3512  0.0603
   34MOL   C44240108   3.046   6.598   4.909  0.1475 -0.5639  0.5137
   34MOL   C44340109   2.951   6.504   4.988 -0.4327  0.6247 -0.0386
   34MOL   C44440110   2.982   6.358   4.977  0.1546  0.4996  0.2290
   34MOL   O44540111   2.932   6.270   5.047  0.4282 -0.5062 -0.2923
   34MOL   H44640112   2.138   0.182   5.434  0.3084 -0.8222 -0.6190
   34MOL   H44740113   2.135   0.039   5.543  2.6481  1.1890 -1.2013
   34MOL   H44840114   1.972   7.692   5.409  0.0494  0.4889 -0.8164
   34MOL   H44940115   1.954   0.075   5.304 -0.9484 -2.0009  0.2429
   34MOL   H45040116   2.164   0.052   5.214 -0.0172 -0.3962 -0.5214
   34MOL   H45140117   2.207   7.686   5.339 -0.4413 -1.8273 -1.4239
   34MOL   H45240118   2.072   7.526   5.254 -0.3365 -0.1889 -0.6581
   34MOL   H45340119   1.994   7.634   5.134 -0.5984  2.3628  0.2481
   34MOL   H45440120   2.291   7.566   5.116  0.4187  3.0281  0.2437
   34MOL   H45540121   2.192   7.656   5.003 -0.1294 -0.8405 -0.8581
   34MOL   H45640122   2.062   7.431   4.945 -0.7575  0.4918 -0.1004
   34MOL   H45740123   2.163   7.364   5.074  0.6170  0.8206  1.2758
   34MOL   H45840124   2.374   7.434   4.958  0.9360  3.8476 -1.8332
   34MOL   H45940125   2.263   7.483   4.826 -1.1352 -2.2337 -1.0967
   34MOL   H46040126   2.177   7.242   4.843 -0.7507  0.7738  1.6289
   34MOL   H46140127   2.296   7.215   4.970  0.9073  2.3704  0.6729
   34MOL   H46240128   2.341   7.256   4.686 -2.3029 -0.8777  0.9458
   34MOL   H46340129   2.471   7.268   4.807 -0.5740  0.2721  1.7639
   34MOL   H46440130   2.304   7.010   4.775  0.0925 -0.5842 -0.7883
   34MOL   H46540131   2.455   7.031   4.691 -0.2172 -0.6880 -0.3091
   34MOL   H46640132   2.477   6.793   5.123 -0.1759 -1.6088 -1.7391
   34MOL   H46740133   2.498   6.967   5.138 -0.8037 -0.1714 -0.3103
   34MOL   H46840134   2.674   6.769   4.998  2.6879 -0.9735  1.1419
   34MOL   H46940135   2.705   6.849   5.161 -0.0411 -1.5520 -0.0602
   34MOL   H47040136   2.717   7.068   4.994  0.7996 -0.1345  0.9700
   34MOL   H47140137   2.730   6.960   4.874 -0.5740  0.4932 -0.4878
   34MOL   H47240138   2.922   7.008   5.106  0.7614 -0.7934 -0.2741
   34MOL   H47340139   2.966   7.025   4.942 -0.8148  0.6358  0.1625
   34MOL   H47440140   3.086   6.851   5.055  0.0262 -1.4601  1.4419
   34MOL   H47540141   2.955   6.784   5.119 -1.6423  2.1546  0.4750
   34MOL   H47640142   2.879   6.726   4.863 -0.2568  0.3345  1.7335
   34MOL   H47740143   3.031   6.791   4.817  0.6639  0.1753  0.1473
   34MOL   H47840144   3.146   6.614   4.949 -1.0352  0.1155  3.3278
   34MOL   H47940145   3.048   6.551   4.811  2.5325  1.0780 -0.2713
   34MOL   H48040146   2.953   6.533   5.093  0.1079 -1.8802  0.6570
   34MOL   H48140147   2.853   6.525   4.944 -0.0724  1.2953 -0.5363
   34MOL   O48240148   3.083   6.328   4.894  0.1709 -0.3529 -0.9010
   34MOL   C48340149   3.119   6.193   4.867  0.2238 -0.0048  0.1821
   34MOL   C48440150   3.264   6.195   4.822  0.2032  0.0730  0.0208
   34MOL   C48540151   3.284   6.253   4.680 -0.7406  0.9095 -0.0069
   34MOL   C48640152   3.437   6.278   4.642  0.3144  0.7702  0.1918
   34MOL   C48740153   3.461   6.341   4.505  0.5191  0.1549  0.2756
   34MOL   C48840154   3.605   6.370   4.484  0.0090  0.0627 -0.4251
   34MOL   C48940155   3.649   6.429   4.353 -0.0294 -0.1251  0.6540
   34MOL   C49040156   3.801   6.439   4.325 -0.1239 -0.4973 -0.0641
   34MOL   C49140157   3.844   6.488   4.188 -0.5169 -1.2774  0.4693
   34MOL   C49240158   3.996   6.510   4.194  0.0661 -0.3526  0.5907
   34MOL   O49340159   4.059   6.555   4.075  0.0407 -0.0200  0.0757
   34MOL   C49440160   4.104   6.678   4.064 -0.9034 -0.3864 -0.5480
   34MOL   O49540161   4.091   6.759   4.155 -0.0991  0.1919 -0.1956
   34MOL   C49640162   4.155   6.724   3.923  0.1219 -0.2095 -0.4119
   34MOL   C49740163   4.215   6.869   3.921  0.0594  0.7743  0.2052
   34MOL   C49840164   4.362   6.875   3.970  0.0434  0.6533 -0.0235
   34MOL   C49940165   4.455   6.830   3.852 -0.6207  0.4718  0.1284
   34MOL   C50040166   4.604   6.802   3.892 -0.1448  0.6628 -0.4116
   34MOL   C50140167   4.689   6.928   3.906 -0.4968  0.7059  0.5689
   34MOL   C50240168   4.761   6.970   3.776  0.1420  0.5248  0.1272
   34MOL   C50340169   4.881   6.879   3.745  0.0837 -0.0921 -0.1896
   34MOL   C50440170   4.978   6.929   3.638  0.7854  0.8679 -0.4359
   34MOL   O50540171   4.991   7.046   3.607  0.8620 -0.0775  0.2936
   34MOL   H50640172   3.109   6.128   4.954  0.6899 -0.6329 -0.2319
   34MOL   H50740173   3.052   6.148   4.794 -0.0449  2.0601 -0.8786
   34MOL   H50840174   3.327   6.250   4.891  0.2687  1.6681 -1.2774
   34MOL   H50940175   3.298   6.091   4.817  2.4127  0.8124 -1.5477
   34MOL   H51040176   3.249   6.173   4.615  0.3188 -0.5187  1.1574
   34MOL   H51140177   3.236   6.350   4.664 -1.6536  0.1721 -1.9075
   34MOL   H51240178   3.480   6.348   4.714  0.1778  2.3078 -1.1699
   34MOL   H51340179   3.491   6.183   4.646 -0.7035  0.0875 -1.5258
   34MOL   H51440180   3.400   6.431   4.499  0.1493 -0.2124 -1.7174
   34MOL   H51540181   3.417   6.279   4.426  1.8435 -0.7245  0.2168
   34MOL   H51640182   3.664   6.280   4.503 -0.6575  0.2339  2.7527
   34MOL   H51740183   3.636   6.440   4.562 -0.5354 -0.1188 -0.0417
   34MOL   H51840184   3.616   6.530   4.332  1.4667  0.6869  2.0651
   34MOL   H51940185   3.614   6.368   4.270  2.1066 -0.1248 -0.2978
   34MOL   H52040186   3.850   6.343   4.342 -0.6181 -0.8285 -0.5017
   34MOL   H52140187   3.841   6.506   4.402 -3.5157 -0.7291  1.9976
   34MOL   H52240188   3.814   6.420   4.109 -0.8744  0.2281 -0.7159
   34MOL   H52340189   3.790   6.581   4.169  0.8268 -0.5009  0.3685
   34MOL   H52440190   4.030   6.564   4.283  1.5889 -2.3442  1.2757
   34MOL   H52540191   4.036   6.408   4.202  2.4034  0.6490  2.5007
   34MOL   H52640192   4.071   6.730   3.855 -0.1230  0.4946 -0.0561
   34MOL   H52740193   4.241   6.667   3.889  0.4850 -0.1402  0.3631
   34MOL   H52840194   4.161   6.945   3.976 -0.4363 -1.0439  2.3172
   34MOL   H52940195   4.207   6.905   3.818 -0.2408 -2.7033 -1.0798
   34MOL   H53040196   4.379   6.817   4.061 -0.1403  0.4009 -0.1512
   34MOL   H53140197   4.388   6.977   3.996  1.3102  0.1949  0.5622
   34MOL   H53240198   4.470   6.906   3.775  0.1776  0.2575  0.0719
   34MOL   H53340199   4.411   6.749   3.793  3.5490 -1.5251 -0.3858
   34MOL   H53440200   4.603   6.751   3.988  1.8066 -0.7068 -1.0789
   34MOL   H53540201   4.655   6.733   3.825 -0.3966 -1.5992  1.6760
   34MOL   H53640202   4.646   7.018   3.950 -0.2226  1.6961 -1.1669
   34MOL   H53740203   4.757   6.902   3.987  0.1304  0.7298  0.0473
   34MOL   H53840204   4.794   7.074   3.777 -2.0003  1.2229  0.0572
   34MOL   H53940205   4.685   6.971   3.698 -1.4474 -1.3095  1.6406
   34MOL   H54040206   4.944   6.862   3.833 -1.7582 -2.1142  0.7968
   34MOL   H54140207   4.852   6.776   3.722 -0.0513 -0.1282  0.1418
   34MOL   O54240208   5.051   6.831   3.575 -0.1214  0.7175 -0.5017
   34MOL   C54340209   5.123   6.854   3.465 -0.1343 -0.2455  0.1976
   34MOL   C54440210   5.066   6.761   3.357 -0.0365 -0.0317 -0.5192
   34MOL   C54540211   5.160   6.749   3.240  0.7953 -0.2579 -0.6788
   34MOL   C54640212   5.164   6.876   3.142 -0.3165 -0.0927 -0.4116
   34MOL   C54740213   5.242   6.848   3.017 -0.0324 -0.3999  0.2001
   34MOL   C54840214   5.257   6.968   2.922 -0.2166 -0.0915 -0.2324
   34MOL   C54940215   5.359   6.950   2.803 -0.4014  0.1343 -0.6218
   34MOL   C55040216   5.508   6.952   2.842 -0.1991 -0.1118  0.1345
   34MOL   C55140217   5.606   6.941   2.730  0.0568  0.4964  0.4422
   34MOL   C55240218   5.753   6.924   2.774  0.3698 -0.4729 -0.1902
   34MOL   O55340219   5.784   6.786   2.804 -0.4646  0.2484  0.4032
   34MOL   C55440220   5.791   6.694   2.712  0.0154  0.0723  0.0756
   34MOL   O55540221   5.755   6.716   2.594 -0.9478 -0.3786 -0.1905
   34MOL   C55640222   5.829   6.559   2.769 -0.3708 -0.7324 -0.2441
   34MOL   C55740223   5.933   6.483   2.678 -0.1053 -0.1060  0.3496
   34MOL   C55840224   6.068   6.552   2.653 -0.1345 -0.4408  0.7779
   34MOL   C55940225   6.128   6.508   2.518 -0.4328 -0.2835 -0.3100
   34MOL   C56040226   6.045   6.556   2.396 -0.7745  0.1795  0.7516
   34MOL   C56140227   6.128   6.549   2.266 -0.0967 -0.2636 -0.1431
   34MOL   C56240228   6.181   6.411   2.216  0.1577  0.4555  0.0201
   34MOL   C56340229   6.068   6.314   2.192  0.3643  0.1341  0.0593
   34MOL   C56440230   5.971   6.349   2.075 -0.0010  0.4244 -0.4933
   34MOL   O56540231   6.004   6.379   1.959 -0.1336 -0.1544 -0.4669
   34MOL   H56640232   5.140   6.960   3.446  0.1759 -0.4802 -0.8605
   34MOL   H56740233   5.220   6.816   3.496  0.1422 -0.7656 -1.2877
   34MOL   H56840234   5.052   6.667   3.411 -2.4890  0.3992 -0.3116
   34MOL   H56940235   4.968   6.799   3.327 -1.4867 -1.7400  1.8505
   34MOL   H57040236   5.261   6.725   3.271  0.3131 -0.1193  1.0169
   34MOL   H57140237   5.130   6.657   3.189  0.4627 -1.2921  1.3364
   34MOL   H57240238   5.061   6.885   3.108 -0.2802 -2.5663 -1.2683
   34MOL   H57340239   5.207   6.962   3.194  0.4518 -1.5134  1.3957
   34MOL   H57440240   5.183   6.770   2.970  0.4861  0.2049 -1.4982
   34MOL   H57540241   5.340   6.809   3.043 -0.0746  0.1411  1.2127
   34MOL   H57640242   5.294   7.042   2.993 -1.0482 -2.2752  2.5576
   34MOL   H57740243   5.158   6.995   2.886 -0.0560  1.3938  0.3728
   34MOL   H57840244   5.352   7.024   2.723 -0.2003  1.4219  0.5307
   34MOL   H57940245   5.319   6.866   2.747 -3.0900  0.6158  0.5113
   34MOL   H58040246   5.511   6.864   2.906  2.2739  0.2870  0.5877
   34MOL   H58140247   5.535   7.042   2.897  1.4326  0.2539 -1.2394
   34MOL   H58240248   5.567   6.863   2.665  1.1461  0.8405 -0.6557
   34MOL   H58340249   5.610   7.023   2.659  1.1854 -0.2440 -0.3579
   34MOL   H58440250   5.829   6.963   2.707  2.0071  0.2352  2.0057
   34MOL   H58540251   5.769   6.986   2.863 -2.1326  0.1084 -0.1308
   34MOL   H58640252   5.737   6.501   2.777  0.2521 -2.3803 -4.1232
   34MOL   H58740253   5.869   6.576   2.869  0.7919  0.2710 -0.8764
   34MOL   H58840254   5.893   6.453   2.582  1.4832 -3.0807  0.5503
   34MOL   H58940255   5.953   6.383   2.716  0.5768 -0.4750 -0.9716
   34MOL   H59040256   6.138   6.535   2.735 -0.7065  1.6657  1.7243
   34MOL   H59140257   6.051   6.659   2.643  0.4452 -0.4430 -0.3386
   34MOL   H59240258   6.120   6.399   2.516  0.2262 -0.3627  0.9218
   34MOL   H59340259   6.230   6.543   2.507 -0.6683  0.4535 -0.2104
   34MOL   H59440260   5.953   6.497   2.395 -0.6223 -0.0938 -1.8310
   34MOL   H59540261   6.009   6.657   2.411  0.1983  0.8702 -1.3013
   34MOL   H59640262   6.061   6.587   2.190 -1.7388 -1.6380  0.5883
   34MOL   H59740263   6.210   6.620   2.266 -1.1226  1.0414  3.0184
   34MOL   H59840264   6.261   6.362   2.272  0.7662  1.7085  0.2570
   34MOL   H59940265   6.235   6.437   2.126 -1.1650  0.0193 -0.9165
   34MOL   H60040266   6.104   6.212   2.176 -1.2305 -0.2880 -1.0951
   34MOL   H60140267   6.003   6.308   2.279 -0.5557  0.6876 -0.5811
   34MOL   O60240268   5.839   6.359   2.122 -0.4071  0.1173  0.0965
   34MOL   C60340269   5.737   6.414   2.037  0.4910  0.0080  0.3047
   34MOL   C60440270   5.600   6.341   2.033  0.4680  0.5806 -0.2199
   34MOL   C60540271   5.516   6.328   2.162 -0.3701 -0.6907  0.3885
   34MOL   C60640272   5.394   6.230   2.146 -0.1712 -0.1975  0.2194
   34MOL   C60740273   5.320   6.223   2.276  0.6844 -0.1301  0.4100
   34MOL   C60840274   5.251   6.358   2.322  0.4560 -0.2025  0.1299
   34MOL   C60940275   5.132   6.350   2.419  0.6915 -0.1557 -0.6442
   34MOL   C61040276   5.070   6.493   2.455 -0.1801  0.2724 -0.2234
   34MOL   C61140277   4.971   6.491   2.564  0.3470  0.1175  0.0448
   34MOL   C61240278   5.012   6.427   2.701 -0.5018  0.8128 -0.3588
   34MOL   O61340279   5.118   6.515   2.757 -0.0149  0.5306  0.4697
   34MOL   C61440280   5.201   6.462   2.846  1.3965  0.4689 -0.0536
   34MOL   O61540281   5.169   6.361   2.910 -0.4451 -0.1674  0.0773
   34MOL   C61640282   5.331   6.534   2.870 -0.4795  0.2686  0.5579
   34MOL   C61740283   5.453   6.473   2.795  0.4302  0.6329  1.2029
   34MOL   C61840284   5.445   6.463   2.640 -0.0003 -0.2073 -0.2307
   34MOL   C61940285   5.555   6.400   2.562 -0.3999 -0.2893  0.4153
   34MOL   C62040286   5.605   6.260   2.606  0.4610  0.0031 -0.2588
   34MOL   C62140287   5.700   6.199   2.511  0.1864  0.3155 -0.0682
   34MOL   C62240288   5.729   6.045   2.544 -0.4536  0.1449 -0.0839
   34MOL   C62340289   5.620   5.942   2.527  0.6002  0.3810 -0.0938
   34MOL   C62440290   5.658   5.795   2.568  0.6214  0.0522 -0.3311
   34MOL   O62540291   5.767   5.765   2.613 -0.0168 -0.4049 -0.5108
   34MOL   H62640292   5.722   6.518   2.066 -0.9404 -0.3405  0.8803
   34MOL   H62740293   5.773   6.416   1.934 -0.2952 -1.5809 -0.0202
   34MOL   H62840294   5.539   6.390   1.956 -1.5802  0.4402  1.2806
   34MOL   H62940295   5.610   6.238   1.999  0.1812  1.2697 -2.4905
   34MOL   H63040296   5.584   6.291   2.239  0.4579 -0.3720 -0.1899
   34MOL   H63140297   5.483   6.425   2.199 -0.9720 -0.8442  0.2752
   34MOL   H63240298   5.336   6.270   2.063  0.0399 -2.0114 -0.8234
   34MOL   H63340299   5.426   6.132   2.109  2.5034 -0.4299  2.8771
   34MOL   H63440300   5.377   6.179   2.358  1.1748  1.3876  0.8972
   34MOL   H63540301   5.233   6.161   2.255  0.6785 -0.4697  1.4365
   34MOL   H63640302   5.222   6.404   2.228  0.3584  1.4431  0.9488
   34MOL   H63740303   5.327   6.417   2.373  0.4662  0.1234 -0.2612
   34MOL   H63840304   5.148   6.289   2.508  2.7552  1.5971  0.2322
   34MOL   H63940305   5.045   6.309   2.367 -0.8592  2.1202  0.0507
   34MOL   H64040306   5.037   6.530   2.358 -0.8903  0.4697  0.0941
   34MOL   H64140307   5.146   6.562   2.492 -2.0849  1.2562  1.9282
   34MOL   H64240308   4.933   6.593   2.569 -0.0098  0.1049 -1.7762
   34MOL   H64340309   4.879   6.437   2.541  0.4269  0.5512 -1.3702
   34MOL   H64440310   4.926   6.427   2.768 -0.0077  2.1254  0.2992
   34MOL   H64540311   5.040   6.322   2.699  0.0680  0.8709  2.4135
   34MOL   H64640312   5.354   6.536   2.976  1.3856 -3.4588  0.2943
   34MOL   H64740313   5.319   6.634   2.827 -0.2965 -0.6876 -1.7890
   34MOL   H64840314   5.470   6.372   2.833 -1.7320 -0.1911  0.0569
   34MOL   H64940315   5.541   6.532   2.821  0.6787  0.2313  1.2770
   34MOL   H65040316   5.433   6.562   2.596  1.8311 -0.6021 -1.7058
   34MOL   H65140317   5.352   6.411   2.616 -1.2930  1.5236  0.8506
   34MOL   H65240318   5.628   6.478   2.585 -2.8627  1.5780  2.1369
   34MOL   H65340319   5.527   6.401   2.457 -3.0542 -0.7671  1.0784
   34MOL   H65440320   5.638   6.260   2.710 -2.1047  1.6064  0.6176
   34MOL   H65540321   5.515   6.200   2.610 -0.9318  2.0959  1.1973
   34MOL   H65640322   5.662   6.212   2.410  0.3566  2.2237  0.0866
   34MOL   H65740323   5.793   6.255   2.526  0.1230 -0.2914  2.8775
   34MOL   H65840324   5.770   6.039   2.645 -0.1817 -1.4081 -0.2729
   34MOL   H65940325   5.817   6.010   2.490  0.0274 -1.4950  1.6981
   34MOL   H66040326   5.537   5.976   2.589  1.1518  2.0338 -0.2490
   34MOL   H66140327   5.585   5.938   2.424 -1.0637 -2.0619  0.4978
   34MOL   O66240328   5.549   5.714   2.558 -0.0216 -0.2081  0.1639
   34MOL   C66340329   5.562   5.572   2.578  0.5077  0.1102  0.5025
   34MOL   C66440330   5.497   5.546   2.718 -0.2002  0.2696  0.1080
   34MOL   C66540331   5.604   5.526   2.826  0.3617  0.1135 -0.5191
   34MOL   C66640332   5.546   5.505   2.972 -0.1077  0.2258 -0.3313
   34MOL   C66740333   5.655   5.495   3.075 -0.0891 -0.4844 -0.4057
   34MOL   C66840334   5.610   5.469   3.222 -0.2376  0.3248  0.0694
   34MOL   C66940335   5.709   5.406   3.323  0.3490 -0.0633  0.3715
   34MOL   C67040336   5.836   5.483   3.347  0.4895  0.2385 -0.6759
   34MOL   C67140337   5.924   5.449   3.470  0.0274 -0.5255 -0.2040
   34MOL   C67240338   6.054   5.529   3.474  0.0925 -0.6813  0.0152
   34MOL   O67340339   6.036   5.667   3.433  0.0830 -0.2946 -0.0115
   34MOL   C67440340   6.095   5.711   3.328 -0.8646  0.5147 -0.8931
   34MOL   O67540341   6.172   5.648   3.263 -0.5662  0.1216  1.1001
   34MOL   C67640342   6.054   5.850   3.284  0.1323 -0.8455 -0.4519
   34MOL   C67740343   5.951   5.846   3.168 -0.2710  0.1755 -0.8671
   34MOL   C67840344   5.924   5.983   3.124 -0.1478 -0.1033  0.1085
   34MOL   C67940345   5.816   5.998   3.012 -0.4644  0.0079  0.0386
   34MOL   C68040346   5.795   6.148   2.974  0.0254 -0.2306  0.0609
   34MOL   C68140347   5.751   6.227   3.103 -0.2673  0.6295 -0.1477
   34MOL   C68240348   5.688   6.376   3.075 -0.1152 -0.4902 -0.5320
   34MOL   C68340349   5.663   6.452   3.205  0.5633  0.2746  0.2701
   34MOL   C68440350   5.618   6.598   3.177 -0.7083  0.4141 -0.4207
   34MOL   O68540351   5.612   6.638   3.061  0.7411  0.2691  0.0454
   34MOL   H68640352   5.518   5.516   2.496  0.1766 -0.2986  0.9634
   34MOL   H68740353   5.666   5.542   2.590  0.3290 -0.5294  0.4561
   34MOL   H68840354   5.412   5.611   2.740  0.0312  0.0940  1.5105
   34MOL   H68940355   5.465   5.444   2.696 -0.9368  0.6989 -0.8835
   34MOL   H69040356   5.677   5.450   2.799  0.8471  0.0914  0.8013
   34MOL   H69140357   5.662   5.618   2.834 -0.5605  0.7732 -1.4069
   34MOL   H69240358   5.486   5.594   2.995  0.1257  0.0093  1.1528
   34MOL   H69340359   5.479   5.419   2.974  0.5009 -0.2337  1.6617
   34MOL   H69440360   5.709   5.589   3.064  1.4178 -1.3506 -0.5395
   34MOL   H69540361   5.720   5.411   3.050  2.3687  1.3084 -0.2419
   34MOL   H69640362   5.527   5.398   3.216 -0.6200  0.6970  0.8961
   34MOL   H69740363   5.560   5.555   3.267  0.7174 -0.1586  2.0673
   34MOL   H69840364   5.735   5.307   3.286 -2.1864 -1.3418  1.8183
   34MOL   H69940365   5.656   5.392   3.418 -0.5879  0.6060 -0.0331
   34MOL   H70040366   5.810   5.588   3.363 -1.6960 -0.4733  0.6686
   34MOL   H70140367   5.895   5.478   3.256  2.6178 -2.2415  0.7887
   34MOL   H70240368   5.861   5.469   3.556  1.4369 -1.5425  1.0891
   34MOL   H70340369   5.947   5.342   3.472 -1.2340 -0.8001 -0.2361
   34MOL   H70440370   6.101   5.528   3.572  0.1537  0.7192  0.0093
   34MOL   H70540371   6.130   5.481   3.412 -0.8557 -1.2208 -0.7438
   34MOL   H70640372   6.145   5.906   3.260 -0.3538  1.1788  2.1191
   34MOL   H70740373   6.002   5.879   3.375 -2.1418 -1.6231 -1.4749
   34MOL   H70840374   5.860   5.789   3.185 -0.0001 -0.4830 -1.5735
   34MOL   H70940375   5.990   5.784   3.087  0.0887  2.1395 -2.2365
   34MOL   H71040376   6.021   6.021   3.093 -0.7243  0.1569 -1.4329
   34MOL   H71140377   5.896   6.028   3.219 -1.2803  0.4135 -0.4482
   34MOL   H71240378   5.716   5.963   3.037 -0.1500  0.1298  1.4980
   34MOL   H71340379   5.844   5.944   2.921  0.2526 -0.0313  0.2875
   34MOL   H71440380   5.889   6.198   2.951 -0.2792  0.1272 -0.4167
   34MOL   H71540381   5.722   6.161   2.894  0.6265 -0.1266 -0.4784
   34MOL   H71640382   5.675   6.166   3.152 -0.4339 -0.7815 -2.1291
   34MOL   H71740383   5.838   6.233   3.168 -1.1217  0.0895  1.0691
   34MOL   H71840384   5.599   6.383   3.012  0.4728  1.8706 -1.1555
   34MOL   H71940385   5.763   6.435   3.023 -1.1721 -0.0513 -1.5973
   34MOL   H72040386   5.587   6.400   3.264  1.3271 -1.7612 -0.5107
   34MOL   H72140387   5.754   6.455   3.265 -0.2592 -2.2095  1.6807
   34MOL   O72240388   5.608   6.679   3.287  0.2637  0.2986  0.1258
   34MOL   C72340389   5.576   6.819   3.284  0.2435  0.5957  0.9024
   34MOL   C72440390   5.569   6.863   3.426 -0.3709 -0.9659 -0.4673
   34MOL   C72540391   5.512   6.999   3.435 -0.0323 -0.4799 -0.1931
   34MOL   C72640392   5.523   7.056   3.579 -0.3152  0.7553 -0.3420
   34MOL   C72740393   5.410   7.008   3.664 -0.1756  0.2643 -0.3965
   34MOL   C72840394   5.412   7.043   3.815  0.0002  0.2074  0.5810
   34MOL   C72940395   5.351   7.173   3.852  0.0569 -0.2976 -0.1693
   34MOL   C73040396   5.204   7.178   3.826 -0.0921 -0.1141  0.2718
   34MOL   C73140397   5.139   7.309   3.872  0.5623  0.2214  0.2341
   34MOL   C73240398   4.985   7.305   3.861 -0.0501  0.6120 -0.3088
   34MOL   O73340399   4.913   7.428   3.903 -0.0427 -0.3585  0.5099
   34MOL   C73440400   4.777   7.425   3.911 -0.3477  0.1761 -0.6662
   34MOL   O73540401   4.706   7.323   3.922  0.0578  0.0943 -0.5121
   34MOL   C73640402   4.722   7.572   3.923 -0.3552  0.0370  0.4982
   34MOL   C73740403   4.827   7.690   3.942  0.2938 -0.3695  0.0159
   34MOL   C73840404   4.911   7.721   3.815 -0.8359 -0.4896 -0.0062
   34MOL   C73940405   4.996   0.082   3.833 -0.3972 -0.4769 -0.2629
   34MOL   C74040406   5.062   0.111   3.700 -0.6594 -0.1753  0.5836
   34MOL   C74140407   5.070   0.259   3.671 -0.1923 -0.3038 -0.2221
   34MOL   C74240408   5.169   0.348   3.757  0.0294  0.0851 -0.2886
   34MOL   C74340409   5.314   0.310   3.749 -0.2702  0.0590  0.1690
   34MOL   C74440410   5.380   0.403   3.643 -0.4047 -0.3067 -0.7589
   34MOL   O74540411   5.479   0.473   3.666  0.3540 -0.1806  0.6794
   34MOL   H74640412   5.650   6.873   3.225 -0.2953 -0.2885 -0.6318
   34MOL   H74740413   5.484   6.838   3.228  1.3875  0.7291 -0.9697
   34MOL   H74840414   5.503   6.794   3.478 -1.1026 -1.2457 -1.7475
   34MOL   H74940415   5.663   6.862   3.481 -0.5767 -0.2977 -0.0960
   34MOL   H75040416   5.571   7.069   3.374  2.4674 -1.2264  1.3138
   34MOL   H75140417   5.413   7.003   3.389 -0.5000 -0.4773  0.8059
   34MOL   H75240418   5.613   7.028   3.633 -0.5357  0.1978 -0.2610
   34MOL   H75340419   5.521   7.164   3.567  0.7151  0.9033  0.7890
   34MOL   H75440420   5.406   6.899   3.669 -0.0948  0.1822 -1.7169
   34MOL   H75540421   5.320   7.049   3.616 -1.1012  0.5879  1.5704
   34MOL   H75640422   5.514   7.034   3.854  0.7241 -0.7093 -1.4140
   34MOL   H75740423   5.363   6.957   3.861  0.7666 -1.0181 -0.8426
   34MOL   H75840424   5.396   7.257   3.800 -0.3523 -0.8589 -1.4537
   34MOL   H75940425   5.366   7.175   3.960  0.0606 -0.8498 -0.1577
   34MOL   H76040426   5.149   7.093   3.865  1.8792 -1.7256 -0.3895
   34MOL   H76140427   5.200   7.170   3.718 -0.4673  3.1555 -0.0175
   34MOL   H76240428   5.160   7.310   3.979  2.3765  2.5853 -0.1218
   34MOL   H76340429   5.191   7.396   3.833  0.9228 -0.3896 -0.6715
   34MOL   H76440430   4.962   7.285   3.756  1.0837 -0.3661 -0.3770
   34MOL   H76540431   4.955   7.218   3.919  2.7629  0.9754  1.7948
   34MOL   H76640432   4.647   7.570   4.003 -0.5244  2.9146  0.4358
   34MOL   H76740433   4.658   7.580   3.835  1.5704 -1.7954 -1.1477
   34MOL   H76840434   4.897   7.662   4.022  1.7988 -4.1127 -2.4979
   34MOL   H76940435   4.770   0.018   3.980 -1.8143 -1.1684 -1.3288
   34MOL   H77040436   4.844   7.719   3.728 -1.1065 -0.6859  0.2084
   34MOL   H77140437   4.976   7.635   3.802 -0.2984 -0.0069 -0.5404
   34MOL   H77240438   5.075   0.073   3.907 -2.1599  0.5664  1.7894
   34MOL   H77340439   4.946   0.166   3.881 -1.2464 -2.0470  1.6705
   34MOL   H77440440   5.154   0.052   3.690 -0.2329  0.4240  0.9381
   34MOL   H77540441   4.994   0.073   3.624 -0.1614  0.5088 -0.2146
   34MOL   H77640442   5.096   0.271   3.566 -1.0825 -1.9682 -0.6498
   34MOL   H77740443   4.967   0.293   3.683  0.5828  2.3138 -0.6935
   34MOL   H77840444   5.131   0.331   3.858  0.3512  1.6068  0.0967
   34MOL   H77940445   5.154   0.453   3.733  0.5285  0.1149 -0.4594
   34MOL   H78040446   5.349   0.342   3.847  1.0773  2.3596 -0.9929
   34MOL   H78140447   5.335   0.203   3.744  1.4153  0.4167 -0.7630
   34MOL   O78240448   5.325   0.395   3.521 -0.2251  0.0113  0.3451
   34MOL   C78340449   5.376   0.483   3.420 -0.0924  0.0192 -0.3365
   34MOL   C78440450   5.265   0.552   3.344 -0.0317 -0.5316 -0.4540
   34MOL   C78540451   5.324   0.640   3.233  0.7665  0.1212 -0.2129
   34MOL   C78640452   5.214   0.710   3.150 -0.3924  0.3597 -0.5015
   34MOL   C78740453   5.272   0.823   3.070  0.4668  0.1150  0.1257
   34MOL   C78840454   5.375   0.774   2.970 -0.0707 -0.2544 -0.3245
   34MOL   C78940455   5.406   0.886   2.878 -0.0721  0.5620 -0.3722
   34MOL   C79040456   5.499   0.842   2.763  0.0126 -0.5153 -0.1314
   34MOL   C79140457   5.533   0.932   2.650  0.0518 -0.3071 -0.2122
   34MOL   C79240458   5.622   0.870   2.540  0.1196 -0.0150  0.4157
   34MOL   O79340459   5.755   0.841   2.587  0.6794  0.6802 -0.2694
   34MOL   C79440460   5.834   0.783   2.503 -0.0499 -0.0089 -0.4835
   34MOL   O79540461   5.801   0.741   2.395 -0.1291  0.3811 -0.7076
   34MOL   C79640462   5.978   0.780   2.554  0.4498 -0.0785  1.2974
   34MOL   C79740463   6.055   0.663   2.477  0.0303  0.2821 -0.3319
   34MOL   C79840464   6.190   0.646   2.541  0.7907 -0.0638 -0.1259
   34MOL   C79940465   6.276   0.541   2.468  0.8703  0.1666 -0.2053
   34MOL   C80040466   6.414   0.523   2.530  0.5246  0.2766  0.6294
   34MOL   C80140467   6.503   0.647   2.518 -0.0551  0.2818  1.2129
   34MOL   C80240468   6.542   0.698   2.373  0.2000 -0.0386  0.5490
   34MOL   C80340469   6.627   0.830   2.383  0.0935  0.4991  0.3203
   34MOL   C80440470   6.688   0.875   2.252  0.5193 -0.0633  0.5701
   34MOL   O80540471   6.719   0.802   2.159 -0.1529  0.1927 -0.0099
   34MOL   H80640472   5.455   0.548   3.458  0.9920 -3.0182  2.8680
   34MOL   H80740473   5.437   0.427   3.349 -0.1929 -0.2562 -0.2070
   34MOL   H80840474   5.197   0.474   3.310  0.3524 -1.4281  0.7805
   34MOL   H80940475   5.209   0.611   3.418  1.4045  1.0726 -0.6098
   34MOL   H81040476   5.379   0.720   3.283 -0.0079  0.9323 -0.6368
   34MOL   H81140477   5.397   0.583   3.175  0.4083 -0.5867  0.0281
   34MOL   H81240478   5.158   0.634   3.096 -2.6386  0.6682  1.3156
   34MOL   H81340479   5.136   0.743   3.218 -1.8191 -1.5726 -1.1867
   34MOL   H81440480   5.307   0.902   3.138 -1.7423  0.5333  0.8198
   34MOL   H81540481   5.192   0.872   3.015  1.9187  3.3050  0.6935
   34MOL   H81640482   5.342   0.685   2.915  2.0967 -0.4941 -1.3103
   34MOL   H81740483   5.461   0.737   3.026  0.6613  1.9867  0.0799
   34MOL   H81840484   5.450   0.977   2.921  1.9596 -1.7013  2.5445
   34MOL   H81940485   5.314   0.919   2.830  1.2323 -0.6406 -3.9168
   34MOL   H82040486   5.455   0.754   2.717  0.2603 -1.9925  2.3338
   34MOL   H82140487   5.593   0.807   2.807 -1.0146 -0.6799  2.0038
   34MOL   H82240488   5.441   0.958   2.599  0.9164  0.1048 -1.5925
   34MOL   H82340489   5.574   1.020   2.700 -0.3756 -0.9584  1.2946
   34MOL   H82440490   5.568   0.784   2.503 -0.7029  0.9066 -0.5464
   34MOL   H82540491   5.630   0.934   2.452  2.1268 -1.0134 -0.1586
   34MOL   H82640492   5.969   0.768   2.662 -0.0913 -0.6920  1.1918
   34MOL   H82740493   6.021   0.877   2.529  0.3039 -0.4818 -0.6713
   34MOL   H82840494   6.059   0.685   2.371  0.2508  0.6091 -0.2533
   34MOL   H82940495   5.991   0.576   2.493 -1.4502  1.4049 -0.0776
   34MOL   H83040496   6.185   0.628   2.649 -0.0755  0.5552 -0.0583
   34MOL   H83140497   6.247   0.737   2.521 -0.6412  0.6427 -1.1093
   34MOL   H83240498   6.288   0.579   2.367  0.5375 -1.8436 -1.0343
   34MOL   H83340499   6.224   0.445   2.461  1.7190 -0.4696  1.9324
   34MOL   H83440500   6.395   0.493   2.633  0.4836 -2.2302 -0.0929
   34MOL   H83540501   6.459   0.434   2.488  1.9591  0.9245  0.7697
   34MOL   H83640502   6.463   0.737   2.564  2.9224  0.8292  2.9073
   34MOL   H83740503   6.593   0.622   2.575  0.7508 -2.8893 -1.3198
   34MOL   H83840504   6.452   0.732   2.322 -0.3884  1.2895  2.4266
   34MOL   H83940505   6.594   0.622   2.315 -2.0605 -0.6409 -0.7841
   34MOL   H84040506   6.565   0.916   2.407  0.4271  0.5076  1.1732
   34MOL   H84140507   6.705   0.820   2.458  1.3944 -0.1772 -1.1076
   34MOL   O84240508   6.720   1.007   2.267  0.5844 -0.1278 -0.0241
   34MOL   C84340509   6.794   1.074   2.165 -0.2448  0.0212  0.1479
   34MOL   C84440510   6.916   1.157   2.231  0.1533  0.7468 -0.0136
   34MOL   C84540511   6.974   1.089   2.353  0.8569 -0.7892 -0.2675
   34MOL   C84640512   7.115   1.133   2.399  0.3336  0.0868  0.2837
   34MOL   C84740513   7.116   1.281   2.443  0.3880 -0.7179  0.3099
   34MOL   C84840514   7.050   1.292   2.584  0.7938  0.4066  0.0062
   34MOL   C84940515   6.961   1.417   2.612 -0.5187  0.3031 -0.7492
   34MOL   C85040516   6.833   1.403   2.527  0.3754  0.1054  0.2857
   34MOL   C85140517   6.712   1.474   2.587  0.1799  0.4629  0.3107
   34MOL   C85240518   6.592   1.457   2.500  0.0375 -0.2367 -0.0191
   34MOL   O85340519   6.618   1.525   2.379 -0.0823 -0.1346 -0.2153
   34MOL   C85440520   6.635   1.457   2.261 -0.4192  0.5110 -0.6822
   34MOL   O85540521   6.625   1.334   2.240  0.1081 -0.7086 -0.4117
   34MOL   C85640522   6.665   1.559   2.147 -0.0444 -0.4834  0.8450
   34MOL   C85740523   6.778   1.504   2.051  0.1493  0.3135  0.4617
   34MOL   C85840524   6.905   1.584   2.022 -0.4998  0.1392 -0.7172
   34MOL   C85940525   6.999   1.571   2.147  0.3962 -0.7414 -0.4641
   34MOL   C86040526   7.147   1.605   2.109 -0.2632 -0.6899 -0.4289
   34MOL   C86140527   7.233   1.570   2.228 -0.3300  0.1314 -0.3218
   34MOL   C86240528   7.378   1.609   2.216 -0.2822  0.4180 -0.3943
   34MOL   C86340529   7.449   1.575   2.353  0.0689  0.3309  0.7674
   34MOL   C86440530   7.446   1.701   2.447  0.1523  0.1599 -0.0768
   34MOL   O86540531   7.539   1.723   2.517 -0.3505 -0.5559  0.1030
   34MOL   H86640532   6.839   1.005   2.093  0.4325 -0.3108  0.8720
   34MOL   H86740533   6.736   1.143   2.105 -0.1973  0.4309  0.5680
   34MOL   H86840534   6.987   1.185   2.153  0.2370  0.4934 -0.0297
   34MOL   H86940535   6.866   1.249   2.259 -0.8324  0.0643  0.5152
   34MOL   H87040536   6.906   1.107   2.436 -0.0947 -1.7256 -0.8437
   34MOL   H87140537   6.970   0.984   2.327  1.5014 -0.8761 -0.0294
   34MOL   H87240538   7.148   1.070   2.481 -1.7593  1.0993  1.9789
   34MOL   H87340539   7.185   1.132   2.316  1.9315  2.9835  1.5087
   34MOL   H87440540   7.068   1.351   2.374  0.2082 -0.1724  0.9887
   34MOL   H87540541   7.219   1.313   2.455 -0.1850  1.2911  0.0952
   34MOL   H87640542   7.135   1.297   2.652  1.1050 -0.8572 -0.2797
   34MOL   H87740543   7.003   1.205   2.629  0.3205 -0.4614 -2.1078
   34MOL   H87840544   7.006   1.511   2.578  1.6181 -1.1798 -2.1198
   34MOL   H87940545   6.933   1.418   2.718 -0.0246  2.4006 -0.6108
   34MOL   H88040546   6.810   1.297   2.518 -1.1461  0.5168 -0.7484
   34MOL   H88140547   6.846   1.439   2.426 -2.8142  1.5489  0.3385
   34MOL   H88240548   6.683   1.428   2.682 -0.6720 -0.1282 -0.2217
   34MOL   H88340549   6.721   1.580   2.607 -2.2430  0.9826 -1.1519
   34MOL   H88440550   6.590   1.349   2.491 -2.0939 -0.2247 -0.0028
   34MOL   H88540551   6.499   1.489   2.548  1.1956  2.5884  0.4577
   34MOL   H88640552   6.712   1.643   2.197 -1.3033  1.4359 -1.0955
   34MOL   H88740553   6.579   1.588   2.085  0.6672 -0.4855 -0.1590
   34MOL   H88840554   6.721   1.482   1.961 -0.8205 -0.1570  1.1907
   34MOL   H88940555   6.820   1.409   2.086  0.2212 -0.5820 -1.9103
   34MOL   H89040556   6.890   1.689   1.994  0.1793  0.3738 -0.1998
   34MOL   H89140557   6.941   1.538   1.930  0.0113 -3.1735  1.0580
   34MOL   H89240558   7.003   1.467   2.176 -2.8720 -0.6027  0.6332
   34MOL   H89340559   6.971   1.628   2.235 -1.3203 -1.3009 -0.6393
   34MOL   H89440560   7.177   1.563   2.013  1.2146 -1.6851  0.4556
   34MOL   H89540561   7.166   1.709   2.086  2.4607 -1.5814 -2.5107
   34MOL   H89640562   7.196   1.614   2.321 -3.3035 -0.2848 -1.2546
   34MOL   H89740563   7.234   1.462   2.244 -1.7011  0.2610  0.8063
   34MOL   H89840564   7.374   1.714   2.187 -0.8798  0.3471 -0.5839
   34MOL   H89940565   7.420   1.548   2.137  0.0490 -0.5130  0.4853
   34MOL   H90040566   7.401   1.486   2.394 -0.4396 -0.5305 -1.6109
   34MOL   H90140567   7.551   1.565   2.317 -0.1813  0.5109  0.0030
   34MOL   O90240568   7.329   1.762   2.447 -0.3855  0.1338 -0.1553
   34MOL   C90340569   7.308   1.863   2.543 -0.2498 -0.5185  1.2896
   34MOL   C90440570   7.159   1.880   2.569  0.6022 -0.3630 -0.4981
   34MOL   C90540571   7.085   1.929   2.443  0.1050 -0.0712 -0.7660
   34MOL   C90640572   6.948   1.989   2.469 -0.0484 -0.5296 -0.1632
   34MOL   C90740573   6.845   1.891   2.520 -0.3473 -0.2037  0.0336
   34MOL   C90840574   6.697   1.936   2.517  0.4125 -0.1034 -0.3133
   34MOL   C90940575   6.595   1.844   2.579 -0.8796  0.4780  0.0034
   34MOL   C91040576   6.457   1.911   2.608 -0.0746  0.6331 -0.6377
   34MOL   C91140577   6.357   1.814   2.674 -0.1306 -0.2177  0.0309
   34MOL   C91240578   6.220   1.879   2.699 -0.0827 -0.1436 -1.4598
   34MOL   O91340579   6.206   1.905   2.839  0.4534  0.0571 -0.0611
   34MOL   C91440580   6.133   2.009   2.879 -0.1507  0.8356  0.3151
   34MOL   O91540581   6.063   2.082   2.811  0.0229 -0.1548 -0.1911
   34MOL   C91640582   6.138   2.021   3.033 -0.1650 -0.3055  0.0293
   34MOL   C91740583   6.269   2.085   3.083 -0.0523  0.4012  0.0894
   34MOL   C91840584   6.389   1.983   3.097  0.4447  0.1350  0.7770
   34MOL   C91940585   6.524   2.039   3.135 -0.2285  0.9060  0.1015
   34MOL   C92040586   6.576   2.145   3.034  0.4169 -1.0681 -0.4212
   34MOL   C92140587   6.729   2.174   3.047 -0.3396 -0.3741 -0.6124
   34MOL   C92240588   6.808   2.063   2.979 -0.7495 -0.1430  0.9906
   34MOL   C92340589   6.965   2.090   2.985 -0.0240  1.4219 -0.8946
   34MOL   C92440590   7.023   2.069   3.121 -0.1913 -0.3245 -0.4391
   34MOL   O92540591   7.091   2.164   3.174  0.3105 -0.0137  0.4869
   34MOL   H92640592   7.353   1.829   2.636 -2.1258 -3.1573  1.2660
   34MOL   H92740593   7.341   1.962   2.511 -2.6258 -0.2933 -0.5338
   34MOL   H92840594   7.118   1.781   2.591  1.4511 -0.7346 -0.5531
   34MOL   H92940595   7.143   1.947   2.653 -2.0451 -0.4299 -0.9194
   34MOL   H93040596   7.142   2.013   2.405  0.9796  0.9890  2.7083
   34MOL   H93140597   7.090   1.842   2.377 -0.1847 -0.5872 -0.1208
   34MOL   H93240598   6.949   2.074   2.537 -0.5144  0.6520 -1.5940
   34MOL   H93340599   6.902   2.036   2.382 -0.2459  1.1706  0.8359
   34MOL   H93440600   6.869   1.866   2.623  0.8412 -0.9722 -0.4130
   34MOL   H93540601   6.842   1.794   2.472 -1.6218 -0.2239  0.1325
   34MOL   H93640602   6.666   1.950   2.413 -1.1776  1.0867  0.3079
   34MOL   H93740603   6.693   2.034   2.565 -1.1553  0.1360 -0.8947
   34MOL   H93840604   6.636   1.806   2.673  3.0598  1.2181 -1.3132
   34MOL   H93940605   6.588   1.751   2.522 -2.6080  0.3193  0.4528
   34MOL   H94040606   6.414   1.955   2.518  1.2961 -0.4857 -1.8677
   34MOL   H94140607   6.472   1.992   2.679 -0.7835 -0.6955  1.0731
   34MOL   H94240608   6.335   1.736   2.602 -1.6687  0.1948  0.0279
   34MOL   H94340609   6.395   1.767   2.765  0.9597 -1.6816 -1.1720
   34MOL   H94440610   6.201   1.963   2.634 -0.9727  1.4183  0.7662
   34MOL   H94540611   6.133   1.816   2.683  1.3467 -3.0307  1.3611
   34MOL   H94640612   6.115   1.927   3.084  0.7327 -0.8311 -0.5205
   34MOL   H94740613   6.072   2.105   3.053 -0.5179 -0.9714  1.7666
   34MOL   H94840614   6.247   2.134   3.178  1.6339  1.8615 -0.2502
   34MOL   H94940615   6.297   2.162   3.012 -0.1039 -0.5826 -1.0001
   34MOL   H95040616   6.408   1.945   2.997 -2.1673 -1.1998  0.7476
   34MOL   H95140617   6.355   1.898   3.156 -0.1378 -0.9208 -1.0595
   34MOL   H95240618   6.590   1.958   3.165 -0.8084  0.4563  0.1565
   34MOL   H95340619   6.509   2.086   3.233  0.2641  1.1624  0.0567
   34MOL   H95440620   6.550   2.126   2.929 -1.1674 -1.4966  0.0391
   34MOL   H95540621   6.517   2.233   3.059  1.1018 -1.4253  2.5229
   34MOL   H95640622   6.759   2.271   3.006  0.9609  0.3201  1.8675
   34MOL   H95740623   6.757   2.161   3.152 -1.2044  0.4165 -0.2750
   34MOL   H95840624   6.790   2.050   2.872  0.3510  0.0496  0.7704
   34MOL   H95940625   6.783   1.963   3.012 -1.0753  0.3389  2.2154
   34MOL   H96040626   7.031   2.040   2.915  0.8585  0.8792  0.3174
   34MOL   H96140627   6.979   2.198   2.973  0.0565  1.3422 -1.5316
   34MOL   O96240628   7.014   1.947   3.176 -0.4012  0.0058 -0.2908
   34MOL   C96340629   7.061   1.932   3.307 -0.2170 -0.7613  0.3005
   34MOL   C96440630   6.990   1.814   3.378 -0.4448 -0.4242  0.0130
   34MOL   C96540631   6.835   1.847   3.396 -0.1457  1.0454 -0.6714
   34MOL   C96640632   6.759   1.725   3.449 -0.2983 -1.1257  0.2668
   34MOL   C96740633   6.632   1.756   3.523  0.5319 -0.4331 -0.0290
   34MOL   C96840634   6.567   1.648   3.612  0.1888  0.2920  0.8193
   34MOL   C96940635   6.450   1.704   3.697 -0.6122 -0.6199 -0.3550
   34MOL   C97040636   6.321   1.725   3.611 -0.3470 -0.3321  0.8446
   34MOL   C97140637   6.189   1.711   3.688 -0.2146  0.3868 -0.1133
   34MOL   C97240638   6.068   1.670   3.616 -0.2680  0.3945 -0.1287
   34MOL   O97340639   6.049   1.532   3.638 -0.5468 -0.2319 -0.6741
   34MOL   C97440640   5.927   1.472   3.612  0.9201  0.7136  0.4127
   34MOL   O97540641   5.830   1.530   3.565 -0.3125 -0.6846  0.9962
   34MOL   C97640642   5.921   1.327   3.660  0.1037  0.4101 -0.3107
   34MOL   C97740643   5.978   1.298   3.798 -0.1519  0.3592  0.3295
   34MOL   C97840644   5.894   1.332   3.921 -0.0536 -0.3739  0.0256
   34MOL   C97940645   5.972   1.327   4.056 -0.0397 -0.1964  0.3018
   34MOL   C98040646   5.890   1.371   4.177 -0.1423  0.1329 -0.1555
   34MOL   C98140647   5.968   1.359   4.305 -0.0270 -0.4382 -0.6340
   34MOL   C98240648   5.982   1.206   4.342  0.3160 -0.4048  0.1758
   34MOL   C98340649   6.042   1.183   4.478  0.2562  0.0947 -0.0360
   34MOL   C98440650   6.035   1.035   4.529 -0.1880  0.2752 -0.4600
   34MOL   O98540651   5.948   1.010   4.618  0.0829 -0.0584  0.3033
   34MOL   H98640652   7.169   1.914   3.317 -0.0787  0.4087  0.9582
   34MOL   H98740653   7.042   2.023   3.364  1.2715  0.7990 -1.6377
   34MOL   H98840654   7.003   1.718   3.329 -1.8456 -0.6779  0.1224
   34MOL   H98940655   7.043   1.816   3.473 -0.0657  0.8336 -0.2067
   34MOL   H99040656   6.843   1.933   3.463 -0.7611  2.4189 -2.3392
   34MOL   H99140657   6.808   1.868   3.293  0.8706 -1.0596 -1.3959
   34MOL   H99240658   6.741   1.646   3.375 -1.7823 -2.8333  2.3873
   34MOL   H99340659   6.814   1.666   3.522  0.1175  0.3261  1.1291
   34MOL   H99440660   6.544   1.798   3.475 -0.7348  1.2290  3.5333
   34MOL   H99540661   6.662   1.835   3.592 -2.4583  0.3152  0.5209
   34MOL   H99640662   6.651   1.610   3.669  0.3701  1.3609  1.2880
   34MOL   H99740663   6.527   1.561   3.560  0.5574  0.6810 -0.1329
   34MOL   H99840664   6.490   1.792   3.747  0.9804  0.2049 -3.0057
   34MOL   H99940665   6.429   1.638   3.781 -2.0492 -0.0708 -0.2719
   34MOL     H140666   6.322   1.649   3.533  0.4906 -1.5229  2.0200
   34MOL     H240667   6.332   1.821   3.559 -0.5082 -0.7864 -0.0279
   34MOL     H340668   6.211   1.638   3.766 -0.2433 -0.0563 -0.5204
   34MOL     H440669   6.162   1.805   3.736 -0.7343  0.9322 -1.4409
   34MOL     H540670   5.983   1.731   3.647 -0.0188 -0.1797  1.6780
   34MOL     H640671   6.077   1.695   3.510  1.0651 -1.0670 -0.3721
   34MOL     H740672   5.979   1.268   3.588  2.1909  2.1839 -0.1592
   34MOL     H840673   5.816   1.299   3.667  0.2185  0.3778  1.4832
   34MOL     H940674   6.076   1.344   3.807  0.6833 -0.9701 -1.5524
   34MOL    H1040675   6.009   1.194   3.786 -1.2821  0.2481 -1.8709
   34MOL    H1140676   5.824   1.249   3.913 -1.4602  0.5313  2.3225
   34MOL    H1240677   5.840   1.426   3.905 -0.0991 -0.4230 -0.1057
   34MOL    H1340678   6.051   1.393   4.020  1.5554 -2.3833 -0.2851
   34MOL    H1440679   6.012   1.226   4.068  0.1160 -0.1122  0.4907
   34MOL    H1540680   5.881   1.479   4.167  0.2542  0.1556 -0.2973
   34MOL    H1640681   5.792   1.324   4.185 -0.0442 -0.1887 -0.7547
   34MOL    H1740682   6.071   1.395   4.297  0.0649  0.1928  2.7488
   34MOL    H1840683   5.916   1.408   4.388 -1.6640 -0.3317 -1.7072
   34MOL    H1940684   6.055   1.161   4.274 -0.1308 -0.4860 -0.2499
   34MOL    H2040685   5.885   1.158   4.330  0.3080 -0.4966  0.5944
   34MOL    H2140686   6.147   1.212   4.482  0.4504 -0.8066  2.4438
   34MOL    H2240687   5.994   1.246   4.553  0.1661 -0.8622  0.7325
   34MOL    O2340688   6.134   0.955   4.487  0.0638  0.4517  0.3209
   34MOL    C2440689   6.145   0.824   4.551 -0.0506  0.5934 -0.1121
   34MOL    C2540690   6.261   0.848   4.651  0.3145 -0.3160  0.6919
   34MOL    C2640691   6.385   0.924   4.599 -0.3141  1.0012 -0.6198
   34MOL    C2740692   6.512   0.891   4.680 -0.2257 -0.0747  0.0895
   34MOL    C2840693   6.560   0.742   4.671 -0.1662  0.5765 -0.6095
   34MOL    C2940694   6.597   0.690   4.528  0.4619 -0.9523  0.1243
   34MOL    C3040695   6.683   0.560   4.551  0.0151 -0.8781  1.0558
   34MOL    C3140696   6.717   0.479   4.424 -0.1079  0.0309  0.3609
   34MOL    C3240697   6.793   0.353   4.455  0.8089  0.6153 -0.1905
   34MOL    C3340698   6.790   0.252   4.341  0.0043 -0.4399 -0.0162
   34MOL    O3440699   6.660   0.203   4.316  0.2285  0.4517 -0.1223
   34MOL    C3540700   6.649   0.105   4.221 -0.0614  0.0574 -0.0411
   34MOL    O3640701   6.743   0.053   4.162  0.3953 -0.1499  0.1187
   34MOL    C3740702   6.504   0.074   4.180  0.4106  0.5582 -0.0472
   34MOL    C3840703   6.417   0.002   4.290  0.0991  0.0455 -0.7171
   34MOL    C3940704   6.485   7.653   4.371 -0.8646  0.2141 -0.0058
   34MOL    C4040705   6.390   7.552   4.428 -0.0053  0.2024  0.0924
   34MOL    C4140706   6.278   7.609   4.519  0.1992  0.7038  0.1108
   34MOL    C4240707   6.185   7.498   4.572 -0.0864  0.0627  0.0353
   34MOL    C4340708   6.069   7.538   4.664  0.0408 -0.0218  0.7327
   34MOL    C4440709   5.967   7.428   4.701 -0.4232  0.4709 -0.1997
   34MOL    C4540710   5.872   7.487   4.804 -0.3197  0.8497  0.2663
   34MOL    O4640711   5.879   7.445   4.924  0.2995  0.5438 -0.1514
   34MOL    H4740712   6.061   0.796   4.614  1.0349 -0.6992  0.7863
   34MOL    H4840713   6.173   0.743   4.483 -2.1370 -1.5296  1.5102
   34MOL    H4940714   6.224   0.900   4.740  0.4452  0.9862 -0.0141
   34MOL    H5040715   6.287   0.748   4.687  0.8557 -0.0927  0.9271
   34MOL    H5140716   6.396   0.891   4.496  0.2262 -1.2052  0.1065
   34MOL    H5240717   6.383   1.033   4.597  0.0774  0.9952 -1.2613
   34MOL    H5340718   6.592   0.950   4.633 -1.3481 -0.0144 -1.8097
   34MOL    H5440719   6.500   0.930   4.781 -1.0336  0.9281 -0.3824
   34MOL    H5540720   6.495   0.677   4.730  0.8668  0.9869  1.0198
   34MOL    H5640721   6.652   0.744   4.730  0.5076  0.9892 -1.6548
   34MOL    H5740722   6.648   0.767   4.472 -0.8987  0.6490  1.0149
   34MOL    H5840723   6.503   0.668   4.477 -1.0131  0.8283  1.9522
   34MOL    H5940724   6.642   0.494   4.627 -2.6365 -0.7606 -0.2524
   34MOL    H6040725   6.777   0.598   4.593  0.6498 -0.0709 -1.0545
   34MOL    H6140726   6.769   0.537   4.347 -1.5672  0.3335 -0.4166
   34MOL    H6240727   6.614   0.457   4.395  0.2693 -3.3393  1.3756
   34MOL    H6340728   6.893   0.379   4.487 -0.0794  1.3422  2.0863
   34MOL    H6440729   6.748   0.311   4.545  0.9184 -0.7885 -0.7688
   34MOL    H6540730   6.836   0.294   4.252 -1.9184 -0.6082 -1.1049
   34MOL    H6640731   6.855   0.165   4.357  1.1451 -0.1944 -3.0076
   34MOL    H6740732   6.515   0.001   4.099  0.9998  0.4002  0.1723
   34MOL    H6840733   6.455   0.156   4.128  1.4892  1.8328  0.9338
   34MOL    H6940734   6.328   7.717   4.242  0.3585 -0.3778 -0.8285
   34MOL    H7040735   6.369   0.075   4.355  0.6596  1.4467 -1.8389
   34MOL    H7140736   6.547   7.696   4.450  1.3344 -2.8013 -0.0144
   34MOL    H7240737   6.558   7.602   4.309 -0.8094 -1.9297  1.7513
   34MOL    H7340738   6.448   7.472   4.476  1.7658  1.0274 -0.6391
   34MOL    H7440739   6.338   7.495   4.352 -1.9476  1.1178  0.7053
   34MOL    H7540740   6.321   7.673   4.596  0.5766  0.9450 -0.2940
   34MOL    H7640741   6.212   7.673   4.461  0.5698 -0.8580 -2.1156
   34MOL    H7740742   6.146   7.428   4.498  1.2946 -1.3396  0.6043
   34MOL    H7840743   6.251   7.438   4.635  3.1927  3.7371  0.3180
   34MOL    H7940744   6.013   7.618   4.615  0.3531  0.2652  0.8364
   34MOL    H8040745   6.114   7.589   4.749  1.4794  0.3568 -0.2416
   34MOL    H8140746   5.930   7.392   4.605  0.6935  0.5296 -0.6599
   34MOL    H8240747   6.032   7.350   4.742 -1.4397 -0.3265 -0.0802
   34MOL    O8340748   5.777   7.578   4.754 -0.3250  0.3066 -0.4803
   34MOL    C8440749   5.699   7.662   4.838  0.5561  0.6195  0.0038
   34MOL    C8540750   5.545   7.653   4.830 -0.1241 -0.4631  0.5507
   34MOL    C8640751   5.488   7.534   4.901 -0.2342  0.6496  0.0908
   34MOL    C8740752   5.484   7.395   4.834 -0.3669  0.2886  0.4619
   34MOL    C8840753   5.414   7.286   4.915  1.3159 -0.2007 -0.5357
   34MOL    C8940754   5.436   7.276   5.065  0.3052  0.4830  0.5663
   34MOL    C9040755   5.350   7.164   5.128  0.8032 -0.0446 -0.2128
   34MOL    C9140756   5.355   7.158   5.284  0.3691  0.2467  0.6209
   34MOL    C9240757   5.488   7.093   5.333 -0.3846  0.6534 -0.3790
   34MOL    C9340758   5.485   7.053   5.490  0.5540 -0.1965 -0.0983
   34MOL    O9440759   5.613   7.035   5.532 -0.5848  0.3905 -0.6090
   34MOL    C9540760   5.678   6.918   5.516 -0.3198  0.0265  0.2789
   34MOL    O9640761   5.639   6.808   5.486 -0.0769 -0.1158  0.2761
   34MOL    C9740762   5.826   6.943   5.530  0.5801  0.2301  0.0649
   34MOL    C9840763   5.890   6.909   5.667  0.4039  0.5544  0.2510
   34MOL    C9940764   5.901   6.757   5.688  0.0941 -0.9894  0.0314
   34MOL   C10040765   5.966   6.722   5.824 -0.2537 -0.1788  0.0843
   34MOL   C10140766   5.955   6.577   5.861  0.1978  0.3510 -0.1185
   34MOL   C10240767   6.042   6.536   5.984 -0.2350 -0.1323  0.3021
   34MOL   C10340768   6.044   6.384   6.018 -0.2222  0.3176 -0.2510
   34MOL   C10440769   6.179   6.335   6.068  0.4769  0.8912  0.1548
   34MOL   C10540770   6.184   6.183   6.073  0.0766  0.1981  0.2959
   34MOL   O10640771   6.132   6.117   5.984  0.2056 -0.2903 -0.2233
   34MOL   H10740772   5.742   7.637   4.935 -0.3323  1.2690  0.5735
   34MOL   H10840773   5.726   0.011   4.826  1.7813  0.2187 -0.9466
   34MOL   H10940774   5.513   7.741   4.885  0.7032 -0.6897  1.4221
   34MOL   H11040775   5.512   7.656   4.727  0.0597 -2.2424  0.4252
   34MOL   H11140776   5.541   7.511   4.993  1.3747  2.5784 -0.3039
   34MOL   H11240777   5.385   7.560   4.926 -0.5942  0.2475 -0.9644
   34MOL   H11340778   5.451   7.409   4.732  0.3688  2.1164  0.4405
   34MOL   H11440779   5.589   7.365   4.829 -0.9374 -1.4936 -1.1187
   34MOL   H11540780   5.430   7.186   4.874  2.6445 -0.2144 -0.0170
   34MOL   H11640781   5.307   7.299   4.899  1.1025  0.9859  1.6035
   34MOL   H11740782   5.409   7.371   5.112 -2.0524  0.4934 -0.7521
   34MOL   H11840783   5.540   7.265   5.097  0.1793 -1.4106  0.3764
   34MOL   H11940784   5.376   7.064   5.093  0.7218  0.2950 -1.2596
   34MOL   H12040785   5.250   7.156   5.085  0.5929 -3.4191  0.7533
   34MOL   H12140786   5.277   7.089   5.318  1.2827 -1.0066  0.2370
   34MOL   H12240787   5.335   7.255   5.330  0.3686  0.0270  1.0871
   34MOL   H12340788   5.503   7.002   5.276 -1.9756  1.2639 -1.8048
   34MOL   H12440789   5.573   7.159   5.313 -0.9568  0.8868 -2.1949
   34MOL   H12540790   5.436   7.134   5.544 -2.1547  0.1814 -2.9278
   34MOL   H12640791   5.423   6.967   5.515 -1.5448  0.8177 -1.6550
   34MOL   H12740792   5.839   7.049   5.508 -1.4854  0.0779 -2.0138
   34MOL   H12840793   5.873   6.885   5.451 -3.0922 -3.1543  0.2293
   34MOL   H12940794   5.833   6.950   5.751  0.4404 -0.9470  1.0164
   34MOL   H13040795   5.990   6.953   5.677  0.5588  0.3944 -0.5599
   34MOL   H13140796   5.948   6.708   5.603  2.2926  0.3397  0.4180
   34MOL   H13240797   5.799   6.719   5.684 -0.3588  0.1371  0.5760
   34MOL   H13340798   5.911   6.776   5.901  1.8662 -0.0036  1.5383
   34MOL   H13440799   6.067   6.762   5.826 -0.4325  0.2809 -0.1153
   34MOL   H13540800   5.854   6.545   5.885  1.1343 -2.1012  0.6245
   34MOL   H13640801   5.988   6.516   5.777  0.1868 -0.2786  0.3368
   34MOL   H13740802   6.144   6.571   5.965  1.0253 -3.9867 -0.3459
   34MOL   H13840803   6.027   6.608   6.065 -1.0103  0.6531 -0.5233
   34MOL   H13940804   6.016   6.330   5.927 -3.4481 -1.4117  1.6793
   34MOL   H14040805   5.970   6.342   6.087 -0.3114 -1.2546 -1.2804
   34MOL   H14140806   6.262   6.376   6.010  2.2777 -3.1928 -0.3081
   34MOL   H14240807   6.183   6.377   6.169 -2.6806 -0.3230  0.8437
   34MOL   O14340808   6.244   6.142   6.182  0.0068 -0.0266 -0.4374
   34MOL   C14440809   6.252   5.999   6.205 -0.4797  0.2987 -0.0638
   34MOL   C14540810   6.237   5.961   6.354  0.5373  0.0132 -0.0998
   34MOL   C14640811   6.346   6.028   6.442  0.2680  0.6462  0.4301
   34MOL   C14740812   6.353   5.987   6.590 -1.8137 -0.0462  0.1493
   34MOL   C14840813   6.233   6.040   6.680  0.5667  0.1970 -0.5451
   34MOL   C14940814   6.249   6.024   6.835 -0.2914 -0.0843  0.2682
   34MOL   C15040815   6.136   6.106   6.902 -0.3389  0.2312  0.3059
   34MOL   C15140816   6.126   6.108   7.058  0.0159 -0.6805 -0.3182
   34MOL   C15240817   6.005   6.187   7.109  0.3377 -0.3624 -0.1807
   34MOL   C15340818   6.030   6.244   7.248  0.6376  0.0704  0.9907
   34MOL   O15440819   6.154   6.318   7.257 -0.2584  0.3767  0.4667
   34MOL   C15540820   6.172   6.383   7.369  0.1970 -0.4420  0.5373
   34MOL   O15640821   6.094   6.374   7.467 -0.4706 -0.0020 -0.2240
   34MOL   C15740822   6.301   6.468   7.377  0.5677 -0.3093  0.0399
   34MOL   C15840823   6.433   6.382   7.373  0.2238 -0.5964  0.9387
   34MOL   C15940824   6.496   6.410   7.231  0.5276 -0.2292 -1.1613
   34MOL   C16040825   6.633   6.338   7.223 -0.6634  0.0967 -0.9261
   34MOL   C16140826   6.615   6.191   7.185 -0.0139 -0.0734  0.4083
   34MOL   C16240827   6.739   6.128   7.123  0.0501 -0.0150 -0.1281
   34MOL   C16340828   6.858   6.107   7.210 -0.8771 -0.2283  0.7609
   34MOL   C16440829   6.982   6.031   7.145  0.2819  0.7240 -0.1327
   34MOL   C16540830   6.937   5.892   7.101  0.4402 -0.3541 -0.2556
   34MOL   O16640831   6.891   5.805   7.177  0.1747  0.3723 -0.2365
   34MOL   H16740832   6.178   5.950   6.142 -0.5165  0.9058 -0.4962
   34MOL   H16840833   6.353   5.982   6.167 -0.9185 -0.3034 -0.9577
   34MOL   H16940834   6.139   5.985   6.395  1.0026  0.8254  0.5424
   34MOL   H17040835   6.244   5.854   6.376  1.1610  0.2472  0.8895
   34MOL   H17140836   6.447   6.005   6.408 -0.0664 -0.9601  0.4530
   34MOL   H17240837   6.345   6.136   6.431 -0.3841  0.6862  0.8083
   34MOL   H17340838   6.369   5.879   6.597  1.2449  0.3065 -0.8134
   34MOL   H17440839   6.441   6.041   6.623 -1.8166  0.5545 -0.7890
   34MOL   H17540840   6.140   5.991   6.654 -1.1109  1.5498  2.6224
   34MOL   H17640841   6.223   6.147   6.661 -0.1298  0.6001  1.9486
   34MOL   H17740842   6.345   6.058   6.876 -0.0435 -1.3942  0.7966
   34MOL   H17840843   6.247   5.921   6.872  0.5556 -0.6325 -1.1363
   34MOL   H17940844   6.041   6.068   6.865 -1.0427 -0.2432  2.5402
   34MOL   H18040845   6.153   6.207   6.863  0.2363 -0.4760 -1.3057
   34MOL   H18140846   6.217   6.154   7.099  0.3955 -0.6529 -1.1772
   34MOL   H18240847   6.119   6.004   7.090  2.0550 -0.4942  0.8516
   34MOL   H18340848   5.992   6.271   7.041 -0.0917 -0.3491 -0.0810
   34MOL   H18440849   5.912   6.131   7.099 -0.0747  0.4088 -0.7064
   34MOL   H18540850   5.952   6.317   7.272  0.7258  0.2954  0.6021
   34MOL   H18640851   6.041   6.167   7.325  2.1864  1.0364  1.7703
   34MOL   H18740852   6.304   6.514   7.475  0.9934 -0.6724  0.1954
   34MOL   H18840853   6.297   6.542   7.297  0.3469  0.0255  0.3599
   34MOL   H18940854   6.412   6.279   7.400  0.1501 -0.2961  2.0683
   34MOL   H19040855   6.508   6.407   7.449 -0.1113 -0.2894  1.1697
   34MOL   H19140856   6.507   6.519   7.230 -0.7955 -0.0589  0.3605
   34MOL   H19240857   6.425   6.383   7.153 -1.5133  2.5491 -0.3433
   34MOL   H19340858   6.688   6.354   7.315 -1.5754  4.8746 -1.0684
   34MOL   H19440859   6.693   6.390   7.148 -1.2531 -0.6825 -1.9715
   34MOL   H19540860   6.593   6.128   7.271 -0.2260  1.4363  1.4900
   34MOL   H19640861   6.546   6.173   7.103  1.2248 -1.9444 -0.2509
   34MOL   H19740862   6.720   6.033   7.073  2.0414 -2.6002  3.7199
   34MOL   H19840863   6.768   6.204   7.051 -1.7821 -0.8977 -1.8518
   34MOL   H19940864   6.829   6.046   7.296 -1.7524 -0.6427  0.1825
   34MOL   H20040865   6.898   6.198   7.254  0.7090 -0.0556 -1.0200
   34MOL   H20140866   7.024   6.090   7.065  1.1917 -0.1044 -0.2744
   34MOL   H20240867   7.051   6.018   7.228  0.0200 -1.5813 -0.2235
   34MOL   H20340868   6.948   5.874   6.994 -0.3018  0.7651 -0.5236
   35MOL     O140869   0.553   1.405   3.046 -0.5992 -0.1792 -0.2524
   35MOL     C240870   0.675   1.371   3.099  0.7180 -0.2538 -0.0272
   35MOL     C340871   0.755   1.271   3.002 -0.7366  0.0595 -0.3606
   35MOL     C440872   0.782   1.337   2.865  0.2487  0.3804 -0.1778
   35MOL     C540873   0.848   1.239   2.762  0.2273 -0.1534 -0.1509
   35MOL     C640874   0.740   1.131   2.725  0.3015 -0.8494  0.1243
   35MOL     C740875   0.753   1.063   2.592  0.5558  0.1077  0.0749
   35MOL     C840876   0.641   0.961   2.572  0.0903  0.2884 -1.2659
   35MOL     C940877   0.649   0.877   2.442  0.5784  0.3230 -0.2792
   35MOL    C1040878   0.548   0.755   2.438  0.7057 -0.1958  0.8356
   35MOL    C1140879   0.526   0.684   2.306 -0.1574 -0.1968  0.6415
   35MOL    O1240880   0.393   0.632   2.290  0.0515  0.5560 -0.1736
   35MOL    C1340881   0.376   0.506   2.253 -0.5076 -0.2960 -1.4785
   35MOL    O1440882   0.468   0.427   2.234  0.5644 -0.2523 -0.0696
   35MOL    C1540883   0.228   0.478   2.243  0.1407  0.2721  0.2585
   35MOL    C1640884   0.156   0.457   2.376 -0.4812  0.2715  0.4879
   35MOL    C1740885   0.006   0.413   2.363  0.5062  0.5149  0.0971
   35MOL    C1840886   7.687   0.442   2.488  0.7861  0.3554 -0.5457
   35MOL    C1940887   7.543   0.381   2.481  0.1414 -0.1703 -0.1635
   35MOL    C2040888   7.440   0.431   2.589 -0.2054  0.5995 -0.0290
   35MOL    C2140889   7.494   0.443   2.733  0.4113 -0.7443  0.1190
   35MOL    C2240890   7.384   0.459   2.842  0.4949 -0.3312  0.0667
   35MOL    C2340891   7.337   0.325   2.890 -0.5063  1.3345  0.0987
   35MOL    O2440892   7.391   0.284   2.990  0.0439 -0.2690 -0.6385
   35MOL    H2540893   0.724   1.466   3.116  2.2116 -0.8051 -1.2026
   35MOL    H2640894   0.673   1.326   3.199  1.4319 -0.2408 -0.0043
   35MOL    H2740895   0.848   1.244   3.050 -1.0311  2.2059  1.5262
   35MOL    H2840896   0.693   1.184   2.981 -1.4691  0.5978 -0.4675
   35MOL    H2940897   0.687   1.377   2.831  0.0706 -1.3525 -1.7749
   35MOL    H3040898   0.851   1.421   2.876  0.3499 -0.1634  4.3753
   35MOL    H3140899   0.872   1.298   2.673 -2.5088 -1.6452 -1.9658
   35MOL    H3240900   0.943   1.199   2.799  0.2792 -0.6968 -0.8487
   35MOL    H3340901   0.639   1.173   2.720  0.3745 -0.7365 -0.4481
   35MOL    H3440902   0.732   1.064   2.810  0.0882  0.7509  1.3867
   35MOL    H3540903   0.844   1.002   2.594  0.5383  0.0903  0.3742
   35MOL    H3640904   0.768   1.138   2.514 -2.3124  1.3995  0.7343
   35MOL    H3740905   0.552   1.024   2.575 -1.2262 -1.5316 -1.5542
   35MOL    H3840906   0.632   0.888   2.653 -1.7544  0.5305 -1.2209
   35MOL    H3940907   0.752   0.842   2.434  1.0604  1.6359  0.1407
   35MOL    H4040908   0.623   0.940   2.357  0.5058 -0.8254 -1.1175
   35MOL    H4140909   0.561   0.689   2.524 -0.2924 -0.1818  1.0030
   35MOL    H4240910   0.453   0.804   2.463  0.3250 -0.8327  0.6504
   35MOL    H4340911   0.542   0.747   2.219 -0.6982 -0.2060  0.5320
   35MOL    H4440912   0.601   0.606   2.292 -0.0209  0.1707 -0.7518
   35MOL    H4540913   0.219   0.388   2.182 -0.2299 -0.8736  1.9734
   35MOL    H4640914   0.170   0.557   2.195  0.5219  0.2293 -0.2706
   35MOL    H4740915   0.165   0.550   2.432 -1.9320  0.2303  0.8130
   35MOL    H4840916   0.211   0.378   2.425  0.1150 -0.6034 -1.5317
   35MOL    H4940917   0.002   0.307   2.337 -2.1943  0.8405 -0.9405
   35MOL    H5040918   7.715   0.471   2.284 -0.5686 -0.5508 -0.0569
   35MOL    H5140919   7.674   0.550   2.499 -1.4554  0.4346 -3.3881
   35MOL    H5240920   7.746   0.392   2.566  0.3945 -1.3819 -1.3447
   35MOL    H5340921   7.497   0.398   2.384 -1.6577 -0.1359  0.6839
   35MOL    H5440922   7.548   0.273   2.496 -1.5071 -0.5548 -2.1786
   35MOL    H5540923   7.412   0.534   2.566 -0.7432  0.6149  0.6816
   35MOL    H5640924   7.352   0.366   2.585 -2.0129  2.9928 -0.7306
   35MOL    H5740925   7.546   0.538   2.743 -4.8916  2.3465  0.3320
   35MOL    H5840926   7.562   0.362   2.760  0.6288 -0.7031 -0.3174
   35MOL    H5940927   7.413   0.521   2.926 -0.4049 -0.3897  0.4303
   35MOL    H6040928   7.289   0.497   2.803  0.9782 -0.4221 -1.2282
   35MOL    H6140929   0.580   1.436   2.961 -1.7226 -1.1011 -0.9629
   35MOL    O6240930   7.243   0.269   2.820  0.1186 -0.0473  0.4189
   35MOL    C6340931   7.219   0.132   2.849 -0.0587 -0.0590 -0.2289
   35MOL    C6440932   7.102   0.091   2.767 -0.1522 -0.0223 -0.4523
   35MOL    C6540933   7.139   0.093   2.613  0.2218  0.2085 -0.0438
   35MOL    C6640934   7.045   0.008   2.527  0.7711 -0.0531 -0.0197
   35MOL    C6740935   7.067   0.016   2.373  0.1578 -0.2254 -1.3051
   35MOL    C6840936   6.951   7.708   2.302  0.3814  0.0684  1.3718
   35MOL    C6940937   6.963   7.735   2.155  0.0759  0.5886 -0.1887
   35MOL    C7040938   6.855   7.666   2.080  0.6595 -0.0482  0.0224
   35MOL    C7140939   6.856   7.695   1.925  0.2639  0.5452  0.0589
   35MOL    C7240940   6.729   7.634   1.860  0.1255 -0.2240  0.4551
   35MOL    O7340941   6.738   7.493   1.867  0.0712  0.0140 -0.3158
   35MOL    C7440942   6.645   7.423   1.923 -0.4095  0.7107  0.2609
   35MOL    O7540943   6.545   7.467   1.980 -0.6814  0.0080  0.4147
   35MOL    C7640944   6.679   7.274   1.926  0.1786 -0.3102 -0.0615
   35MOL    C7740945   6.753   7.230   1.799  0.2637 -0.2953  0.7885
   35MOL    C7840946   6.670   7.222   1.672  0.3441 -0.3680 -0.5534
   35MOL    C7940947   6.544   7.142   1.679 -0.2348  0.0798 -0.0306
   35MOL    C8040948   6.482   7.136   1.540  0.2892 -0.0365 -0.3917
   35MOL    C8140949   6.352   7.063   1.538 -0.1857 -0.0127  0.3864
   35MOL    C8240950   6.312   7.039   1.390  0.5115  0.5825 -0.2039
   35MOL    C8340951   6.206   6.939   1.356 -0.3753  0.1183  0.5607
   35MOL    C8440952   6.230   6.798   1.412  0.1404  0.0968 -0.2852
   35MOL    O8540953   6.168   6.763   1.515 -0.2970 -0.1499  0.0392
   35MOL    H8640954   7.307   0.068   2.844 -0.0599  0.0719 -2.5316
   35MOL    H8740955   7.179   0.120   2.950  1.2514  2.2925  0.6022
   35MOL    H8840956   7.081   7.743   2.790  1.2593 -0.6928 -2.1547
   35MOL    H8940957   7.010   0.144   2.793  0.3114  0.1038  1.0051
   35MOL    H9040958   7.138   0.196   2.576  1.6979  0.3960  0.3858
   35MOL    H9140959   7.243   0.061   2.617  0.4132  0.9052  0.8274
   35MOL    H9240960   7.061   7.659   2.551  0.3138 -0.2233 -0.4652
   35MOL    H9340961   6.940   0.017   2.554  0.7354  2.5001 -0.8690
   35MOL    H9440962   7.169   7.742   2.348  1.3528  1.5148  1.2047
   35MOL    H9540963   7.052   0.120   2.342 -4.0580  0.2896  2.0550
   35MOL    H9640964   6.856   7.752   2.331 -1.6918 -3.2900 -0.0418
   35MOL    H9740965   6.943   7.599   2.309  0.9173 -0.2296 -1.9516
   35MOL    H9840966   7.057   7.691   2.122  1.4815  2.3639  1.3161
   35MOL    H9940967   6.979   0.083   2.126  0.1381  0.5505 -0.2920
   35MOL   H10040968   6.760   7.705   2.113  0.5985  0.6280 -0.9294
   35MOL   H10140969   6.856   7.563   2.115  0.8878 -0.7967 -2.0823
   35MOL   H10240970   6.866   0.043   1.896 -0.7296  1.1215  1.7150
   35MOL   H10340971   6.942   7.651   1.875  1.7652  1.0204  2.1863
   35MOL   H10440972   6.636   7.678   1.896  0.2454  1.8979 -1.7034
   35MOL   H10540973   6.733   7.662   1.755  0.2907 -0.0238  0.5153
   35MOL   H10640974   6.596   7.209   1.951  0.4871  0.0058  1.8333
   35MOL   H10740975   6.759   7.273   2.001 -0.2766 -0.4621  0.4231
   35MOL   H10840976   6.804   7.137   1.823  1.6485  0.4452  0.7859
   35MOL   H10940977   6.829   7.303   1.773 -0.1126 -0.5235 -1.0037
   35MOL   H11040978   6.727   7.184   1.587  1.6472  0.2548  0.0224
   35MOL   H11140979   6.646   7.327   1.656 -0.5499 -0.3294  0.9593
   35MOL   H11240980   6.475   7.176   1.756 -0.8761 -1.0378 -0.1089
   35MOL   H11340981   6.577   7.042   1.705  0.9726 -0.1738 -2.3563
   35MOL   H11440982   6.459   7.235   1.499 -0.0892  0.3475  0.7278
   35MOL   H11540983   6.552   7.091   1.470  0.5523  0.3000 -0.3455
   35MOL   H11640984   6.370   6.964   1.579  1.9606  0.3195  0.3172
   35MOL   H11740985   6.272   7.109   1.596 -1.0437 -0.9994 -0.0010
   35MOL   H11840986   6.402   7.013   1.334  1.2685  3.4980 -0.3907
   35MOL   H11940987   6.279   7.132   1.344  0.4121  0.0605 -1.1963
   35MOL   H12040988   6.112   6.973   1.402 -1.5364 -0.6975 -1.1431
   35MOL   H12140989   6.181   6.924   1.251  0.7330  1.2865  0.1158
   35MOL   O12240990   6.304   6.721   1.337 -0.2814  0.0526 -0.1905
   35MOL   C12340991   6.316   6.578   1.367  0.2236  0.0453 -0.7574
   35MOL   C12440992   6.193   6.494   1.304  0.2425  0.6338  0.6507
   35MOL   C12540993   6.202   6.492   1.153  0.0309 -0.3662 -0.0277
   35MOL   C12640994   6.096   6.416   1.087 -0.5973  0.8226  0.4146
   35MOL   C12740995   6.146   6.364   0.949 -0.1343 -0.1579  0.1494
   35MOL   C12840996   6.043   6.265   0.888  0.1110 -0.1839 -0.0290
   35MOL   C12940997   6.083   6.231   0.745  0.0042  0.0960  0.2734
   35MOL   C13040998   5.994   6.121   0.675  0.2841 -0.0511 -0.4976
   35MOL   C13140999   6.063   6.074   0.543  0.4232  0.3741  0.0590
   35MOL   C13241000   6.063   6.188   0.437  0.2897  0.5433  0.0409
   35MOL   O13341001   6.170   6.279   0.445  0.3089 -0.0813 -0.4148
   35MOL   C13441002   6.290   6.244   0.401 -0.1334  0.1838 -0.0706
   35MOL   O13541003   6.319   6.150   0.330  0.2082 -0.1636 -0.3226
   35MOL   C13641004   6.403   6.329   0.463  0.3869 -0.0543  0.1185
   35MOL   C13741005   6.375   6.401   0.591 -0.3827 -0.0887 -0.3038
   35MOL   C13841006   6.482   6.511   0.616  0.0972  0.4298  0.0615
   35MOL   C13941007   6.463   6.589   0.748  0.9914  0.1164 -0.2189
   35MOL   C14041008   6.558   6.711   0.760  0.4240 -0.1036  0.0401
   35MOL   C14141009   6.534   6.804   0.882 -0.6972  0.1083 -0.6913
   35MOL   C14241010   6.581   6.734   1.009  0.2947 -0.2255 -0.0369
   35MOL   C14341011   6.525   6.791   1.144  0.1881 -0.1408 -0.0421
   35MOL   C14441012   6.609   6.745   1.266  0.1708  1.0029 -0.4212
   35MOL   O14541013   6.658   6.627   1.275  0.0857  0.0536 -0.1426
   35MOL   H14641014   6.417   6.558   1.331  0.5381 -0.8657  0.6065
   35MOL   H14741015   6.339   6.554   1.471  0.4847 -0.6845 -0.9888
   35MOL   H14841016   6.202   6.389   1.330 -1.6814  0.4439  0.5991
   35MOL   H14941017   6.097   6.535   1.336 -0.9378 -1.9743  0.5738
   35MOL   H15041018   6.188   6.591   1.108 -2.8859 -1.5070 -1.7725
   35MOL   H15141019   6.300   6.454   1.123  0.1515  0.5107 -0.7736
   35MOL   H15241020   6.062   6.331   1.146 -2.0046  0.1040 -1.3620
   35MOL   H15341021   6.011   6.483   1.073  0.0096  1.3569 -0.7653
   35MOL   H15441022   6.237   6.306   0.962  0.6670  1.3461  1.2453
   35MOL   H15541023   6.172   6.451   0.890  2.2218 -1.4732 -0.7825
   35MOL   H15641024   5.942   6.305   0.891  0.4878  0.8445 -0.7514
   35MOL   H15741025   6.053   6.174   0.946 -0.2629 -1.1205 -1.3970
   35MOL   H15841026   6.185   6.192   0.746 -0.0638 -0.3640 -3.2291
   35MOL   H15941027   6.079   6.321   0.684 -0.2949  0.5488  0.9512
   35MOL   H16041028   5.893   6.159   0.656 -0.0421 -0.5949  0.0972
   35MOL   H16141029   5.966   6.035   0.737  0.2212  1.0497  1.0334
   35MOL   H16241030   6.165   6.041   0.563  0.4651  1.0065  0.9159
   35MOL   H16341031   6.008   5.990   0.502  1.1625 -0.5161  0.8602
   35MOL   H16441032   6.069   6.145   0.337  1.8061  0.3658  0.1998
   35MOL   H16541033   5.967   6.240   0.435 -0.1579 -0.2161  1.2629
   35MOL   H16641034   6.458   6.381   0.385  0.5301 -0.2364  0.0953
   35MOL   H16741035   6.474   6.259   0.509  1.5072  0.6818 -0.4607
   35MOL   H16841036   6.375   6.325   0.669  0.2482  0.9633  0.7418
   35MOL   H16941037   6.277   6.447   0.592 -0.7131 -0.7926  0.3915
   35MOL   H17041038   6.454   6.580   0.536 -0.9719 -1.6135 -1.3695
   35MOL   H17141039   6.583   6.473   0.606  0.1219  0.6608 -0.5230
   35MOL   H17241040   6.476   6.519   0.830 -0.0691 -0.0956 -0.2248
   35MOL   H17341041   6.360   6.625   0.754  0.5091 -1.2943  0.0338
   35MOL   H17441042   6.663   6.680   0.757  1.5849  3.5036 -0.0754
   35MOL   H17541043   6.548   6.768   0.667 -2.2788 -2.4634 -1.1692
   35MOL   H17641044   6.580   6.903   0.876 -0.7073  0.2245  0.9974
   35MOL   H17741045   6.426   6.813   0.895 -0.8539 -1.1183 -1.0755
   35MOL   H17841046   6.688   6.746   1.023  0.3464 -2.0448  1.3598
   35MOL   H17941047   6.558   6.627   1.008  0.3784 -0.2471  0.2198
   35MOL   H18041048   6.525   6.900   1.154 -1.0426  0.0147 -1.4168
   35MOL   H18141049   6.418   6.770   1.144  0.0575  0.5133  0.9967
   35MOL   O18241050   6.617   6.848   1.359 -0.4240  0.2417 -0.4175
   35MOL   C18341051   6.688   6.823   1.483 -0.2488  0.1182  0.0635
   35MOL   C18441052   6.823   6.887   1.477  0.1973  0.1631  0.1401
   35MOL   C18541053   6.916   6.839   1.586 -0.6720 -0.5348  0.0782
   35MOL   C18641054   7.055   6.907   1.592 -1.1283 -0.2324 -0.9347
   35MOL   C18741055   7.144   6.865   1.718  0.2236  0.1270  0.8756
   35MOL   C18841056   7.119   6.942   1.847  0.5660  0.8979 -0.1136
   35MOL   C18941057   7.225   6.906   1.942  0.0721 -0.0262  0.3910
   35MOL   C19041058   7.218   6.764   2.003  0.0105 -0.0990  0.3243
   35MOL   C19141059   7.322   6.742   2.117  0.0027  0.2098  0.1418
   35MOL   C19241060   7.312   6.599   2.177 -0.4141  0.0210 -0.6436
   35MOL   O19341061   7.421   6.579   2.264 -0.4004 -0.5133  0.4157
   35MOL   C19441062   7.410   6.627   2.388  0.1846  0.0690  0.2932
   35MOL   O19541063   7.313   6.672   2.448 -0.4188  0.7412 -0.0611
   35MOL   C19641064   7.542   6.606   2.462 -0.1892 -0.1796  0.1670
   35MOL   C19741065   7.561   6.467   2.509 -0.2497 -0.0538 -0.5698
   35MOL   C19841066   7.500   6.441   2.648  0.3727 -0.0346  0.4115
   35MOL   C19941067   7.349   6.415   2.653 -0.3980  0.1405  0.2782
   35MOL   C20041068   7.282   6.366   2.780  0.5720 -0.0886  0.8782
   35MOL   C20141069   7.133   6.394   2.772 -0.1296 -0.7096  0.3426
   35MOL   C20241070   7.105   6.537   2.806 -0.0028  0.4494  0.2939
   35MOL   C20341071   6.957   6.568   2.817 -0.2988 -0.9869  0.0464
   35MOL   C20441072   6.918   6.715   2.803  0.3256 -0.8259 -0.5227
   35MOL   O20541073   6.862   6.781   2.897  0.3451 -0.3492  0.3259
   35MOL   H20641074   6.639   6.879   1.562 -0.2905 -0.7456  0.6623
   35MOL   H20741075   6.698   6.720   1.520 -0.1739  0.2093  0.2975
   35MOL   H20841076   6.864   6.854   1.382 -0.5603 -1.6884  0.4368
   35MOL   H20941077   6.816   6.996   1.474 -1.2812  0.0377 -2.4018
   35MOL   H21041078   6.874   6.840   1.687 -1.3071  2.0669 -0.1912
   35MOL   H21141079   6.943   6.737   1.559  0.7611 -0.5806  1.6338
   35MOL   H21241080   7.110   6.890   1.500 -2.9143 -0.8986 -1.9148
   35MOL   H21341081   7.033   7.013   1.607  1.2466  0.0352  0.8341
   35MOL   H21441082   7.248   6.874   1.687 -0.6684 -2.3917 -3.2582
   35MOL   H21541083   7.131   6.757   1.726  0.1900 -0.0743 -1.4654
   35MOL   H21641084   7.026   6.922   1.900  0.2486  1.6922 -0.3694
   35MOL   H21741085   7.112   7.049   1.831  0.7682  1.0273  0.6351
   35MOL   H21841086   7.225   6.977   2.025 -2.1514  0.0080  0.3979
   35MOL   H21941087   7.319   6.909   1.887  0.0486  0.0453  0.3560
   35MOL   H22041088   7.244   6.689   1.928  1.7351 -1.0930  1.8984
   35MOL   H22141089   7.118   6.749   2.042 -0.4431  2.8242  0.4388
   35MOL   H22241090   7.420   6.778   2.084 -0.0130 -0.9570 -1.2595
   35MOL   H22341091   7.306   6.810   2.201  0.7983 -0.0588  0.5050
   35MOL   H22441092   7.215   6.602   2.224 -0.4199 -0.6830 -0.6084
   35MOL   H22541093   7.310   6.530   2.092  0.4648 -1.6853  0.6994
   35MOL   H22641094   7.536   6.679   2.543  1.3782  1.1365 -0.8746
   35MOL   H22741095   7.618   6.632   2.388  0.8339 -2.0400  0.5100
   35MOL   H22841096   7.669   6.451   2.516 -0.1866  0.8452  0.8306
   35MOL   H22941097   7.536   6.394   2.433 -0.0018 -0.3297 -0.3853
   35MOL   H23041098   7.532   6.523   2.713 -0.5440  0.6603  0.0103
   35MOL   H23141099   7.553   6.363   2.702  0.1267 -2.2983 -2.5601
   35MOL   H23241100   7.321   6.346   2.574  0.6034  1.8083 -1.5786
   35MOL   H23341101   7.301   6.507   2.619  0.8112  0.9590  0.7552
   35MOL   H23441102   7.302   6.259   2.792  2.2220  0.0779 -0.1474
   35MOL   H23541103   7.324   6.414   2.869  0.0832  1.1797  0.4380
   35MOL   H23641104   7.088   6.369   2.676 -0.2855  1.6261 -0.2175
   35MOL   H23741105   7.080   6.326   2.840 -0.1037  0.4632  1.5506
   35MOL   H23841106   7.164   6.612   2.753 -0.7084 -1.2723 -3.0456
   35MOL   H23941107   7.143   6.557   2.907  0.2078  0.0998  0.2881
   35MOL   H24041108   6.894   6.508   2.751 -0.5808  0.6775 -1.2332
   35MOL   H24141109   6.927   6.533   2.916 -1.1774 -0.3984 -0.0040
   35MOL   O24241110   6.966   6.764   2.687  0.1928  0.0627 -0.0810
   35MOL   C24341111   6.946   6.901   2.657 -0.1971 -0.0739 -0.0155
   35MOL   C24441112   6.985   6.915   2.508 -0.1631 -0.2944  1.0096
   35MOL   C24541113   6.997   7.059   2.459 -0.1284  0.3105 -0.3473
   35MOL   C24641114   7.054   7.077   2.319 -0.1725 -0.1940  0.5932
   35MOL   C24741115   7.034   7.219   2.264  0.0238 -0.0930 -0.7425
   35MOL   C24841116   7.110   7.235   2.134 -0.6555 -0.2536 -0.0831
   35MOL   C24941117   7.087   7.381   2.082 -0.0557  0.1109 -0.3053
   35MOL   C25041118   7.172   7.411   1.958 -0.4868  0.0492 -0.1561
   35MOL   C25141119   7.324   7.390   1.972  1.2034  0.4411 -0.0795
   35MOL   C25241120   7.396   7.426   1.840 -0.6049  1.1886  0.0990
   35MOL   O25341121   7.356   7.550   1.784  0.2574 -0.6362  0.4326
   35MOL   C25441122   7.435   7.657   1.809  0.0354  0.4626  0.0210
   35MOL   O25541123   7.539   7.657   1.876  0.2069 -0.3728 -0.6081
   35MOL   C25641124   7.377   0.019   1.744 -0.3843 -0.3574  0.6312
   35MOL   C25741125   7.281   0.093   1.838  0.4768 -0.0071  0.4958
   35MOL   C25841126   7.322   0.116   1.984  0.1124 -0.3996 -0.3027
   35MOL   C25941127   7.290   0.267   2.022 -0.2042  0.4598 -0.7362
   35MOL   C26041128   7.278   0.303   2.176  0.2612  0.1420 -0.6649
   35MOL   C26141129   7.272   0.456   2.196  0.1330 -0.1616  0.3725
   35MOL   C26241130   7.400   0.529   2.139 -0.0642 -0.5700 -0.8084
   35MOL   C26341131   7.387   0.683   2.177 -0.0032  0.0464 -0.2281
   35MOL   C26441132   7.248   0.745   2.155  0.7673 -0.6714 -0.0292
   35MOL   O26541133   7.180   0.808   2.242  0.1526  0.2378  0.6779
   35MOL   H26641134   6.841   6.927   2.673  0.2098  2.6512 -1.4969
   35MOL   H26741135   7.012   6.960   2.720  1.5645 -2.0735  0.0599
   35MOL   H26841136   7.090   6.891   2.496 -0.3659 -0.8738  0.3403
   35MOL   H26941137   6.918   6.856   2.444 -0.6827  0.5842  0.7357
   35MOL   H27041138   6.897   7.104   2.466 -0.7138 -1.2677  1.9990
   35MOL   H27141139   7.066   7.119   2.518  0.8214  0.5389 -1.6591
   35MOL   H27241140   7.153   7.033   2.311 -0.4603 -0.4205 -2.5245
   35MOL   H27341141   6.992   7.008   2.262 -0.6733  0.1211  0.7492
   35MOL   H27441142   7.069   7.288   2.341 -1.4041 -0.4620  0.2676
   35MOL   H27541143   6.926   7.232   2.262  0.0600  1.1476  2.1732
   35MOL   H27641144   7.061   7.168   2.063 -1.6685 -0.6387  0.9541
   35MOL   H27741145   7.214   7.204   2.139 -0.2565  0.7055 -1.9748
   35MOL   H27841146   7.097   7.458   2.158  0.6972  1.4432 -1.7255
   35MOL   H27941147   6.982   7.392   2.054 -0.9641 -1.9492  2.1274
   35MOL   H28041148   7.149   7.511   1.922  0.6486  0.9398  1.5369
   35MOL   H28141149   7.140   7.329   1.893  0.9964  0.5982 -1.6192
   35MOL   H28241150   7.363   7.434   2.063  3.2789 -0.7704 -0.3402
   35MOL   H28341151   7.352   7.285   1.965 -1.0957 -0.2619  0.9929
   35MOL   H28441152   7.504   7.418   1.856 -0.8620 -1.9856  0.6207
   35MOL   H28541153   7.369   7.355   1.762 -1.1592  0.7868  0.6547
   35MOL   H28641154   7.331   7.755   1.647 -0.1712  1.5590  0.0981
   35MOL   H28741155   7.451   0.090   1.706  2.5103 -3.8894 -0.6137
   35MOL   H28841156   7.180   0.054   1.823  0.0187  1.4418 -0.1867
   35MOL   H28941157   7.266   0.193   1.798 -0.8254 -0.4227 -0.0849
   35MOL   H29041158   7.429   0.098   1.993  0.3061  0.8690  0.0704
   35MOL   H29141159   7.280   0.044   2.054  1.9371 -0.4052  0.8223
   35MOL   H29241160   7.190   0.288   1.984 -0.4903  0.2740 -0.0987
   35MOL   H29341161   7.353   0.331   1.961 -1.2449  0.5640 -1.7204
   35MOL   H29441162   7.195   0.243   2.212  2.1085 -0.7805  2.1695
   35MOL   H29541163   7.364   0.263   2.229 -1.1412 -1.4818  0.4251
   35MOL   H29641164   7.179   0.488   2.148 -0.4385 -0.1402  1.4940
   35MOL   H29741165   7.270   0.477   2.302  0.3000  0.7658  0.1926
   35MOL   H29841166   7.431   0.522   2.034  0.7612 -1.9519 -0.4972
   35MOL   H29941167   7.484   0.476   2.184  0.1078  1.7199  1.6572
   35MOL   H30041168   7.416   0.696   2.281 -0.4816 -1.5358  0.1098
   35MOL   H30141169   7.446   0.748   2.112  0.7228 -0.3770  0.0040
   35MOL   O30241170   7.204   0.731   2.027 -0.3782 -0.4114  0.2748
   35MOL   C30341171   7.087   0.795   1.983  0.5959 -0.0842  0.3564
   35MOL   C30441172   7.101   0.801   1.832 -0.1640 -0.1721  0.5138
   35MOL   C30541173   6.974   0.864   1.777  0.5435  0.6461 -0.2262
   35MOL   C30641174   6.973   0.850   1.623 -0.2947  0.2339  0.0712
   35MOL   C30741175   6.860   0.941   1.567 -0.4635 -0.1800  0.7375
   35MOL   C30841176   6.833   0.914   1.424 -0.0213 -0.0396 -0.3515
   35MOL   C30941177   6.789   0.766   1.384 -0.7287 -0.2234 -0.3315
   35MOL   C31041178   6.801   0.736   1.235 -0.2628  0.3256  0.6075
   35MOL   C31141179   6.700   0.809   1.145  0.3160 -0.2401  0.4377
   35MOL   C31241180   6.750   0.813   0.996  0.2908  0.1355 -0.0345
   35MOL   O31341181   6.735   0.693   0.938  0.2021  0.1617 -0.2131
   35MOL   C31441182   6.837   0.632   0.881 -0.1501  0.0925  0.3768
   35MOL   O31541183   6.954   0.663   0.894 -0.5446 -0.5242 -0.0345
   35MOL   C31641184   6.788   0.498   0.823 -0.3099  0.1854  0.3403
   35MOL   C31741185   6.766   0.395   0.922  0.1946  0.6882 -0.8296
   35MOL   C31841186   6.632   0.399   1.005 -0.1027 -0.5892  0.0523
   35MOL   C31941187   6.645   0.322   1.138 -0.9614 -0.9137 -0.2908
   35MOL   C32041188   6.529   0.347   1.235  0.1660 -0.4355  0.5167
   35MOL   C32141189   6.566   0.325   1.389 -0.0640 -0.1173 -0.2225
   35MOL   C32241190   6.432   0.350   1.469  0.5185 -0.3936 -0.0733
   35MOL   C32341191   6.422   0.327   1.622  0.1817  0.8088 -0.0593
   35MOL   C32441192   6.451   0.183   1.665 -0.0572  0.0821  0.0022
   35MOL   O32541193   6.565   0.144   1.690 -0.4804 -0.7953 -0.1336
   35MOL   H32641194   7.005   0.733   2.017 -1.2245  1.5607 -0.9118
   35MOL   H32741195   7.081   0.900   2.012  1.0981 -0.2229  0.9682
   35MOL   H32841196   7.195   0.846   1.801 -1.2971  0.3182 -2.4147
   35MOL   H32941197   7.106   0.699   1.793  2.4361  0.6553 -1.4689
   35MOL   H33041198   6.891   0.812   1.824  1.3207 -0.1031  0.3104
   35MOL   H33141199   6.966   0.970   1.803  0.7366  0.8063 -0.7979
   35MOL   H33241200   7.066   0.878   1.574  0.0437 -0.2391  0.4374
   35MOL   H33341201   6.966   0.743   1.605  1.0885 -0.2361  2.1802
   35MOL   H33441202   6.887   1.045   1.582  0.2606 -0.5712  2.3499
   35MOL   H33541203   6.765   0.935   1.620  0.1073  0.9383  1.9050
   35MOL   H33641204   6.922   0.936   1.366 -0.1180 -0.7591 -0.7860
   35MOL   H33741205   6.757   0.986   1.394 -0.5381  0.3801  1.8527
   35MOL   H33841206   6.688   0.742   1.419 -0.7673 -1.6810 -1.3907
   35MOL   H33941207   6.855   0.688   1.420  2.0388  1.7480 -1.0037
   35MOL   H34041208   6.788   0.629   1.221  0.4194  0.2409  0.5624
   35MOL   H34141209   6.902   0.769   1.210 -0.6962  1.3390  0.1693
   35MOL   H34241210   6.602   0.760   1.149 -0.2239  0.6317 -1.3659
   35MOL   H34341211   6.688   0.909   1.185 -2.1755 -0.9231  1.4661
   35MOL   H34441212   6.689   0.891   0.951  1.6853 -0.4159 -3.0520
   35MOL   H34541213   6.855   0.843   1.002 -0.3053  2.0154  1.0694
   35MOL   H34641214   6.847   0.469   0.737 -0.5739  3.1826 -0.9251
   35MOL   H34741215   6.684   0.514   0.793 -0.4807 -0.8439  0.3812
   35MOL   H34841216   6.847   0.406   0.995  0.5774 -0.8206 -1.0035
   35MOL   H34941217   6.797   0.301   0.877  0.1676  0.0549  0.4506
   35MOL   H35041218   6.560   0.354   0.937 -0.9511 -0.4962  0.8858
   35MOL   H35141219   6.612   0.505   1.023  0.3771 -0.4062 -0.4627
   35MOL   H35241220   6.731   0.359   1.193 -0.0937 -2.3134 -0.6846
   35MOL   H35341221   6.658   0.218   1.107 -1.8513 -0.7423 -1.2547
   35MOL   H35441222   6.486   0.447   1.225 -0.3333 -0.6775  0.1897
   35MOL   H35541223   6.441   0.290   1.206 -0.2162  0.2259  0.3493
   35MOL   H35641224   6.605   0.225   1.410 -1.6449 -0.5152  0.9149
   35MOL   H35741225   6.644   0.394   1.419 -0.7634  0.8435 -0.5746
   35MOL   H35841226   6.347   0.309   1.415  0.6498 -1.0801  0.2291
   35MOL   H35941227   6.413   0.455   1.447 -2.0414 -0.6253  0.9083
   35MOL   H36041228   6.494   0.392   1.672 -0.7685  0.2966  1.9762
   35MOL   H36141229   6.323   0.353   1.658  0.0962 -0.1926  0.4367
   35MOL   O36241230   6.338   0.104   1.667  0.4802  0.4520 -0.1717
   35MOL   C36341231   6.356   7.717   1.690 -0.2151  0.0437 -0.4447
   35MOL   C36441232   6.284   7.645   1.576  0.1158  0.3675  0.3271
   35MOL   C36541233   6.270   7.487   1.587 -0.1340  0.3250  0.2451
   35MOL   C36641234   6.160   7.425   1.500 -0.3971 -0.0170 -0.1364
   35MOL   C36741235   6.039   7.413   1.593 -0.1741  0.0259 -0.6844
   35MOL   C36841236   5.912   7.375   1.516 -0.1417  0.2615  0.8257
   35MOL   C36941237   5.914   7.225   1.480 -0.7257 -0.6333  0.4600
   35MOL   C37041238   5.773   7.169   1.450  0.2135 -0.4776  0.1287
   35MOL   C37141239   5.760   7.014   1.417 -0.4010  0.5404 -0.5251
   35MOL   C37241240   5.816   6.967   1.286  0.4205  0.6788  0.0992
   35MOL   O37341241   5.786   7.066   1.190  0.0345 -0.1212  0.2405
   35MOL   C37441242   5.894   7.094   1.098 -0.5459 -0.1882  0.1175
   35MOL   O37541243   6.002   7.040   1.089 -0.2080  0.1147  0.3588
   35MOL   C37641244   5.863   7.202   1.005 -0.5806 -0.1712  0.0827
   35MOL   C37741245   5.833   7.343   1.069  0.5979 -0.6014 -0.2136
   35MOL   C37841246   5.957   7.430   1.061 -0.1179 -0.4572  0.1910
   35MOL   C37941247   5.939   7.584   1.084  0.6688 -0.2340  0.7150
   35MOL   C38041248   6.074   7.657   1.118 -0.2599 -0.0567 -0.4999
   35MOL   C38141249   6.030   0.036   1.158  0.9636  0.7368  0.3021
   35MOL   C38241250   6.149   0.125   1.190 -0.0329 -0.1732  0.4992
   35MOL   C38341251   6.123   0.278   1.198 -0.3871 -0.1735  0.1439
   35MOL   C38441252   6.147   0.356   1.068  0.0586 -0.4804  1.1264
   35MOL   O38541253   6.149   0.295   0.957  0.0802 -0.3686  0.1808
   35MOL   H38641254   6.460   7.689   1.708 -0.2925  0.1531  0.1704
   35MOL   H38741255   6.304   7.708   1.785 -1.7660 -1.5735 -1.4202
   35MOL   H38841256   6.182   7.682   1.578  0.5096  1.4989  0.2948
   35MOL   H38941257   6.333   7.667   1.480 -1.5053  0.2158 -0.5470
   35MOL   H39041258   6.368   7.444   1.569 -0.2922  1.2488 -2.9725
   35MOL   H39141259   6.253   7.451   1.689 -1.3554  0.5241  0.1276
   35MOL   H39241260   6.151   7.477   1.405 -0.8593  2.0033  0.9932
   35MOL   H39341261   6.201   7.330   1.464 -1.3402 -1.6558  2.9114
   35MOL   H39441262   6.020   7.507   1.644  0.2546  2.2004 -4.3681
   35MOL   H39541263   6.053   7.337   1.670 -2.4236  1.0914  0.8331
   35MOL   H39641264   5.902   7.432   1.423  0.1758  0.1344  0.7145
   35MOL   H39741265   5.824   7.402   1.575 -1.2516 -0.0832 -0.6184
   35MOL   H39841266   5.945   7.163   1.564  0.9069  0.9446  1.0711
   35MOL   H39941267   5.985   7.203   1.401 -0.1976 -0.2037  0.8123
   35MOL   H40041268   5.724   7.222   1.369  4.0347  0.3057 -1.7737
   35MOL   H40141269   5.729   7.195   1.547  0.9558 -0.2937  0.4200
   35MOL   H40241270   5.808   6.956   1.495 -2.5691 -0.3234  0.2168
   35MOL   H40341271   5.656   6.983   1.430  0.5643 -2.5756  0.2110
   35MOL   H40441272   5.924   6.960   1.299  0.7384 -0.6272 -2.7292
   35MOL   H40541273   5.768   6.874   1.256 -0.0182  1.0732 -0.4325
   35MOL   H40641274   5.771   7.161   0.964  0.4345 -2.9913  0.5793
   35MOL   H40741275   5.927   7.202   0.918 -2.3222 -0.0134 -1.2229
   35MOL   H40841276   5.793   7.345   1.170  0.5831 -1.1867 -0.2106
   35MOL   H40941277   5.759   7.399   1.012 -0.1875  0.5998  1.9367
   35MOL   H41041278   6.010   7.417   0.967 -1.2425 -1.6306 -0.2898
   35MOL   H41141279   6.039   7.393   1.123  0.8845 -0.8693 -1.3666
   35MOL   H41241280   5.875   7.582   1.172 -1.1009 -0.1141 -0.5439
   35MOL   H41341281   5.875   7.626   1.007  0.5514 -1.3349  0.2103
   35MOL   H41441282   6.111   7.609   1.209 -1.4931  0.4100  0.2513
   35MOL   H41541283   6.146   7.659   1.036 -1.2963  1.1592 -1.4067
   35MOL   H41641284   5.987   0.084   1.070 -1.1529 -2.3031 -0.3991
   35MOL   H41741285   5.953   0.035   1.235 -0.0278  1.6192 -0.6540
   35MOL   H41841286   6.240   0.111   1.133  0.9869  0.9166  1.8334
   35MOL   H41941287   6.191   0.097   1.287  1.3410  0.6957  0.1595
   35MOL   H42041288   6.020   0.290   1.233 -0.4481 -0.7204  0.1646
   35MOL   H42141289   6.187   0.315   1.277  0.6637  1.0009 -1.2267
   35MOL   O42241290   6.168   0.484   1.091  0.7657  0.1980  0.1973
   35MOL   C42341291   6.226   0.568   0.996  0.1402 -0.5311 -1.1921
   35MOL   C42441292   6.194   0.705   1.041 -1.0560 -0.1622 -0.4787
   35MOL   C42541293   6.277   0.806   0.960 -0.7437 -0.1791 -0.2531
   35MOL   C42641294   6.249   0.952   1.002 -0.0927  0.3905 -0.5500
   35MOL   C42741295   6.109   0.997   0.950 -0.0035 -0.2965  0.4800
   35MOL   C42841296   6.088   1.145   1.005 -0.2572 -0.8639  0.3864
   35MOL   C42941297   5.943   1.204   0.964  0.5731  0.5557  0.5581
   35MOL   C43041298   5.946   1.360   0.976  0.1887  0.4475  0.6522
   35MOL   C43141299   5.848   1.435   0.893  0.4557  0.4916  0.0476
   35MOL   C43241300   5.847   1.589   0.908 -0.9771  0.2629  0.4587
   35MOL   O43341301   5.973   1.629   0.868 -0.4661  1.2069  0.6460
   35MOL   C43441302   6.071   1.664   0.959 -0.0613 -0.4493  0.0216
   35MOL   O43541303   6.064   1.666   1.084  0.2853  0.3152 -0.1771
   35MOL   C43641304   6.199   1.704   0.888 -0.5669 -0.1116 -0.4830
   35MOL   C43741305   6.317   1.740   0.983  0.5706 -0.8894 -0.1661
   35MOL   C43841306   6.436   1.793   0.910 -0.1907  0.3384 -0.1119
   35MOL   C43941307   6.428   1.943   0.897  0.7249 -0.2160 -0.7391
   35MOL   C44041308   6.545   2.011   0.836 -0.6876 -0.2609 -0.6688
   35MOL   C44141309   6.654   2.024   0.941 -0.2087  0.0085  0.1220
   35MOL   C44241310   6.762   2.128   0.902  0.5902 -0.8544  0.2136
   35MOL   C44341311   6.893   2.120   0.987  0.3900  0.1240  0.8742
   35MOL   C44441312   7.005   2.204   0.934  0.3629  0.1037 -0.0245
   35MOL   O44541313   6.990   2.300   0.855  0.5366  0.4075  0.2358
   35MOL   H44641314   6.332   0.541   0.994  1.0535  2.6239  0.3980
   35MOL   H44741315   6.185   0.549   0.897 -0.2059  0.8930 -1.3345
   35MOL   H44841316   6.088   0.707   1.019 -1.1894 -0.6996  0.1298
   35MOL   H44941317   6.196   0.719   1.149 -1.1876 -0.4634 -0.4374
   35MOL   H45041318   6.385   0.792   0.970 -0.5754 -2.0067 -3.6073
   35MOL   H45141319   6.266   0.796   0.852 -0.8258 -0.0753 -0.2536
   35MOL   H45241320   6.259   0.949   1.110  1.0967  2.7411 -0.5722
   35MOL   H45341321   6.322   1.021   0.958  0.7192  1.3721  2.2637
   35MOL   H45441322   6.035   0.929   0.993  1.0159 -0.4957  1.9827
   35MOL   H45541323   6.097   0.997   0.842  0.8537 -0.0961  0.3788
   35MOL   H45641324   6.168   1.211   0.972 -0.7130  0.2466  1.4809
   35MOL   H45741325   6.088   1.151   1.113  0.2423 -3.2275  0.5454
   35MOL   H45841326   5.868   1.163   1.032 -0.4838 -1.9494 -2.0178
   35MOL   H45941327   5.915   1.176   0.862 -0.3745 -1.0022  1.2182
   35MOL   H46041328   6.044   1.383   0.933  1.2934 -2.4347  1.4861
   35MOL   H46141329   5.936   1.396   1.079  0.3521  1.3808  0.3461
   35MOL   H46241330   5.867   1.404   0.790 -1.1606  0.2049 -0.1803
   35MOL   H46341331   5.748   1.403   0.922  1.1282 -0.4183  1.4164
   35MOL   H46441332   5.771   1.628   0.840 -0.1472 -0.5091 -0.9442
   35MOL   H46541333   5.815   1.612   1.009 -4.7644  3.3953 -1.2913
   35MOL   H46641334   6.159   1.794   0.840 -0.1478 -0.3044 -1.1940
   35MOL   H46741335   6.228   1.631   0.813  1.2714  0.8392 -0.7172
   35MOL   H46841336   6.353   1.647   1.029  0.9984 -1.4465 -1.5908
   35MOL   H46941337   6.285   1.803   1.065  1.7631 -0.9224  0.3347
   35MOL   H47041338   6.454   1.742   0.815 -0.3745 -0.3977  0.2414
   35MOL   H47141339   6.524   1.766   0.969 -0.2304 -1.4487 -0.8367
   35MOL   H47241340   6.404   1.986   0.994 -3.4585 -0.1385 -1.7244
   35MOL   H47341341   6.346   1.963   0.829  0.3739  2.0858  0.3095
   35MOL   H47441342   6.573   1.960   0.744  0.9463  0.4182 -0.5563
   35MOL   H47541343   6.507   2.111   0.817 -1.3501 -0.8341 -2.5432
   35MOL   H47641344   6.615   2.050   1.039  0.7481  0.6753  0.3265
   35MOL   H47741345   6.718   1.938   0.954 -0.0609  0.4705  2.7487
   35MOL   H47841346   6.722   2.228   0.916  1.7745 -0.5114  1.3248
   35MOL   H47941347   6.773   2.135   0.794 -1.7205 -0.3964 -0.0070
   35MOL   H48041348   6.864   2.158   1.085  0.1854  2.1747  0.0313
   35MOL   H48141349   6.921   2.016   1.004 -0.3038 -0.7490 -2.8689
   35MOL   O48241350   7.122   2.162   0.986 -0.2701 -0.0425 -0.1281
   35MOL   C48341351   7.242   2.239   0.971 -0.0844  0.1182  0.7090
   35MOL   C48441352   7.313   2.244   1.109  0.9193  0.4566  0.0152
   35MOL   C48541353   7.220   2.286   1.221  0.0246 -0.3063  0.2459
   35MOL   C48641354   7.284   2.340   1.344 -0.1194  0.1906 -0.4996
   35MOL   C48741355   7.186   2.374   1.457 -0.4889  0.0529  0.3320
   35MOL   C48841356   7.245   2.399   1.598 -0.2617 -0.1123  0.5989
   35MOL   C48941357   7.149   2.357   1.701  0.5328 -0.1902 -0.4830
   35MOL   C49041358   7.227   2.301   1.823  0.5986  0.1468  0.0304
   35MOL   C49141359   7.301   2.173   1.798 -1.2350 -0.6355  0.5250
   35MOL   C49241360   7.308   2.073   1.914  0.0965 -0.0640 -0.0175
   35MOL   O49341361   7.352   2.135   2.029 -0.3225  0.0892  0.0804
   35MOL   C49441362   7.342   2.083   2.144  0.2617  0.2887 -0.3908
   35MOL   O49541363   7.280   1.978   2.164  0.2394  0.2648 -0.2572
   35MOL   C49641364   7.402   2.169   2.250 -0.2231  0.0942 -0.5698
   35MOL   C49741365   7.555   2.135   2.277  0.1062  0.3073  0.4097
   35MOL   C49841366   7.653   2.135   2.161  0.1327  0.1523 -0.4363
   35MOL   C49941367   7.725   2.268   2.124 -0.1040 -0.5706 -0.4051
   35MOL   C50041368   7.621   2.371   2.073  0.1034  1.1723 -0.3649
   35MOL   C50141369   7.678   2.504   2.029  0.2015 -0.1765 -0.5785
   35MOL   C50241370   7.577   2.585   1.942 -0.5316  0.6584  0.2034
   35MOL   C50341371   7.612   2.734   1.960  0.1947 -0.5395 -0.3298
   35MOL   C50441372   7.719   2.783   1.859 -0.1937 -0.0656 -0.1185
   35MOL   O50541373   7.681   2.822   1.747  0.0998 -0.1742 -0.2185
   35MOL   H50641374   7.302   2.197   0.891  1.0628  3.3795 -0.2212
   35MOL   H50741375   7.223   2.344   0.949 -1.2386 -0.3214 -0.4131
   35MOL   H50841376   7.343   2.142   1.132 -3.4263 -0.9625 -0.3553
   35MOL   H50941377   7.406   2.300   1.097  0.5119  1.3877  1.0978
   35MOL   H51041378   7.150   2.362   1.186 -0.5824 -1.1267 -0.3371
   35MOL   H51141379   7.158   2.199   1.243 -0.8417  0.5616  1.3049
   35MOL   H51241380   7.363   2.268   1.365 -1.8298 -2.1974 -1.9931
   35MOL   H51341381   7.342   2.427   1.315 -0.7505  0.3712 -1.2256
   35MOL   H51441382   7.125   2.283   1.459 -1.0892  0.4675  0.9131
   35MOL   H51541383   7.134   2.462   1.420 -1.3450 -0.6904 -0.2559
   35MOL   H51641384   7.269   2.505   1.609  0.2130 -0.1333 -0.2004
   35MOL   H51741385   7.338   2.343   1.609 -0.0052  0.5814  2.2091
   35MOL   H51841386   7.082   2.280   1.662  0.6707 -1.3801  1.5538
   35MOL   H51941387   7.082   2.441   1.718 -0.7153 -1.5040  1.3342
   35MOL   H52041388   7.165   2.302   1.913  0.0579 -0.3051 -0.3345
   35MOL   H52141389   7.302   2.371   1.858  0.6486 -0.0368  0.2975
   35MOL   H52241390   7.287   2.130   1.699  1.1814  0.6515 -0.4070
   35MOL   H52341391   7.404   2.209   1.791 -0.5956 -2.3306  0.9760
   35MOL   H52441392   7.209   2.032   1.935 -0.5851 -0.9133 -4.4308
   35MOL   H52541393   7.377   1.990   1.899  0.5371  0.3042 -0.0405
   35MOL   H52641394   7.349   2.144   2.343  1.6900  1.8546  1.0385
   35MOL   H52741395   7.381   2.274   2.231 -2.1693 -0.2431 -0.4285
   35MOL   H52841396   7.572   2.044   2.336 -1.6952  0.3640  1.0345
   35MOL   H52941397   7.587   2.217   2.342 -0.0786  1.5130 -1.0048
   35MOL   H53041398   7.606   2.097   2.070 -1.2387  0.7230  0.0268
   35MOL   H53141399   7.740   2.072   2.181  2.3673  3.2541 -0.0030
   35MOL   H53241400   0.037   2.262   2.040  0.2001  1.5053 -0.3360
   35MOL   H53341401   0.018   2.302   2.214  0.0551  0.5170 -0.8877
   35MOL   H53441402   7.568   2.320   1.992 -0.0346 -1.0648  1.0910
   35MOL   H53541403   7.557   2.385   2.159  0.8287  0.5531  0.2820
   35MOL   H53641404   7.709   2.558   2.118 -0.1164 -1.8912  0.6036
   35MOL   H53741405   0.010   2.487   1.968  0.8591  0.8216  0.0792
   35MOL   H53841406   7.484   2.555   1.989  0.4224 -2.5700  0.1197
   35MOL   H53941407   7.578   2.545   1.840  1.5345 -0.1905  0.5393
   35MOL   H54041408   7.513   2.776   1.942 -0.1129 -0.9348  0.3922
   35MOL   H54141409   7.646   2.761   2.060 -0.6021  0.4682 -0.3190
   35MOL   O54241410   0.084   2.760   1.902 -0.7848 -0.0723 -0.2364
   35MOL   C54341411   0.191   2.797   1.818  0.0197 -0.0325  0.3489
   35MOL   C54441412   0.303   2.690   1.823 -0.2772 -0.3463  0.4708
   35MOL   C54541413   0.425   2.740   1.741  0.1989  0.9605  0.3236
   35MOL   C54641414   0.401   2.712   1.594  0.1666 -0.0451  0.1786
   35MOL   C54741415   0.419   2.574   1.547 -0.1086 -0.6124  0.1157
   35MOL   C54841416   0.401   2.580   1.397 -0.4856 -0.0365  0.0676
   35MOL   C54941417   0.357   2.440   1.346 -0.5031  0.6612 -0.4568
   35MOL   C55041418   0.283   2.441   1.217  0.4937 -0.4116 -0.1261
   35MOL   C55141419   0.130   2.464   1.216 -0.3291 -0.3329  0.3013
   35MOL   C55241420   0.054   2.449   1.086  1.0840 -0.5927 -0.3037
   35MOL   O55341421   0.052   2.314   1.043 -0.1302  0.3137 -0.0562
   35MOL   C55441422   7.716   2.277   0.946  0.1059 -0.2659 -0.0255
   35MOL   O55541423   7.634   2.349   0.894 -0.0031 -0.1491  0.5504
   35MOL   C55641424   7.737   2.136   0.906  0.4225 -0.4977  0.2360
   35MOL   C55741425   0.112   2.108   0.828 -0.1396 -0.2117 -0.0034
   35MOL   C55841426   0.105   2.159   0.680  0.1572  0.1713  0.2056
   35MOL   C55941427   0.235   2.127   0.603 -0.5477 -0.0715 -0.2930
   35MOL   C56041428   0.315   1.995   0.628  0.5680 -0.5202  0.6799
   35MOL   C56141429   0.438   1.986   0.537  0.1989 -1.1958 -0.4623
   35MOL   C56241430   0.518   1.868   0.590  0.2996  0.2346  0.3166
   35MOL   C56341431   0.655   1.841   0.516 -0.4449  0.3836  0.4421
   35MOL   C56441432   0.741   1.739   0.582  0.4757 -0.3674  0.6363
   35MOL   O56541433   0.734   1.708   0.702  0.2580 -0.1687  0.4563
   35MOL   H56641434   0.162   2.813   1.714  0.1955 -0.4646  0.2307
   35MOL   H56741435   0.232   2.892   1.852  3.0729 -1.2337  0.1765
   35MOL   H56841436   0.328   2.653   1.922  0.1322  1.1208  0.9237
   35MOL   H56941437   0.266   2.598   1.777  1.9525 -0.6595 -0.7706
   35MOL   H57041438   0.460   2.842   1.752 -0.5821  1.2325  0.2586
   35MOL   H57141439   0.517   2.686   1.766  0.4900  0.7979 -1.0352
   35MOL   H57241440   0.300   2.750   1.577  0.4790  0.9137  0.4817
   35MOL   H57341441   0.458   2.789   1.542 -1.5411  3.6185  3.4604
   35MOL   H57441442   0.356   2.499   1.594  1.3108 -0.9479  1.5247
   35MOL   H57541443   0.522   2.544   1.565  0.1302 -0.5301 -1.0456
   35MOL   H57641444   0.493   2.606   1.345 -0.5029  1.4555  0.7386
   35MOL   H57741445   0.327   2.645   1.349 -3.2813 -2.7039  0.6421
   35MOL   H57841446   0.297   2.387   1.420  1.8536  0.1022  1.0929
   35MOL   H57941447   0.451   2.385   1.345 -0.2369  1.0869  0.5386
   35MOL   H58041448   0.294   2.336   1.188 -0.4726 -0.3582 -0.6942
   35MOL   H58141449   0.326   2.494   1.132  0.2279  0.9734  0.6015
   35MOL   H58241450   0.082   2.402   1.292 -0.4437 -1.4144 -0.6459
   35MOL   H58341451   0.112   2.566   1.252 -0.5341 -0.2050 -0.1545
   35MOL   H58441452   7.710   2.489   1.100  2.1027  2.0193 -0.2701
   35MOL   H58541453   0.094   2.513   1.007 -0.1867  0.5323 -0.0524
   35MOL   H58641454   7.649   2.108   0.847 -0.1142  0.6384  0.4754
   35MOL   H58741455   7.728   2.078   0.998  0.0055 -0.3826  0.2696
   35MOL   H58841456   0.134   2.001   0.832 -1.6890 -0.5164  0.9854
   35MOL   H58941457   0.199   2.149   0.879 -0.4139  1.0371 -0.5471
   35MOL   H59041458   0.080   2.265   0.671  2.1115  0.5193 -1.2003
   35MOL   H59141459   0.019   2.108   0.637 -0.2819  1.1494 -0.0905
   35MOL   H59241460   0.302   2.211   0.625 -1.7064  0.9516 -0.5874
   35MOL   H59341461   0.207   2.147   0.499 -0.9699  0.3197 -0.1068
   35MOL   H59441462   0.346   1.994   0.732  0.8975  0.4507  0.5896
   35MOL   H59541463   0.245   1.912   0.611  0.6679 -0.4371 -0.1600
   35MOL   H59641464   0.402   1.952   0.439  0.5056  0.9314 -1.3487
   35MOL   H59741465   0.494   2.080   0.537 -0.0681 -0.9965 -2.8925
   35MOL   H59841466   0.460   1.777   0.603  1.4584 -0.5613  0.0396
   35MOL   H59941467   0.545   1.893   0.693  1.6816 -0.6615  0.1851
   35MOL   H60041468   0.632   1.800   0.417 -2.7345  0.9938  0.6831
   35MOL   H60141469   0.712   1.934   0.519  1.8222 -1.0034  2.7329
   35MOL   O60241470   0.853   1.710   0.504  0.0824 -0.1337 -0.0573
   35MOL   C60341471   0.956   1.611   0.539  0.3325 -0.3154 -0.2233
   35MOL   C60441472   1.089   1.689   0.586  0.1797 -0.2896 -0.1505
   35MOL   C60541473   1.073   1.774   0.712  0.2714  0.1630 -0.9728
   35MOL   C60641474   1.041   1.926   0.685 -0.5122  0.0833 -0.4639
   35MOL   C60741475   1.041   2.018   0.803 -0.4575 -0.1938 -0.3089
   35MOL   C60841476   0.965   1.969   0.923 -0.6880  0.6255  0.3727
   35MOL   C60941477   0.813   1.975   0.897 -0.4408  0.1241 -0.5201
   35MOL   C61041478   0.749   1.891   1.016  0.4964  0.1672 -0.3767
   35MOL   C61141479   0.591   1.876   0.997  0.2080  0.5420 -0.1223
   35MOL   C61241480   0.516   2.007   0.988  0.2180 -0.2476  0.1432
   35MOL   O61341481   0.471   2.044   1.117 -0.7988  0.0912 -0.3592
   35MOL   C61441482   0.359   1.994   1.173 -0.0634 -0.4234  0.1719
   35MOL   O61541483   0.293   1.908   1.116  0.1980 -0.2824 -0.3103
   35MOL   C61641484   0.324   2.053   1.315 -0.0105 -0.5126  0.1552
   35MOL   C61741485   0.194   1.988   1.379  1.3880  0.6431  0.6004
   35MOL   C61841486   0.062   2.018   1.308 -0.0678 -0.0127 -0.2617
   35MOL   C61941487   7.710   1.947   1.380  0.0089 -0.1603  0.4566
   35MOL   C62041488   7.567   2.006   1.368 -0.0504  0.7137 -0.1632
   35MOL   C62141489   7.467   1.908   1.421 -0.0005  0.0500  0.4499
   35MOL   C62241490   7.319   1.950   1.384 -0.4315 -0.0580 -0.0072
   35MOL   C62341491   7.223   1.861   1.459 -0.3832  0.8619 -0.4783
   35MOL   C62441492   7.086   1.915   1.500 -0.5890 -0.2417  0.1898
   35MOL   O62541493   7.035   2.017   1.441 -0.0132  0.5121 -0.2491
   35MOL   H62641494   0.935   1.535   0.614  2.4740  0.6291  1.3740
   35MOL   H62741495   0.979   1.555   0.448 -0.1505  1.0313 -1.1904
   35MOL   H62841496   1.165   1.610   0.594 -0.0808 -0.7871 -2.2901
   35MOL   H62941497   1.123   1.759   0.510  0.4888  1.1393  1.2836
   35MOL   H63041498   0.999   1.725   0.775  2.9325 -0.0311  2.1305
   35MOL   H63141499   1.161   1.775   0.776 -0.2748  1.8286 -0.2145
   35MOL   H63241500   1.108   1.953   0.603  0.9398 -1.7292  0.1050
   35MOL   H63341501   0.952   1.932   0.622 -0.7321  0.1156 -0.1486
   35MOL   H63441502   1.001   2.115   0.774 -2.7408 -0.7941  0.7261
   35MOL   H63541503   1.143   2.037   0.838 -0.6431 -1.9657  1.2892
   35MOL   H63641504   0.992   2.025   1.012  0.4507 -1.3454  1.3136
   35MOL   H63741505   0.993   1.868   0.955  1.0095  0.7057 -0.7553
   35MOL   H63841506   0.784   1.911   0.814  0.4257  0.6212 -1.2148
   35MOL   H63941507   0.784   2.080   0.894 -1.5688 -0.1531  0.3155
   35MOL   H64041508   0.778   1.932   1.114  0.3918 -0.2539 -0.1696
   35MOL   H64141509   0.794   1.792   1.019  1.4073  0.5882  0.2289
   35MOL   H64241510   0.582   1.824   0.902  0.7471 -0.0840  0.1620
   35MOL   H64341511   0.539   1.809   1.066 -0.5039  0.4608 -0.7360
   35MOL   H64441512   0.589   2.078   0.951  1.4935 -2.3601 -1.5610
   35MOL   H64541513   0.425   2.006   0.928  0.5856  1.3884 -0.4525
   35MOL   H64641514   0.314   2.161   1.300  1.6935 -0.2495  0.7289
   35MOL   H64741515   0.410   2.048   1.383 -1.4515 -1.3159  1.9652
   35MOL   H64841516   0.199   2.024   1.481 -0.4565 -1.4203  1.4828
   35MOL   H64941517   0.207   1.880   1.385  1.7167  0.5405 -1.4491
   35MOL   H65041518   0.072   1.980   1.207  0.3630  1.1729 -0.6755
   35MOL   H65141519   0.044   2.125   1.296 -0.3266 -0.0829 -0.5009
   35MOL   H65241520   7.735   1.945   1.487  1.6509  0.8260  0.1161
   35MOL   H65341521   7.713   1.843   1.350 -0.6624 -0.1027  0.1883
   35MOL   H65441522   7.580   2.106   1.410 -2.1625  0.6676  0.6533
   35MOL   H65541523   7.551   2.030   1.263 -0.0537  2.4986  0.2272
   35MOL   H65641524   7.491   1.807   1.388 -0.4236  0.3436 -0.7740
   35MOL   H65741525   7.482   1.903   1.529 -0.5921  2.8733  0.6911
   35MOL   H65841526   7.307   1.942   1.276  0.6415 -1.3089 -0.0483
   35MOL   H65941527   7.308   2.056   1.409  3.1216  0.1213  1.0187
   35MOL   H66041528   7.217   1.767   1.405 -0.2574  0.6261 -0.0795
   35MOL   H66141529   7.264   1.847   1.559 -1.9009  0.0888  0.0671
   35MOL   O66241530   7.026   1.841   1.596 -0.5597 -0.3490  0.3981
   35MOL   C66341531   6.891   1.879   1.621 -0.0024 -0.0434 -0.7410
   35MOL   C66441532   6.813   1.746   1.659 -0.0178  0.0020 -0.1388
   35MOL   C66541533   6.659   1.770   1.678  0.2412 -0.4930 -0.3146
   35MOL   C66641534   6.565   1.648   1.708  0.4721  0.1189 -0.0979
   35MOL   C66741535   6.423   1.700   1.738 -0.1808  0.0608 -0.9109
   35MOL   C66841536   6.332   1.582   1.770 -0.1047 -1.0706 -0.1046
   35MOL   C66941537   6.190   1.622   1.806 -0.0147 -0.1157  0.4072
   35MOL   C67041538   6.103   1.499   1.844  0.8679 -0.0873  0.0708
   35MOL   C67141539   5.953   1.523   1.890  1.2756 -0.5699  0.2446
   35MOL   C67241540   5.856   1.499   1.773  0.2213 -0.9532 -0.0060
   35MOL   O67341541   5.885   1.586   1.666  0.3501 -0.1121 -0.8080
   35MOL   C67441542   5.829   1.566   1.545 -0.4465  0.2411  0.1921
   35MOL   O67541543   5.745   1.476   1.511  0.4299  0.3027 -0.6041
   35MOL   C67641544   5.880   1.659   1.436  0.1698  0.0830  0.1202
   35MOL   C67741545   6.031   1.658   1.417  0.1563  0.5722 -0.2805
   35MOL   C67841546   6.086   1.513   1.384  0.5839 -0.0159  0.1248
   35MOL   C67941547   6.238   1.512   1.370 -0.5530  0.5392 -0.8894
   35MOL   C68041548   6.280   1.390   1.291  0.3459  0.9552 -0.1775
   35MOL   C68141549   6.429   1.368   1.268  0.4008  0.7019  0.4869
   35MOL   C68241550   6.457   1.247   1.168  0.0011 -0.2561 -0.2310
   35MOL   C68341551   6.578   1.264   1.079  0.5236 -0.2794 -0.4475
   35MOL   C68441552   6.551   1.363   0.964  0.3121  0.3911  0.1546
   35MOL   O68541553   6.440   1.404   0.927  0.7611 -0.2336  0.1502
   35MOL   H68641554   6.885   1.945   1.708  1.0194 -3.6103  2.1859
   35MOL   H68741555   6.842   1.926   1.536 -1.0249 -0.7503 -0.5490
   35MOL   H68841556   6.817   1.685   1.569 -1.3875 -0.2115 -0.0684
   35MOL   H68941557   6.845   1.690   1.746  1.1698  0.8861  0.0056
   35MOL   H69041558   6.646   1.851   1.750 -3.2516  0.8339 -2.3481
   35MOL   H69141559   6.629   1.832   1.594 -1.1152  0.4348  0.8331
   35MOL   H69241560   6.559   1.582   1.621  0.7804 -0.5233  0.3634
   35MOL   H69341561   6.611   1.598   1.793  0.7861  0.6136  0.0185
   35MOL   H69441562   6.390   1.754   1.649 -0.5275 -0.7252 -1.2677
   35MOL   H69541563   6.427   1.760   1.829 -0.0386  0.1605 -0.9845
   35MOL   H69641564   6.363   1.522   1.855 -1.7997 -1.2078  0.4457
   35MOL   H69741565   6.330   1.519   1.681 -0.4273  0.6503 -1.3507
   35MOL   H69841566   6.136   1.674   1.727  1.8466  0.1885 -0.6795
   35MOL   H69941567   6.186   1.691   1.891 -2.5092 -0.1009  0.3195
   35MOL   H70041568   6.155   1.450   1.927 -0.6208  0.0079  1.0783
   35MOL   H70141569   6.100   1.431   1.759 -0.2163  0.4218 -0.3112
   35MOL   H70241570   5.920   1.445   1.959  1.9846  0.6062  1.9510
   35MOL   H70341571   5.940   1.614   1.949 -1.6447  0.0610 -1.2522
   35MOL   H70441572   5.871   1.396   1.741 -0.6725 -1.4283  1.0861
   35MOL   H70541573   5.761   1.526   1.818  1.5445  2.0662  1.1283
   35MOL   H70641574   5.851   1.759   1.469  1.0079  0.1477  0.6691
   35MOL   H70741575   5.831   1.626   1.344 -1.3119 -0.1587  0.9928
   35MOL   H70841576   6.085   1.685   1.507 -0.0962 -0.4615  0.1879
   35MOL   H70941577   6.065   1.716   1.331 -0.3957  1.6912  0.2467
   35MOL   H71041578   6.024   1.473   1.304 -0.1268  1.8502 -0.2764
   35MOL   H71141579   6.058   1.442   1.461  1.4801 -0.6103 -0.0814
   35MOL   H71241580   6.292   1.514   1.465 -0.2080  0.1773 -1.0776
   35MOL   H71341581   6.258   1.597   1.305 -0.5764  0.9798 -0.3248
   35MOL   H71441582   6.242   1.302   1.342  1.6981  0.6401  0.2929
   35MOL   H71541583   6.224   1.396   1.197 -0.8208  2.2849  0.5781
   35MOL   H71641584   6.465   1.459   1.221  2.0942 -0.7618 -1.1317
   35MOL   H71741585   6.491   1.354   1.356  0.6389 -0.5577  0.1256
   35MOL   H71841586   6.372   1.230   1.102  2.0256 -1.6693 -2.5457
   35MOL   H71941587   6.454   1.151   1.220  3.7091  1.1292  2.7631
   35MOL   H72041588   6.657   1.304   1.142 -0.4891  2.7349 -0.9904
   35MOL   H72141589   6.608   1.167   1.039  0.0092 -1.4300  1.8406
   35MOL   O72241590   6.662   1.401   0.913  0.2262  0.1477 -0.2467
   35MOL   C72341591   6.674   1.492   0.803 -0.0941 -0.2532 -0.4421
   35MOL   C72441592   6.811   1.566   0.817  0.4729 -0.1311 -0.0360
   35MOL   C72541593   6.837   1.684   0.718 -0.0146  0.9756 -0.5469
   35MOL   C72641594   6.971   1.751   0.731  0.3487 -0.1963 -0.4773
   35MOL   C72741595   6.995   1.868   0.634 -0.5134  0.1219 -0.2739
   35MOL   C72841596   7.135   1.924   0.659  0.2287  0.3301  0.1312
   35MOL   C72941597   7.242   1.830   0.602 -0.0949  0.3209 -0.0786
   35MOL   C73041598   7.370   1.898   0.554 -0.2455 -0.8263  0.3224
   35MOL   C73141599   7.466   1.814   0.479 -0.3939  0.1598  0.0411
   35MOL   C73241600   7.553   1.888   0.381 -0.2306  0.0464 -0.1072
   35MOL   O73341601   7.657   1.804   0.330  0.0703  0.2109  0.0532
   35MOL   C73441602   0.022   1.780   0.391 -0.0769  0.8886 -0.4552
   35MOL   O73541603   0.044   1.824   0.502 -0.7035  0.2054 -0.1441
   35MOL   C73641604   0.113   1.694   0.303  0.3293  0.2004  0.0038
   35MOL   C73741605   0.256   1.750   0.288 -0.0196  0.2937  0.1391
   35MOL   C73841606   0.344   1.643   0.217 -1.0311  0.2936  0.0841
   35MOL   C73941607   0.496   1.662   0.219  0.1090 -0.3579  0.2662
   35MOL   C74041608   0.563   1.542   0.147 -0.0369  0.2324 -0.5934
   35MOL   C74141609   0.719   1.547   0.163  0.0546  0.4701  0.3566
   35MOL   C74241610   0.788   1.470   0.061  0.3437 -0.2640  0.6589
   35MOL   C74341611   0.943   1.448   0.083 -0.5501  0.3265  0.3203
   35MOL   C74441612   0.956   1.325   0.167 -0.1047  0.6022 -0.0073
   35MOL   O74541613   1.001   1.217   0.129  0.3366  0.5457  0.0276
   35MOL   H74641614   6.679   1.436   0.710 -1.2421 -3.5387  1.3865
   35MOL   H74741615   6.591   1.561   0.818  0.1486 -0.4672  2.1370
   35MOL   H74841616   6.809   1.613   0.916 -3.1441  0.4175 -0.3023
   35MOL   H74941617   6.889   1.491   0.804 -0.5749 -1.2301 -0.0126
   35MOL   H75041618   6.818   1.622   0.630 -3.4065  2.3981 -0.9208
   35MOL   H75141619   6.759   1.758   0.735  0.3386  0.9111  1.4968
   35MOL   H75241620   6.977   1.783   0.835  1.3539 -1.3557 -0.1565
   35MOL   H75341621   7.055   1.681   0.720  0.2830 -0.5986  1.5346
   35MOL   H75441622   6.926   1.949   0.659 -1.1504 -0.2762 -0.7116
   35MOL   H75541623   6.980   1.833   0.532 -0.2139  0.1300 -0.3198
   35MOL   H75641624   7.154   1.932   0.766  0.2573 -0.1434  0.1616
   35MOL   H75741625   7.161   2.020   0.614  2.7612 -0.5654 -0.4350
   35MOL   H75841626   7.201   1.787   0.511 -0.8997  1.4060 -0.2466
   35MOL   H75941627   7.272   1.743   0.660  2.5557  0.7349 -0.8011
   35MOL   H76041628   7.424   1.958   0.627  0.9352 -1.8402  0.2935
   35MOL   H76141629   7.341   1.985   0.495 -0.6757 -0.0857  1.6260
   35MOL   H76241630   7.531   1.774   0.557 -1.6624  2.2760  2.2643
   35MOL   H76341631   7.412   1.732   0.430 -1.6297  2.3347 -2.3675
   35MOL   H76441632   7.492   1.921   0.297 -1.2091 -1.3565  0.0479
   35MOL   H76541633   7.587   1.974   0.439  0.2923 -0.1090 -0.1816
   35MOL   H76641634   0.069   1.672   0.206  1.5161  0.7468 -0.6636
   35MOL   H76741635   0.138   1.605   0.361  1.9971 -0.1006 -1.1575
   35MOL   H76841636   0.296   1.767   0.388 -2.2824 -0.6921  1.2438
   35MOL   H76941637   0.255   1.853   0.250  1.8287 -0.0012 -0.7464
   35MOL   H77041638   0.317   1.638   0.112  0.7455 -2.2129 -0.2893
   35MOL   H77141639   0.332   1.547   0.267  3.8607 -1.4951 -1.9469
   35MOL   H77241640   0.520   1.657   0.325  0.4291  0.3766  0.2355
   35MOL   H77341641   0.533   1.760   0.188 -0.1968  0.0969  1.2995
   35MOL   H77441642   0.522   1.447   0.183 -1.9169  0.5153 -1.9177
   35MOL   H77541643   0.522   1.543   0.046  1.1605 -2.9896 -1.1894
   35MOL   H77641644   0.758   1.648   0.162  0.0262  0.5388  2.4923
   35MOL   H77741645   0.745   1.516   0.264  1.3092 -0.7419 -0.3209
   35MOL   H77841646   0.762   1.510   7.719 -1.0461 -1.1665  0.6336
   35MOL   H77941647   0.739   1.372   0.055  2.3847 -1.2184 -0.8067
   35MOL   H78041648   0.987   1.439   7.740 -1.5850  1.7458 -0.2993
   35MOL   H78141649   0.991   1.534   0.129 -1.4743  0.5317  0.9092
   35MOL   O78241650   0.928   1.357   0.295 -0.1268  0.2300  0.0057
   35MOL   C78341651   0.942   1.252   0.393 -0.4774 -0.0195  0.3326
   35MOL   C78441652   0.807   1.184   0.409 -0.5048 -0.1108 -0.3505
   35MOL   C78541653   0.699   1.278   0.446  0.0148 -0.0010  0.3171
   35MOL   C78641654   0.558   1.223   0.464  0.1488 -0.2167  0.3936
   35MOL   C78741655   0.453   1.332   0.484 -0.1413  0.2442  0.0873
   35MOL   C78841656   0.459   1.410   0.620  0.2482  0.7049  0.4971
   35MOL   C78941657   0.338   1.506   0.625 -0.0557 -0.3008  0.4296
   35MOL   C79041658   0.298   1.535   0.762  0.0421 -0.3513 -0.0145
   35MOL   C79141659   0.191   1.644   0.785 -0.4437  0.3845  0.1305
   35MOL   C79241660   0.145   1.645   0.932 -0.0981 -0.1705 -0.1337
   35MOL   O79341661   0.027   1.731   0.935 -0.8831 -0.0053  0.2177
   35MOL   C79441662   7.691   1.717   1.023  0.6949 -0.8601  0.3073
   35MOL   O79541663   7.674   1.621   1.089 -0.4206 -0.1762 -0.1616
   35MOL   C79641664   7.585   1.825   1.028  0.7302 -0.3678 -0.2748
   35MOL   C79741665   7.438   1.784   1.061 -0.9152 -0.3187 -1.1464
   35MOL   C79841666   7.372   1.681   0.965  0.0723 -0.1222  0.2152
   35MOL   C79941667   7.241   1.620   1.015 -0.2696  0.4408  0.5217
   35MOL   C80041668   7.224   1.496   0.927 -0.0972 -0.4657  0.2434
   35MOL   C80141669   7.102   1.405   0.967 -0.3402 -0.0285  0.3686
   35MOL   C80241670   7.073   1.297   0.867 -0.2502 -0.0221 -0.0830
   35MOL   C80341671   6.953   1.215   0.906  0.0424  0.0162 -0.0135
   35MOL   C80441672   6.978   1.106   1.010 -0.3719  0.0296 -0.1375
   35MOL   O80541673   6.895   1.078   1.099  0.6794  0.1832  0.2268
   35MOL   H80641674   1.020   1.181   0.366  0.0306  0.4788  0.4717
   35MOL   H80741675   0.993   1.291   0.481  2.5770  0.8143 -1.7220
   35MOL   H80841676   0.796   1.137   0.311  1.4477 -0.8229 -0.2628
   35MOL   H80941677   0.825   1.111   0.488 -0.6529  0.6837  0.4263
   35MOL   H81041678   0.717   1.326   0.543  1.9232  0.8172 -0.4228
   35MOL   H81141679   0.694   1.355   0.369  2.1248  0.6071  0.7768
   35MOL   H81241680   0.522   1.162   0.380  0.8988  0.0569 -0.1327
   35MOL   H81341681   0.555   1.152   0.547 -0.4458 -1.4915 -0.6844
   35MOL   H81441682   0.357   1.280   0.481  0.1140 -0.2288  0.0368
   35MOL   H81541683   0.458   1.400   0.399  0.9576 -3.1121 -2.6280
   35MOL   H81641684   0.546   1.474   0.632  0.1442  0.9529 -0.0283
   35MOL   H81741685   0.449   1.342   0.704 -2.2162  2.7430  1.9229
   35MOL   H81841686   0.255   1.458   0.574 -0.2691  1.7290 -1.2263
   35MOL   H81941687   0.351   1.597   0.566 -1.7632 -0.8240 -0.7856
   35MOL   H82041688   0.388   1.560   0.817  0.0711  0.6651 -0.5053
   35MOL   H82141689   0.253   1.449   0.810  2.2277 -0.8069  1.2616
   35MOL   H82241690   0.231   1.740   0.752  1.6651 -0.1815  0.9717
   35MOL   H82341691   0.109   1.624   0.716  0.6724 -1.9909 -0.5899
   35MOL   H82441692   0.117   1.545   0.965  0.3156  0.1992  1.3753
   35MOL   H82541693   0.221   1.685   0.999 -2.5143  1.9889  1.4251
   35MOL   H82641694   7.587   1.884   0.936  0.1293  0.2711  0.1129
   35MOL   H82741695   7.627   1.894   1.101 -0.3248 -2.4331  2.4065
   35MOL   H82841696   7.383   1.877   1.078 -0.4548 -0.2233 -0.1385
   35MOL   H82941697   7.444   1.754   1.166 -0.5032 -0.0198 -1.0830
   35MOL   H83041698   7.441   1.602   0.935 -0.1016  0.0442 -0.6195
   35MOL   H83141699   7.356   1.724   0.867 -2.7326 -0.0157  0.6662
   35MOL   H83241700   7.166   1.698   1.000 -0.5142  0.0775 -0.1830
   35MOL   H83341701   7.241   1.606   1.123 -0.2839  0.8604  0.5761
   35MOL   H83441702   7.216   1.529   0.824 -1.5523  1.1258  0.8389
   35MOL   H83541703   7.316   1.439   0.916  0.2775 -0.0243  1.0492
   35MOL   H83641704   7.118   1.359   1.065 -0.9267 -1.1755 -0.0556
   35MOL   H83741705   7.011   1.463   0.980 -1.2715 -0.8130 -2.3449
   35MOL   H83841706   7.159   1.230   0.861  2.1107  2.9760 -0.7174
   35MOL   H83941707   7.067   1.346   0.770  3.0878  0.7433  0.0301
   35MOL   H84041708   6.870   1.279   0.935  0.4967  0.3176  0.6187
   35MOL   H84141709   6.919   1.166   0.814  0.7782 -1.4637  0.4823
   35MOL   O84241710   7.095   1.047   0.996 -0.3996  0.5701  0.2320
   35MOL   C84341711   7.131   0.932   1.068  0.0854  0.0946  0.8279
   35MOL   C84441712   7.216   0.974   1.199  0.5893 -0.3558 -0.4055
   35MOL   C84541713   7.256   0.849   1.285 -0.2882  0.3377  0.6209
   35MOL   C84641714   7.329   0.872   1.418  0.7535  0.7228 -0.0910
   35MOL   C84741715   7.314   0.750   1.516 -0.2648 -0.2065  0.4594
   35MOL   C84841716   7.418   0.651   1.483  0.5867 -0.4458 -0.2666
   35MOL   C84941717   7.426   0.541   1.590  0.3836 -0.1549  0.1924
   35MOL   C85041718   7.524   0.431   1.553  0.3657  0.0264  0.0580
   35MOL   C85141719   7.545   0.332   1.662  0.2415 -0.7363 -0.4015
   35MOL   C85241720   7.652   0.360   1.768  0.0870  0.1306  0.2413
   35MOL   O85341721   7.654   0.258   1.869  0.0108  0.0234  0.3722
   35MOL   C85441722   0.015   0.246   1.935 -0.0947 -0.6505  0.3092
   35MOL   O85541723   0.113   0.312   1.911 -0.3662 -0.3005  0.0483
   35MOL   C85641724   0.012   0.130   2.036 -0.5694  0.7376 -0.3578
   35MOL   C85741725   0.099   0.013   1.982  0.4444  0.6012 -0.1643
   35MOL   C85841726   0.247   0.040   2.000 -0.3774 -0.5327 -0.3381
   35MOL   C85941727   0.335   7.667   1.978 -0.7908 -0.1584 -0.3471
   35MOL   C86041728   0.485   7.687   1.968  0.0751  0.8533  0.7332
   35MOL   C86141729   0.574   7.595   1.882  0.5977  1.1285  0.5869
   35MOL   C86241730   0.562   7.451   1.925 -0.5458 -0.0242 -0.2420
   35MOL   C86341731   0.661   7.354   1.863 -0.0436 -0.6099  0.7579
   35MOL   C86441732   0.663   7.222   1.941  0.0945 -0.6008  0.7047
   35MOL   O86541733   0.750   7.204   2.027  0.2628  0.3132  0.6155
   35MOL   H86641734   7.040   0.881   1.100  0.3273 -0.6941  0.2710
   35MOL   H86741735   7.183   0.858   1.007  0.2070  2.0644 -1.5019
   35MOL   H86841736   7.297   1.043   1.173 -1.4046  1.7262 -1.1938
   35MOL   H86941737   7.145   1.035   1.255  0.8732 -0.4282  0.0380
   35MOL   H87041738   7.160   0.807   1.314  0.2007  1.4226  4.0180
   35MOL   H87141739   7.314   0.782   1.222 -0.2177 -0.0146  1.0581
   35MOL   H87241740   7.430   0.912   1.412  0.3310  1.8751  0.3649
   35MOL   H87341741   7.275   0.956   1.461 -1.2937 -0.3686 -0.4208
   35MOL   H87441742   7.216   0.703   1.521 -0.5051  0.1255 -1.1028
   35MOL   H87541743   7.331   0.785   1.618 -1.7434  0.7488  0.3887
   35MOL   H87641744   7.518   0.693   1.478 -0.2879  1.9054  1.2088
   35MOL   H87741745   7.405   0.602   1.386 -0.9939  1.2601 -0.9528
   35MOL   H87841746   7.331   0.491   1.612  0.9630 -1.3593 -0.0180
   35MOL   H87941747   7.463   0.582   1.684  1.0141 -0.0837 -0.0834
   35MOL   H88041748   7.617   0.475   1.519  0.7778  0.4283  1.6800
   35MOL   H88141749   7.477   0.377   1.471  0.1826  2.5085 -1.5342
   35MOL   H88241750   7.453   0.305   1.714 -0.3131  0.3622 -0.7940
   35MOL   H88341751   7.563   0.235   1.616  0.3207 -1.4805  1.1654
   35MOL   H88441752   7.743   0.373   1.710 -0.4385  0.5496 -0.4964
   35MOL   H88541753   7.635   0.451   1.826  0.8159 -0.9863  2.2643
   35MOL   H88641754   7.673   0.084   2.059  0.9659 -2.6383 -0.3474
   35MOL   H88741755   0.047   0.162   2.134 -1.2622  1.0453 -0.2107
   35MOL   H88841756   0.063   7.753   1.881 -0.8911  3.2887 -0.1700
   35MOL   H88941757   0.085   7.678   2.040 -1.0400  0.7029 -0.3595
   35MOL   H89041758   0.264   0.063   2.105 -0.5053  3.8559 -1.2179
   35MOL   H89141759   0.297   0.125   1.955  0.7709 -0.1477  1.6410
   35MOL   H89241760   0.313   7.628   1.878  1.8846  1.5543 -1.6406
   35MOL   H89341761   0.310   7.580   2.039  2.6972 -1.6683 -0.9429
   35MOL   H89441762   0.499   0.035   1.940 -0.4505  1.0300  1.1330
   35MOL   H89541763   0.525   7.684   2.069  0.9157 -0.3144  0.3819
   35MOL   H89641764   0.535   7.597   1.781  0.3603 -1.1914  0.6144
   35MOL   H89741765   0.679   7.623   1.891  0.7726  0.7019 -0.1546
   35MOL   H89841766   0.461   7.417   1.899 -0.6101  0.5536 -0.7733
   35MOL   H89941767   0.570   7.442   2.033 -1.8055 -0.3493 -0.1692
   35MOL   H90041768   0.638   7.348   1.756  0.9518  0.9582  0.4451
   35MOL   H90141769   0.760   7.399   1.868  1.0810 -2.6377 -1.8599
   35MOL   O90241770   0.566   7.142   1.907  0.1812 -0.8075  0.6907
   35MOL   C90341771   0.543   7.018   1.974  0.2737 -0.9029 -0.2943
   35MOL   C90441772   0.410   7.029   2.062  1.0273  0.4149 -0.1051
   35MOL   C90541773   0.368   6.898   2.127 -0.2010  0.7441  0.6534
   35MOL   C90641774   0.222   6.907   2.174  0.1172  0.6950 -0.0532
   35MOL   C90741775   0.168   6.782   2.255  0.7503 -0.0001 -0.0016
   35MOL   C90841776   0.213   6.779   2.400  0.1872 -0.7990  0.6258
   35MOL   C90941777   0.175   6.644   2.466  0.2502  0.3167 -0.1076
   35MOL   C91041778   0.170   6.645   2.625 -1.2621 -0.3126  0.3451
   35MOL   C91141779   0.309   6.683   2.692 -0.4577  0.3494  0.1341
   35MOL   C91241780   0.291   6.674   2.847 -0.3365 -0.0741 -0.3495
   35MOL   O91341781   0.430   6.652   2.895  0.3162 -1.0268 -0.0537
   35MOL   C91441782   0.463   6.556   2.974 -0.0392 -0.1001 -0.8679
   35MOL   O91541783   0.397   6.457   2.993  0.3464 -0.0684  0.0137
   35MOL   C91641784   0.602   6.577   3.029  0.2614 -0.1454  0.5255
   35MOL   C91741785   0.641   6.492   3.158  0.4663 -0.6449 -0.2315
   35MOL   C91841786   0.742   6.552   3.258  0.4727  0.1001 -0.1612
   35MOL   C91941787   0.792   6.450   3.361  0.6400 -0.6817  0.7851
   35MOL   C92041788   0.929   6.491   3.427  0.5175 -0.3824 -0.0865
   35MOL   C92141789   0.992   6.386   3.509  0.3955 -0.4869  0.2929
   35MOL   C92241790   1.118   6.438   3.581  0.4531  0.5265  0.0220
   35MOL   C92341791   1.160   6.340   3.684  0.3151  0.2252  0.0822
   35MOL   C92441792   1.304   6.360   3.736 -0.2240 -0.4073  0.4132
   35MOL   O92541793   1.324   6.429   3.836 -0.6593  0.2096  0.6790
   35MOL   H92641794   0.530   6.940   1.900  0.7965  1.4994 -3.0161
   35MOL   H92741795   0.623   6.980   2.038  0.8673  1.9943  0.7900
   35MOL   H92841796   0.434   7.104   2.137 -1.1720 -0.5735  1.6273
   35MOL   H92941797   0.327   7.069   2.004  1.1259 -1.2623 -1.4191
   35MOL   H93041798   0.381   6.820   2.052  1.8118  1.5624  0.1299
   35MOL   H93141799   0.441   6.874   2.205 -0.0893  0.1106  0.3563
   35MOL   H93241800   0.213   7.002   2.227  0.5836  2.2420 -2.6360
   35MOL   H93341801   0.160   6.929   2.086 -1.6446 -0.2879  0.9158
   35MOL   H93441802   0.202   6.691   2.206  2.1744  0.7145 -0.3633
   35MOL   H93541803   0.061   6.771   2.240  0.7675  2.8094 -2.8166
   35MOL   H93641804   0.160   6.854   2.458 -2.4979 -0.1314 -2.5488
   35MOL   H93741805   0.320   6.802   2.406 -0.1024  0.5766  0.6395
   35MOL   H93841806   0.246   6.566   2.439  1.0841  0.9793  0.1439
   35MOL   H93941807   0.082   6.606   2.425  0.3266 -0.8679  0.7682
   35MOL   H94041808   0.138   6.546   2.658  1.2685 -1.1864  0.2715
   35MOL   H94141809   0.091   6.710   2.662  1.2255  2.0526  1.6037
   35MOL   H94241810   0.395   6.626   2.659 -0.9534 -0.2378 -0.1550
   35MOL   H94341811   0.343   6.782   2.662 -1.1671  0.4258 -0.4194
   35MOL   H94441812   0.256   6.771   2.884  1.0115  0.6820 -1.0269
   35MOL   H94541813   0.222   6.592   2.868 -0.3961 -0.0026 -0.2627
   35MOL   H94641814   0.620   6.682   3.052  2.6515  0.0972 -2.2398
   35MOL   H94741815   0.659   6.543   2.943 -3.4205 -2.0961 -1.2638
   35MOL   H94841816   0.678   6.393   3.134  0.6224 -0.9920  1.3450
   35MOL   H94941817   0.546   6.479   3.211  1.5660 -0.0058  1.9699
   35MOL   H95041818   0.686   6.627   3.314 -2.8178 -2.5642  0.2268
   35MOL   H95141819   0.824   6.600   3.204  1.4906 -0.7496  0.6018
   35MOL   H95241820   0.817   6.358   3.307  2.1675  0.3751 -0.3737
   35MOL   H95341821   0.704   6.435   3.423  0.4894  2.3708  1.4109
   35MOL   H95441822   0.997   6.523   3.348  0.4742  3.1951  1.2129
   35MOL   H95541823   0.924   6.587   3.480  1.0102 -0.8771  0.8786
   35MOL   H95641824   0.917   6.352   3.580 -1.1320 -0.9507 -1.5318
   35MOL   H95741825   1.021   6.305   3.444  1.7401 -0.3447  0.6947
   35MOL   H95841826   1.100   6.533   3.632 -0.8994 -0.4467  1.4197
   35MOL   H95941827   1.202   6.455   3.514  1.9779 -3.3634  0.8480
   35MOL   H96041828   1.092   6.346   3.769 -1.2054 -0.0289 -1.0839
   35MOL   H96141829   1.148   6.237   3.653 -2.7874  0.3281  0.7362
   35MOL   O96241830   1.393   6.283   3.669  0.0298 -0.0962  0.2927
   35MOL   C96341831   1.519   6.271   3.731  0.1024 -0.1975  0.3437
   35MOL   C96441832   1.612   6.381   3.691  0.6771  0.6992  0.0720
   35MOL   C96541833   1.671   6.372   3.550  0.2801 -0.1669  0.8511
   35MOL   C96641834   1.797   6.469   3.527 -0.2452  0.2781 -0.1140
   35MOL   C96741835   1.884   6.435   3.401 -0.4871  0.8087 -0.3410
   35MOL   C96841836   1.820   6.476   3.269  0.2037 -0.7434  0.1812
   35MOL   C96941837   1.919   6.501   3.150 -0.1398  0.0628  0.2396
   35MOL   C97041838   1.870   6.560   3.019 -0.4564 -0.1886  0.4876
   35MOL   C97141839   1.754   6.477   2.961  0.0839  0.7642  0.0035
   35MOL   C97241840   1.726   6.524   2.820  0.5454 -0.0880 -0.0253
   35MOL   O97341841   1.709   6.669   2.817  0.8127 -0.2960  0.6138
   35MOL   C97441842   1.607   6.718   2.740  0.1892 -0.2153  0.6833
   35MOL   O97541843   1.530   6.654   2.666  0.6000 -0.8201 -0.3394
   35MOL   C97641844   1.606   6.875   2.740  0.2530  0.0429 -0.4054
   35MOL   C97741845   1.752   6.929   2.736 -0.4811  0.1603 -0.6887
   35MOL   C97841846   1.822   6.951   2.871 -0.1135  0.7858 -0.8452
   35MOL   C97941847   1.971   6.945   2.859  0.9066  0.0195 -0.2787
   35MOL   C98041848   2.037   6.944   3.000  0.8420  0.1341  0.4065
   35MOL   C98141849   2.188   6.920   3.003  0.3916 -0.1530  0.0900
   35MOL   C98241850   2.269   7.049   2.970 -0.7028  0.2700  0.4132
   35MOL   C98341851   2.414   7.043   2.933 -0.0192 -0.4963 -0.7421
   35MOL   C98441852   2.512   7.017   3.047  0.4062  0.1375  0.0949
   35MOL   O98541853   2.579   6.918   3.046 -0.2572  0.0881  0.0108
   35MOL   H98641854   1.504   6.266   3.839 -0.8331  2.2218  0.3559
   35MOL   H98741855   1.564   6.182   3.688  0.7441 -0.0025  0.6049
   35MOL   H98841856   1.560   6.477   3.702 -0.7167 -0.0197 -0.1917
   35MOL   H98941857   1.695   6.383   3.762  1.8974 -0.0828 -1.3038
   35MOL   H99041858   1.726   6.277   3.543 -2.5609 -1.9250  1.6407
   35MOL   H99141859   1.598   6.393   3.472 -0.5560  0.7597  1.8668
   35MOL   H99241860   1.766   6.574   3.532  0.3636  0.4306  0.6953
   35MOL   H99341861   1.854   6.457   3.619  1.1252 -0.3258 -1.0336
   35MOL   H99441862   1.914   6.331   3.409  1.5732  1.3289 -0.9658
   35MOL   H99541863   1.968   6.503   3.415 -1.5080  1.8271  0.8909
   35MOL   H99641864   1.762   6.568   3.275 -2.0435 -2.1488  0.2892
   35MOL   H99741865   1.744   6.402   3.245 -2.2916  1.5865  0.7123
   35MOL   H99841866   1.955   6.399   3.138  2.2262  0.8631  0.2885
   35MOL   H99941867   2.002   6.561   3.186 -0.8990  0.6117  1.0862
   35MOL     H141868   1.954   6.570   2.951 -0.4602  1.7972  0.7581
   35MOL     H241869   1.845   6.666   3.023  0.0591 -0.1374  2.8605
   35MOL     H341870   1.786   6.373   2.965 -0.5737  0.5262 -0.7003
   35MOL     H441871   1.673   6.473   3.034  0.4373  0.2340  0.3715
   35MOL     H541872   1.813   6.492   2.763 -0.5378  1.1998 -2.4765
   35MOL     H641873   1.644   6.467   2.778  0.9573 -0.4200 -0.3854
   35MOL     H741874   1.553   6.907   2.829  1.9319  1.2624  0.1736
   35MOL     H841875   1.541   6.908   2.659 -1.3433 -1.6932  0.1473
   35MOL     H941876   1.757   7.032   2.699 -1.8712  0.1990 -0.7761
   35MOL    H1041877   1.815   6.876   2.664  2.3778  1.6776  0.5947
   35MOL    H1141878   1.784   6.870   2.934  0.5055 -0.5400 -2.1217
   35MOL    H1241879   1.793   7.048   2.910 -0.3219 -0.0952  1.2434
   35MOL    H1341880   2.003   7.032   2.802 -2.2850  0.1493 -2.0089
   35MOL    H1441881   1.999   6.850   2.813  1.2692 -0.9193  1.8242
   35MOL    H1541882   2.001   7.026   3.062 -0.9506  0.2471 -0.7386
   35MOL    H1641883   1.987   6.863   3.052  1.8111 -0.9760 -0.3640
   35MOL    H1741884   2.243   6.884   3.090  0.6929  2.7224  1.1305
   35MOL    H1841885   2.212   6.845   2.927 -0.1891 -0.6380  0.3745
   35MOL    H1941886   2.249   7.116   3.054 -1.1414  1.4613 -0.6331
   35MOL    H2041887   2.219   7.088   2.882  2.1871 -0.3228 -1.5442
   35MOL    H2141888   2.420   6.968   2.855 -0.0443 -1.0533 -0.2173
   35MOL    H2241889   2.430   7.141   2.888  3.2416 -0.0786  1.1315
   35MOL    O2341890   2.511   7.114   3.147  0.1935 -0.4976  0.4695
   35MOL    C2441891   2.597   7.108   3.261  0.6324 -0.2038 -0.3078
   35MOL    C2541892   2.535   7.015   3.369  0.1000  0.8387  0.7081
   35MOL    C2641893   2.392   7.050   3.411  0.4595  0.1427  0.1901
   35MOL    C2741894   2.327   6.953   3.514  0.0691 -0.2224 -0.8508
   35MOL    C2841895   2.182   6.967   3.538  0.3292 -0.5194 -0.6587
   35MOL    C2941896   2.121   6.835   3.589 -0.2007 -0.6798 -0.2292
   35MOL    C3041897   1.968   6.828   3.567 -0.1716  0.2918 -0.4678
   35MOL    C3141898   1.897   6.931   3.652  0.2287 -0.6820 -0.1750
   35MOL    C3241899   1.744   6.905   3.661 -0.0114 -0.0463  0.2553
   35MOL    C3341900   1.663   7.006   3.747 -0.8202 -0.0298 -0.3584
   35MOL    O3441901   1.663   7.132   3.688  0.1851  0.0464 -0.0358
   35MOL    C3541902   1.568   7.218   3.709  0.0713 -0.1405  0.0018
   35MOL    O3641903   1.475   7.194   3.788 -0.6128  0.4048 -0.3110
   35MOL    C3741904   1.569   7.340   3.615 -0.2720  0.1568 -0.1349
   35MOL    C3841905   1.490   7.469   3.656 -0.3360 -0.2257  0.4980
   35MOL    C3941906   1.341   7.462   3.676 -0.1559  0.0382  0.2921
   35MOL    C4041907   1.268   7.595   3.692 -0.7111  0.3187 -0.1172
   35MOL    C4141908   1.119   7.582   3.739 -0.2459  0.6444  0.4991
   35MOL    C4241909   1.040   7.715   3.735  0.6671  0.6289 -0.2213
   35MOL    C4341910   0.888   7.703   3.771  0.4656  0.9394 -0.1251
   35MOL    C4441911   0.869   7.656   3.915 -0.2137  0.1687 -1.0509
   35MOL    C4541912   0.723   7.628   3.948 -0.2293 -0.0998  0.3561
   35MOL    O4641913   0.626   7.679   3.896 -0.1905 -0.0313  0.3046
   35MOL    H4741914   2.697   7.073   3.234  0.4000 -1.9956  1.0196
   35MOL    H4841915   2.593   7.204   3.312 -0.6109  0.3912 -1.5069
   35MOL    H4941916   2.523   6.916   3.326 -1.7757  1.4136 -0.1518
   35MOL    H5041917   2.601   7.022   3.456  0.3788 -0.5580  0.6125
   35MOL    H5141918   2.390   7.149   3.456  0.9521  0.3332 -0.2054
   35MOL    H5241919   2.331   7.050   3.321  0.2236  1.5060  0.3385
   35MOL    H5341920   2.351   6.855   3.472 -1.5673 -1.5472  1.2552
   35MOL    H5441921   2.376   6.961   3.611 -3.7084 -0.4360  1.1521
   35MOL    H5541922   2.140   6.996   3.442 -0.5275  2.5172  0.5756
   35MOL    H5641923   2.139   7.044   3.602  0.2079  0.7322 -2.2280
   35MOL    H5741924   2.143   6.814   3.693  3.1175 -0.3137 -0.7921
   35MOL    H5841925   2.165   6.757   3.527 -1.9210 -1.7837 -0.1108
   35MOL    H5941926   1.922   6.729   3.580 -2.0373  1.3137  1.0735
   35MOL    H6041927   1.929   6.854   3.469 -0.6568  1.0669 -0.0752
   35MOL    H6141928   1.919   7.034   3.623  2.4415 -1.6224 -1.8917
   35MOL    H6241929   1.938   6.929   3.753  0.8355 -1.7003 -0.4420
   35MOL    H6341930   1.693   6.924   3.566  1.3567  0.0627 -0.4772
   35MOL    H6441931   1.707   6.805   3.683 -0.3462 -0.1886 -0.9116
   35MOL    H6541932   1.562   6.963   3.747 -0.7001 -0.3841  2.2184
   35MOL    H6641933   1.696   7.002   3.850  0.2576 -3.8159 -0.7593
   35MOL    H6741934   1.533   7.303   3.518  3.0959  0.4493 -1.5908
   35MOL    H6841935   1.675   7.357   3.596  0.1828 -1.0813  1.2147
   35MOL    H6941936   1.508   7.537   3.573 -2.0297 -0.3019  0.0528
   35MOL    H7041937   1.543   7.517   3.738 -0.4125 -1.0878  1.0697
   35MOL    H7141938   1.326   7.400   3.765 -0.3733  0.6687  0.6995
   35MOL    H7241939   1.306   7.406   3.590  0.1054  0.1592  0.1084
   35MOL    H7341940   1.280   7.658   3.605 -0.1739  1.3516  0.6923
   35MOL    H7441941   1.319   7.655   3.767  0.1752 -0.9808  0.3411
   35MOL    H7541942   1.073   7.518   3.663 -0.4903 -0.2566  1.3895
   35MOL    H7641943   1.112   7.528   3.834  1.0648  0.0926  0.2850
   35MOL    H7741944   1.081   0.035   3.802  0.9037  1.2057 -1.0252
   35MOL    H7841945   1.044   0.012   3.640 -1.8069  0.2397 -0.5616
   35MOL    H7941946   0.835   7.646   3.695  0.7588  1.6381 -0.8764
   35MOL    H8041947   0.845   0.045   3.754  2.1520  1.6035 -0.7259
   35MOL    H8141948   0.919   7.561   3.932 -1.9841 -0.2923  1.8999
   35MOL    H8241949   0.912   7.721   3.991 -0.0652 -1.8421  0.6068
   35MOL    O8341950   0.715   7.527   4.035 -0.6282 -0.1600 -0.0665
   35MOL    C8441951   0.593   7.476   4.083 -0.1664  0.0860  0.0494
   35MOL    C8541952   0.619   7.340   4.136 -0.4022  0.0510  0.0698
   35MOL    C8641953   0.519   7.306   4.249  0.7421 -0.4221 -0.1937
   35MOL    C8741954   0.374   7.272   4.206  0.1306 -0.1535  0.8641
   35MOL    C8841955   0.296   7.217   4.329 -0.8843  0.2587  0.2652
   35MOL    C8941956   0.155   7.177   4.310 -0.4108  1.0680  0.0685
   35MOL    C9041957   0.092   7.113   4.432 -0.0134 -0.2997  0.1706
   35MOL    C9141958   7.717   7.040   4.394 -0.7491  0.0490 -0.3413
   35MOL    C9241959   7.651   7.002   4.518 -0.0447 -0.9880 -0.1952
   35MOL    C9341960   7.543   6.886   4.510  0.1098  0.6760  0.3915
   35MOL    O9441961   7.431   6.927   4.441 -0.0534 -0.0232 -0.2148
   35MOL    C9541962   7.313   6.845   4.439  0.2583  0.1536  0.7544
   35MOL    O9641963   7.294   6.739   4.500 -0.3045 -0.2486  0.3515
   35MOL    C9741964   7.222   6.903   4.334 -0.6668  0.7682 -0.2654
   35MOL    C9841965   7.250   6.858   4.186  1.0535  0.7244  0.0832
   35MOL    C9941966   7.393   6.885   4.129 -0.0893 -0.2726 -0.4898
   35MOL   C10041967   7.443   7.026   4.128  0.1824 -0.0636 -0.2302
   35MOL   C10141968   7.568   7.056   4.040  0.2988 -0.0830  0.1948
   35MOL   C10241969   7.611   7.208   4.034  0.1987 -0.2893 -0.0648
   35MOL   C10341970   7.724   7.238   3.931 -0.2204 -0.3836 -0.2570
   35MOL   C10441971   7.686   7.221   3.785  0.9465 -0.2106 -0.3802
   35MOL   C10541972   7.567   7.302   3.741 -0.8245  0.6508  0.1690
   35MOL   O10641973   7.474   7.259   3.674  0.1981 -0.3422  0.7236
   35MOL   H10741974   0.573   7.548   4.162  1.3350  1.4948 -0.8279
   35MOL   H10841975   0.512   7.469   4.010 -0.7099 -1.5208  0.7669
   35MOL   H10941976   0.607   7.265   4.058 -0.0580  0.5400 -0.4521
   35MOL   H11041977   0.720   7.332   4.176 -1.3395 -3.1264  2.0242
   35MOL   H11141978   0.553   7.223   4.311  2.2743  0.1748 -0.2114
   35MOL   H11241979   0.516   7.395   4.312 -2.7130 -0.9839  0.5490
   35MOL   H11341980   0.326   7.365   4.174 -1.6399 -1.3731 -0.0765
   35MOL   H11441981   0.379   7.200   4.125  0.0641  1.8707 -0.9757
   35MOL   H11541982   0.294   7.303   4.397  2.0973  0.9488 -0.4334
   35MOL   H11641983   0.347   7.137   4.383 -2.2100  0.3346  1.6477
   35MOL   H11741984   0.160   7.101   4.231 -1.9509  0.2740  0.7146
   35MOL   H11841985   0.094   7.256   4.266  0.3725  1.3454 -0.5393
   35MOL   H11941986   0.079   7.185   4.512 -1.5847  2.2360 -2.2539
   35MOL   H12041987   0.163   7.037   4.464  3.7985  2.9603 -0.1904
   35MOL   H12141988   7.739   6.962   4.321 -0.7989 -1.4989  1.2694
   35MOL   H12241989   7.653   7.113   4.346 -0.2177  0.6829 -0.0913
   35MOL   H12341990   7.728   6.950   4.575  0.7665  1.5359  1.0901
   35MOL   H12441991   7.623   7.087   4.580  0.1098 -0.9829 -0.1321
   35MOL   H12541992   7.582   6.799   4.458 -0.3210  0.9003 -0.3123
   35MOL   H12641993   7.516   6.849   4.609  0.9918  1.6362  1.0028
   35MOL   H12741994   7.235   7.012   4.335 -1.6996  0.9172  2.0637
   35MOL   H12841995   7.123   6.878   4.373 -1.2854  1.2427 -1.5149
   35MOL   H12941996   7.173   6.889   4.115 -0.4090 -1.8333  0.5055
   35MOL   H13041997   7.237   6.750   4.185 -3.5677  1.1716  1.3008
   35MOL   H13141998   7.383   6.846   4.028 -2.7279 -2.8418  0.6806
   35MOL   H13241999   7.467   6.822   4.178  1.0823  1.5606  0.1543
   35MOL   H13342000   7.470   7.056   4.230 -0.1289 -2.3222  0.5409
   35MOL   H13442001   7.370   7.091   4.080 -0.3664 -0.5921 -0.1073
   35MOL   H13542002   7.646   6.987   4.072 -1.8873 -1.4820  2.7900
   35MOL   H13642003   7.546   7.034   3.936 -0.9663  2.5308 -0.1286
   35MOL   H13742004   7.524   7.271   4.021 -0.1298 -0.1030  2.8495
   35MOL   H13842005   7.646   7.230   4.135  2.1795  1.1448 -1.0374
   35MOL   H13942006   0.054   7.175   3.948 -0.6418 -1.3977 -1.7829
   35MOL   H14042007   0.002   7.339   3.954 -0.9974 -0.4849  1.3607
   35MOL   H14142008   0.004   7.251   3.712 -1.0461  0.9066 -1.9921
   35MOL   H14242009   7.665   7.116   3.764 -0.0501  0.1057 -1.0035
   35MOL   O14342010   7.572   7.420   3.796  0.2514 -0.9801 -0.2770
   35MOL   C14442011   7.453   7.501   3.782  0.0046 -0.9671  0.3281
   35MOL   C14542012   7.483   7.594   3.667  0.5210  0.5205  0.4387
   35MOL   C14642013   7.368   7.661   3.592 -0.2967  0.5994  0.7589
   35MOL   C14742014   7.411   0.038   3.523  0.2352 -0.1272 -0.3718
   35MOL   C14842015   7.318   0.090   3.412 -0.5500  0.7486  0.1824
   35MOL   C14942016   7.173   0.098   3.464  0.0889  0.0187  0.1930
   35MOL   C15042017   7.084   0.165   3.353 -0.5004  0.2280  0.1640
   35MOL   C15142018   7.061   0.087   3.225  0.1116  0.8850  0.5671
   35MOL   C15242019   6.979   7.714   3.247  0.5724  0.5595  0.2360
   35MOL   C15342020   6.945   7.636   3.120 -0.3531  0.0793  0.3915
   35MOL   O15442021   6.846   7.709   3.052 -0.1986  0.4330  0.1892
   35MOL   C15542022   6.802   7.676   2.928  0.1498  0.3951 -0.4870
   35MOL   O15642023   6.831   7.571   2.870 -0.3948 -0.1784 -0.3946
   35MOL   C15742024   6.702   0.006   2.856  0.2100 -0.2323 -0.7123
   35MOL   C15842025   6.586   7.692   2.778 -0.9261 -0.6147  0.2864
   35MOL   C15942026   6.499   7.591   2.859 -0.5509  0.1694  0.0106
   35MOL   C16042027   6.369   7.543   2.791 -0.1503  0.4550 -1.1363
   35MOL   C16142028   6.305   7.419   2.855 -0.0246  0.5113  0.5321
   35MOL   C16242029   6.290   7.438   3.006 -0.5009 -0.7288 -0.1245
   35MOL   C16342030   6.247   7.299   3.061  0.1412  0.1218 -0.1074
   35MOL   C16442031   6.201   7.314   3.209 -0.6145 -0.0373  0.5430
   35MOL   C16542032   6.235   7.190   3.295  0.2011  0.2450  0.4635
   35MOL   O16642033   6.250   7.078   3.236  0.6640 -0.4561 -0.6002
   35MOL   H16742034   7.359   7.446   3.779  0.4399 -1.7514  0.9244
   35MOL   H16842035   7.448   7.568   3.867 -1.0790  0.3218 -0.7243
   35MOL   H16942036   7.538   7.678   3.709 -0.5569  0.4236  2.0599
   35MOL   H17042037   7.536   7.539   3.588 -0.8976 -1.0494  0.5356
   35MOL   H17142038   7.328   7.596   3.515 -1.4194  0.6820  1.2626
   35MOL   H17242039   7.283   7.682   3.657 -0.9856 -0.2587  0.1390
   35MOL   H17342040   7.434   0.121   3.590  0.0276  0.3239 -0.8558
   35MOL   H17442041   7.508   0.020   3.475 -0.5398  0.9194 -2.4016
   35MOL   H17542042   7.321   0.007   3.342 -0.7434 -1.9196  3.2129
   35MOL   H17642043   7.360   0.176   3.360  0.9359  1.2010  2.0581
   35MOL   H17742044   7.153   0.160   3.552 -1.2107 -0.4239  0.2208
   35MOL   H17842045   7.141   0.001   3.501 -0.6775  0.2369  0.1015
   35MOL   H17942046   7.142   0.256   3.335  1.5904 -0.8955  1.0998
   35MOL   H18042047   6.986   0.190   3.395 -0.3206  1.7712 -0.3146
   35MOL   H18142048   7.160   0.069   3.183  1.2538  1.1045  3.0905
   35MOL   H18242049   7.017   0.140   3.140 -0.8103  1.4789  1.3920
   35MOL   H18342050   7.036   7.648   3.312 -1.2976 -0.5769  0.7494
   35MOL   H18442051   6.882   7.729   3.294 -0.4064 -0.6466 -1.3550
   35MOL   H18542052   7.039   7.640   3.065 -0.3198 -1.8390  0.2918
   35MOL   H18642053   6.915   7.532   3.136 -0.8701  0.3917  1.5028
   35MOL   H18742054   6.748   0.075   2.785  1.0913 -0.2685 -0.1761
   35MOL   H18842055   6.650   0.076   2.921  0.5433 -1.5146  0.9428
   35MOL   H18942056   6.619   7.642   2.687 -0.8518 -1.6858  0.8917
   35MOL   H19042057   6.514   0.010   2.743 -0.3840 -0.6772 -0.9677
   35MOL   H19142058   6.477   7.643   2.952  0.0336  1.4404 -0.5610
   35MOL   H19242059   6.550   7.496   2.877  0.2933  0.6425  0.1468
   35MOL   H19342060   6.398   7.508   2.692  1.8752 -0.7769 -0.1482
   35MOL   H19442061   6.305   7.631   2.797  0.9622  1.1869  0.5507
   35MOL   H19542062   6.210   7.407   2.802  1.0661  0.8874 -1.5464
   35MOL   H19642063   6.370   7.334   2.837 -1.2405 -0.1510 -0.8510
   35MOL   H19742064   6.385   7.445   3.059 -0.3623  3.1782 -0.7876
   35MOL   H19842065   6.237   7.530   3.030  0.9073  0.5444 -1.7446
   35MOL   H19942066   6.329   7.227   3.052  1.1972  1.2514  0.4057
   35MOL   H20042067   6.162   7.271   2.999 -1.8418  3.0564  1.1617
   35MOL   H20142068   6.241   7.406   3.252  1.5402  1.8640 -5.0773
   35MOL   H20242069   6.092   7.314   3.215 -0.6595  0.9894 -0.1122
   35MOL   H20342070   6.246   7.196   3.403  0.5992  0.9397  0.3891
   36MOL     O142071   2.882   6.895   6.683 -0.0551  0.1416  0.1202
   36MOL     C242072   2.816   7.014   6.645 -0.6242  0.4660  0.1669
   36MOL     C342073   2.698   6.968   6.566 -0.5144 -0.2507 -0.4668
   36MOL     C442074   2.617   7.083   6.516 -0.2952 -0.2475 -0.0784
   36MOL     C542075   2.478   7.028   6.486  0.4298  0.1249  0.8181
   36MOL     C642076   2.408   7.131   6.393 -0.0368 -0.2839  0.5594
   36MOL     C742077   2.271   7.095   6.339 -0.1587  0.2897 -0.0530
   36MOL     C842078   2.211   7.209   6.264  0.2269 -0.4359  0.6169
   36MOL     C942079   2.070   7.176   6.218 -0.1000 -0.4705 -0.3233
   36MOL    C1042080   1.997   7.277   6.133 -0.3678  0.8088  0.0478
   36MOL    C1142081   1.844   7.260   6.148 -0.0694  0.8137  0.2226
   36MOL    O1242082   1.798   7.289   6.278  0.0522 -0.8903 -0.1692
   36MOL    C1342083   1.727   7.205   6.361  0.3877 -0.4954 -0.5893
   36MOL    O1442084   1.668   7.105   6.320 -0.0563  1.0129  0.5131
   36MOL    C1542085   1.723   7.258   6.498 -0.0220 -0.7709 -0.6951
   36MOL    C1642086   1.831   7.201   6.596  0.2899  0.2231 -0.1073
   36MOL    C1742087   1.787   7.065   6.649 -0.5055 -0.3817  0.0484
   36MOL    C1842088   1.900   6.967   6.680  0.2000  0.4449 -0.0044
   36MOL    C1942089   1.841   6.844   6.742 -0.3922  0.0779 -0.0368
   36MOL    C2042090   1.947   6.739   6.747 -0.3819 -0.0218  0.3492
   36MOL    C2142091   1.878   6.611   6.778  0.0415 -0.0356 -0.3430
   36MOL    C2242092   1.965   6.486   6.752  0.4668 -0.0984 -0.9049
   36MOL    C2342093   1.892   6.356   6.778  0.1185 -0.3675 -0.3348
   36MOL    O2442094   1.769   6.347   6.763  0.4448 -0.3253  0.0001
   36MOL    H2542095   2.777   7.064   6.733 -0.9755  0.6436 -0.0847
   36MOL    H2642096   2.885   7.080   6.592  0.8410 -0.4536  0.9020
   36MOL    H2742097   2.723   6.924   6.469 -0.3467  2.0654 -1.5275
   36MOL    H2842098   2.638   6.910   6.635 -3.2416  2.5230 -0.3741
   36MOL    H2942099   2.608   7.162   6.590 -1.6297 -1.6752  1.3050
   36MOL    H3042100   2.666   7.123   6.427 -3.2887  0.1062 -1.6383
   36MOL    H3142101   2.484   6.927   6.448 -1.6895 -0.4008  1.7740
   36MOL    H3242102   2.436   7.017   6.586 -0.8391 -0.1409  0.2689
   36MOL    H3342103   2.468   7.134   6.302  0.3965 -1.4620  0.7875
   36MOL    H3442104   2.400   7.225   6.446 -1.5038 -0.6798  1.0546
   36MOL    H3542105   2.202   7.075   6.421  0.5845 -1.1979  0.2410
   36MOL    H3642106   2.281   6.997   6.293  0.8048 -0.4486  1.6565
   36MOL    H3742107   2.275   7.230   6.178 -0.5312 -1.1290 -0.1340
   36MOL    H3842108   2.210   7.299   6.325  0.9584 -1.7822  2.6675
   36MOL    H3942109   2.015   7.162   6.312  1.9698 -1.0998  0.8121
   36MOL    H4042110   2.073   7.086   6.157 -0.0739 -0.0692 -0.9158
   36MOL    H4142111   2.015   7.381   6.160  1.9907  0.6721 -0.8630
   36MOL    H4242112   2.036   7.263   6.033  0.6910  0.7744  0.4533
   36MOL    H4342113   1.784   7.323   6.084 -2.3760  1.6645  3.0856
   36MOL    H4442114   1.816   7.155   6.134  0.0869  0.5246  1.8781
   36MOL    H4542115   1.621   7.248   6.536  0.4156 -2.1883  0.1347
   36MOL    H4642116   1.732   7.365   6.481 -3.7198 -0.2762 -0.1058
   36MOL    H4742117   1.843   7.265   6.684  1.2205  1.6075 -1.2100
   36MOL    H4842118   1.925   7.196   6.542  0.7398 -1.6121  0.8155
   36MOL    H4942119   1.723   7.021   6.573  1.6778 -0.1212 -2.0201
   36MOL    H5042120   1.727   7.072   6.739  1.8866  0.9672  1.5820
   36MOL    H5142121   1.963   7.010   6.757  0.2929 -1.7020  1.1726
   36MOL    H5242122   1.971   6.952   6.599  0.5743  2.2276 -0.0146
   36MOL    H5342123   1.799   6.852   6.843  0.7010  1.8624  0.3077
   36MOL    H5442124   1.761   6.821   6.673 -0.7136 -1.7202  0.8996
   36MOL    H5542125   2.007   6.730   6.656 -2.1382 -0.2216 -0.8099
   36MOL    H5642126   2.015   6.767   6.827 -0.8911  0.8393  0.4899
   36MOL    H5742127   1.789   6.608   6.716  0.0439  1.7064 -0.4547
   36MOL    H5842128   1.844   6.622   6.881  0.8406  0.3316 -0.1124
   36MOL    H5942129   2.003   6.483   6.650  1.3192 -1.7429 -0.5514
   36MOL    H6042130   2.055   6.482   6.812 -0.1414 -1.5054 -0.0483
   36MOL    H6142131   2.936   6.920   6.757  0.3142  1.4604 -0.5694
   36MOL    O6242132   1.971   6.257   6.810 -0.5479  0.2611  0.0201
   36MOL    C6342133   1.921   6.130   6.827  0.1090  0.1981 -0.1822
   36MOL    C6442134   1.834   6.110   6.950 -0.5215 -0.3559  0.1170
   36MOL    C6542135   1.821   5.967   6.992  0.4420  0.0812 -0.1740
   36MOL    C6642136   1.724   5.949   7.102 -0.0037 -1.3621  0.2495
   36MOL    C6742137   1.707   5.808   7.159 -0.0688 -0.2801  0.4013
   36MOL    C6842138   1.601   5.811   7.265 -0.1170 -0.5645 -1.1610
   36MOL    C6942139   1.606   5.682   7.354 -0.2624  0.8547 -0.1918
   36MOL    C7042140   1.580   5.541   7.288  0.7286  0.3280  0.5774
   36MOL    C7142141   1.551   5.430   7.389 -0.4945  0.7517 -0.5024
   36MOL    C7242142   1.499   5.295   7.338  0.5898 -0.1485  0.3121
   36MOL    O7342143   1.465   5.204   7.439  0.0146 -0.0720  0.4226
   36MOL    C7442144   1.347   5.210   7.500 -0.3435 -0.5235 -0.2480
   36MOL    O7542145   1.262   5.297   7.487 -0.4997 -0.4360 -0.4441
   36MOL    C7642146   1.334   5.109   7.616 -0.2336 -0.2183 -0.0638
   36MOL    C7742147   1.441   5.122   7.721  0.1967 -0.1235  0.4978
   36MOL    C7842148   1.585   5.092   7.676  0.6815  0.3124 -0.1543
   36MOL    C7942149   1.680   5.091   0.045  0.0519  0.3073  0.8155
   36MOL    C8042150   1.830   5.095   7.756 -0.1910 -0.2199 -0.1605
   36MOL    C8142151   1.918   5.083   0.124 -0.3729  0.2768  0.1927
   36MOL    C8242152   1.907   5.199   0.227  0.0832 -0.1804 -0.1335
   36MOL    C8342153   2.020   5.204   0.325  0.0561  0.1783 -0.4108
   36MOL    C8442154   2.162   5.217   0.269 -0.2281  0.4329 -0.5105
   36MOL    O8542155   2.253   5.137   0.298  0.3823  0.2486 -0.5170
   36MOL    H8642156   1.862   6.096   6.742 -0.1294 -0.7412  0.3482
   36MOL    H8742157   2.010   6.067   6.829  1.0080  1.4640  1.2364
   36MOL    H8842158   1.902   6.157   7.021  1.8430 -1.9682 -1.0030
   36MOL    H8942159   1.747   6.175   6.948  0.1891  0.6357  1.3571
   36MOL    H9042160   1.792   5.905   6.908  2.2467  0.5158 -1.1510
   36MOL    H9142161   1.919   5.931   7.026 -0.8362 -1.8257  1.6071
   36MOL    H9242162   1.746   6.020   7.181 -0.7648  1.7765 -2.2705
   36MOL    H9342163   1.625   5.977   7.065  0.7569  0.3911 -0.5083
   36MOL    H9442164   1.803   5.786   7.207  0.1349  1.7616  0.9900
   36MOL    H9542165   1.698   5.731   7.083 -0.3244  2.0207 -1.9530
   36MOL    H9642166   1.502   5.811   7.219 -0.7705  0.7160  0.1782
   36MOL    H9742167   1.608   5.896   7.334 -0.3805 -2.3897  1.2036
   36MOL    H9842168   1.531   5.691   7.433 -3.4697 -1.2233 -2.8483
   36MOL    H9942169   1.696   5.680   7.415 -1.2353 -1.7317  1.2541
   36MOL   H10042170   1.674   5.525   7.235  1.3055  0.5981  1.4947
   36MOL   H10142171   1.498   5.551   7.218  0.7271  2.1618  0.8213
   36MOL   H10242172   1.633   5.406   7.456 -0.9305  0.3423 -0.1165
   36MOL   H10342173   1.463   5.463   7.444 -1.1728 -2.6875  0.5555
   36MOL   H10442174   1.410   5.325   7.283  1.3146  0.2567 -0.6682
   36MOL   H10542175   1.571   5.249   7.271 -0.2281 -1.1354  0.1013
   36MOL   H10642176   1.342   5.007   7.578  2.0874 -0.2136  0.3192
   36MOL   H10742177   1.235   5.114   7.661 -0.2866 -0.7397 -0.1191
   36MOL   H10842178   1.417   5.049   0.042 -1.8392  0.0887  0.1171
   36MOL   H10942179   1.452   5.221   0.008  3.0344 -0.6444  1.0425
   36MOL   H11042180   1.620   5.164   7.602 -1.2437  1.7551  0.2929
   36MOL   H11142181   1.586   4.998   7.622 -1.3177  0.0181  0.2771
   36MOL   H11242182   1.657   5.004   0.107 -0.3331 -0.5052 -0.4559
   36MOL   H11342183   1.670   5.183   0.102 -3.6608  0.4215  0.0879
   36MOL   H11442184   1.843   5.003   7.699 -0.6251 -1.4147  1.6048
   36MOL   H11542185   1.860   5.179   7.694 -0.6553 -0.6199 -0.9392
   36MOL   H11642186   1.893   4.992   0.178  2.3815 -1.0564 -0.6672
   36MOL   H11742187   2.020   5.063   0.089 -1.5049 -2.1100 -1.8463
   36MOL   H11842188   1.810   5.192   0.276 -0.5545 -1.7139 -1.5634
   36MOL   H11942189   1.900   5.292   0.170  1.0566 -0.7634 -1.2393
   36MOL   H12042190   2.016   5.279   0.404  2.3142 -3.1492  3.0298
   36MOL   H12142191   2.028   5.108   0.377 -0.3092 -1.2517 -2.9105
   36MOL   O12242192   2.180   5.319   0.185 -0.7733  0.4787 -0.2578
   36MOL   C12342193   2.299   5.326   0.093  0.1275  0.4882 -0.1410
   36MOL   C12442194   2.250   5.255   7.721 -0.4995 -0.3051 -0.9859
   36MOL   C12542195   2.342   5.281   7.606  0.1607  0.4949  0.0983
   36MOL   C12642196   2.301   5.213   7.474  0.7953 -0.1221  1.0294
   36MOL   C12742197   2.381   5.243   7.351  0.5149 -0.0150 -0.2846
   36MOL   C12842198   2.383   5.128   7.247 -0.1174 -0.3055  0.2384
   36MOL   C12942199   2.456   5.163   7.117  0.3804  0.0192  0.2592
   36MOL   C13042200   2.472   5.029   7.036  0.1793  0.3611  0.1077
   36MOL   C13142201   2.539   5.055   6.897 -0.9823  0.0706  0.6957
   36MOL   C13242202   2.553   4.919   6.822  0.1135 -0.2490 -0.6126
   36MOL   O13342203   2.597   4.955   6.690 -0.1379  0.4682 -0.2090
   36MOL   C13442204   2.613   4.853   6.602  0.3546  0.2008  0.2726
   36MOL   O13542205   2.609   4.736   6.635 -0.3327 -0.1228 -0.2794
   36MOL   C13642206   2.646   4.904   6.461 -0.4069  0.2527 -0.1659
   36MOL   C13742207   2.791   4.953   6.467  0.2203 -0.0898 -0.3012
   36MOL   C13842208   2.844   4.978   6.326  0.2860  0.0087 -0.3749
   36MOL   C13942209   2.786   5.097   6.253  0.2625  0.1153 -0.1461
   36MOL   C14042210   2.861   5.121   6.126 -0.2306 -0.1045  0.2454
   36MOL   C14142211   2.811   5.253   6.060 -0.4376  0.5585 -0.5946
   36MOL   C14242212   2.893   5.270   5.933  0.4294 -0.1459  0.4729
   36MOL   C14342213   2.848   5.385   5.844 -0.1059 -0.2049 -0.5416
   36MOL   C14442214   2.866   5.526   5.897  0.4608  0.1037  0.5538
   36MOL   O14542215   2.949   5.560   5.980 -0.5484  0.4106  0.0410
   36MOL   H14642216   2.320   5.431   0.073 -0.8054  0.1610 -2.9556
   36MOL   H14742217   2.387   5.270   0.124 -0.7696 -2.2721 -2.3903
   36MOL   H14842218   2.248   5.150   7.749 -0.2584  0.1219  0.6876
   36MOL   H14942219   2.148   5.283   7.696  0.0104  2.1848 -0.3554
   36MOL   H15042220   2.373   5.384   7.592 -1.4779  0.9225 -0.5270
   36MOL   H15142221   2.432   5.223   7.625 -0.7568 -1.3246 -0.9492
   36MOL   H15242222   2.311   5.105   7.487  2.2091 -0.1865 -0.5270
   36MOL   H15342223   2.196   5.220   7.448  1.2608 -0.7213 -1.0777
   36MOL   H15442224   2.479   5.285   7.375 -0.3402  0.4893  2.4434
   36MOL   H15542225   2.333   5.333   7.313  2.9014  1.9659  1.2384
   36MOL   H15642226   2.280   5.107   7.220  0.0547 -0.6633 -0.1393
   36MOL   H15742227   2.413   5.034   7.295 -0.7374 -0.4492  0.3429
   36MOL   H15842228   2.557   5.195   7.143 -0.4928  2.5369  0.6468
   36MOL   H15942229   2.403   5.240   7.061 -1.7705 -0.6959  1.2456
   36MOL   H16042230   2.376   4.979   7.021 -0.4822  0.6183  3.3157
   36MOL   H16142231   2.532   4.965   7.100  0.6298  2.4114  1.7645
   36MOL   H16242232   2.481   5.127   6.840 -0.0953 -0.6989 -1.2262
   36MOL   H16342233   2.642   5.090   6.910 -1.2688  0.3768  2.2016
   36MOL   H16442234   2.621   4.855   6.878 -0.7628 -0.9508 -0.3478
   36MOL   H16542235   2.458   4.866   6.820 -1.6045  2.5352  1.6618
   36MOL   H16642236   2.584   4.993   6.445  1.5765  1.2553 -2.6049
   36MOL   H16742237   2.627   4.829   6.385 -2.3866  1.0308 -0.4901
   36MOL   H16842238   2.850   4.876   6.518  1.7445 -1.3011 -3.7528
   36MOL   H16942239   2.798   5.038   6.535  0.4154 -0.1932 -0.1903
   36MOL   H17042240   2.832   4.884   6.273 -0.4383  0.2274 -0.6042
   36MOL   H17142241   2.953   4.978   6.320  0.4050 -1.3581  1.5977
   36MOL   H17242242   2.798   5.178   6.326 -0.4534  1.3544 -1.3856
   36MOL   H17342243   2.682   5.089   6.223  0.7864  1.2972 -2.3640
   36MOL   H17442244   2.966   5.111   6.150 -0.4110 -0.7613  0.7556
   36MOL   H17542245   2.838   5.032   6.067 -1.9270  0.4969 -0.0505
   36MOL   H17642246   2.704   5.242   6.037 -0.0846 -0.2460 -1.9536
   36MOL   H17742247   2.830   5.336   6.128  1.0945 -0.1332 -0.1629
   36MOL   H17842248   2.881   5.174   5.884  4.4433 -0.6387  0.2986
   36MOL   H17942249   2.998   5.292   5.953  0.8310 -0.5099 -1.1543
   36MOL   H18042250   2.910   5.387   5.755  1.2513  4.9224  0.3678
   36MOL   H18142251   2.743   5.386   5.812 -0.9294 -1.9895  1.9283
   36MOL   O18242252   2.774   5.613   5.853 -0.3755  0.6157 -0.4540
   36MOL   C18342253   2.769   5.750   5.901 -0.0788 -0.9836  0.3555
   36MOL   C18442254   2.879   5.840   5.851  0.7080  0.8307  0.8380
   36MOL   C18542255   2.856   5.889   5.704  0.2188 -0.4715  0.2737
   36MOL   C18642256   2.985   5.928   5.635  0.0316 -0.3756 -0.2219
   36MOL   C18742257   2.952   5.998   5.493 -0.0778  0.1564  0.6107
   36MOL   C18842258   3.071   6.063   5.421  0.3951  0.2179  0.1664
   36MOL   C18942259   3.119   6.195   5.479 -0.7076  0.4163  0.0869
   36MOL   C19042260   3.059   6.324   5.415 -0.5960  0.0740 -0.0376
   36MOL   C19142261   3.161   6.447   5.415  0.2341 -0.4202  0.0545
   36MOL   C19242262   3.262   6.429   5.300 -0.0090  0.2139  0.2840
   36MOL   O19342263   3.336   6.547   5.288 -0.5170 -0.0528  0.3419
   36MOL   C19442264   3.479   6.536   5.310  0.3858 -0.1272  0.5423
   36MOL   O19542265   3.530   6.439   5.366  0.1352 -0.3883 -0.5300
   36MOL   C19642266   3.562   6.662   5.256 -0.1639  0.8196 -0.3798
   36MOL   C19742267   3.576   6.659   5.104  0.4749  0.2329  0.6539
   36MOL   C19842268   3.693   6.562   5.053  0.0221  0.4370 -0.2401
   36MOL   C19942269   3.676   6.538   4.904 -0.4755  0.7583 -0.2348
   36MOL   C20042270   3.797   6.469   4.838  0.0944 -0.0973  0.0247
   36MOL   C20142271   3.896   6.564   4.779  0.0622  0.7501 -0.7814
   36MOL   C20242272   3.989   6.496   4.672 -0.1246  1.0885  0.1220
   36MOL   C20342273   4.106   6.588   4.626 -0.6678  0.4885 -0.3107
   36MOL   C20442274   4.071   6.731   4.582 -0.2701 -0.2022  0.4883
   36MOL   O20542275   4.118   6.832   4.638 -0.5336 -0.9736  0.1561
   36MOL   H20642276   2.668   5.778   5.872 -0.2376  0.2273  1.9657
   36MOL   H20742277   2.784   5.750   6.009 -2.2535 -0.8988  0.6809
   36MOL   H20842278   2.889   5.921   5.923  0.5431  1.4233  0.1972
   36MOL   H20942279   2.972   5.784   5.857  0.9303  1.1250  0.2179
   36MOL   H21042280   2.833   5.795   5.654 -0.3172  0.3702 -1.1039
   36MOL   H21142281   2.780   5.968   5.704 -1.0496 -1.6733  1.3523
   36MOL   H21242282   3.035   5.998   5.702  1.1135 -0.9826 -0.3974
   36MOL   H21342283   3.049   5.841   5.628  2.3031  1.2801 -0.5046
   36MOL   H21442284   2.875   6.072   5.516  1.3602  1.1785  2.2526
   36MOL   H21542285   2.905   5.923   5.430  1.3232 -1.0781  0.9934
   36MOL   H21642286   3.044   6.078   5.317  0.6284  0.6906  0.1695
   36MOL   H21742287   3.152   5.990   5.415 -0.8423 -1.2641  1.1882
   36MOL   H21842288   3.228   6.197   5.473 -0.6636 -2.3173 -0.7700
   36MOL   H21942289   3.091   6.203   5.584 -0.1143  1.2850  0.1830
   36MOL   H22042290   2.970   6.350   5.473  0.5050  0.3824  1.5373
   36MOL   H22142291   3.018   6.299   5.317 -1.7639 -0.4069  0.5692
   36MOL   H22242292   3.105   6.540   5.399 -0.2934 -0.6425  0.5853
   36MOL   H22342293   3.221   6.458   5.505  0.1689  2.0662 -0.1525
   36MOL   H22442294   3.323   6.339   5.290 -1.2978 -0.4446 -1.8304
   36MOL   H22542295   3.201   6.420   5.211  1.5070  0.3439 -0.8016
   36MOL   H22642296   3.650   6.669   5.321 -0.9769 -0.0420  0.8315
   36MOL   H22742297   3.508   6.752   5.284 -0.2827  0.0464  1.9683
   36MOL   H22842298   3.603   6.757   5.065 -0.5208 -0.5009 -1.9870
   36MOL   H22942299   3.480   6.634   5.058 -1.1580  2.9843  2.4704
   36MOL   H23042300   3.682   6.472   5.114  0.4579 -0.0375 -0.8578
   36MOL   H23142301   3.790   6.609   5.071 -0.4774  1.3016  0.2160
   36MOL   H23242302   3.659   6.624   4.839  0.0333 -0.1479 -1.5802
   36MOL   H23342303   3.587   6.475   4.893  0.2901 -0.3369 -0.2592
   36MOL   H23442304   3.846   6.394   4.901  2.1337  1.1797 -0.0044
   36MOL   H23542305   3.765   6.409   4.753 -1.3094  1.1645 -0.3480
   36MOL   H23642306   3.854   6.659   4.747 -1.4971  1.2586  2.5564
   36MOL   H23742307   3.965   6.595   4.857  1.1064 -1.5077 -0.7567
   36MOL   H23842308   3.927   6.462   4.589 -0.3552 -2.2588  1.6172
   36MOL   H23942309   4.023   6.397   4.701 -0.6638  0.4229 -1.4703
   36MOL   H24042310   4.173   6.599   4.712  0.8786  2.1969 -1.7000
   36MOL   H24142311   4.161   6.538   4.547  0.2997 -0.0195  0.6801
   36MOL   O24242312   3.981   6.730   4.483 -0.0083  0.5778 -0.4304
   36MOL   C24342313   3.926   6.839   4.424  0.2883  0.2144  0.1340
   36MOL   C24442314   3.820   6.900   4.521  0.1370 -0.9569 -0.1054
   36MOL   C24542315   3.693   6.821   4.528 -0.2356 -0.1203 -0.0230
   36MOL   C24642316   3.582   6.895   4.612 -0.4188  0.5165 -0.2894
   36MOL   C24742317   3.452   6.821   4.608 -0.5604  0.1525 -0.1868
   36MOL   C24842318   3.344   6.886   4.699 -0.5406 -0.1079  0.3064
   36MOL   C24942319   3.301   7.027   4.660 -0.1163 -0.2572 -0.6127
   36MOL   C25042320   3.189   7.083   4.750  0.0745 -0.8690  0.2875
   36MOL   C25142321   3.091   7.173   4.662 -0.3256  0.2761 -0.0675
   36MOL   C25242322   2.953   7.184   4.727 -0.0910  0.1206 -0.0774
   36MOL   O25342323   2.863   7.244   4.635 -0.1234 -0.2522  0.1578
   36MOL   C25442324   2.758   7.313   4.678  0.3840 -0.6684  0.0045
   36MOL   O25542325   2.732   7.328   4.796  0.2417 -0.1184  0.5544
   36MOL   C25642326   2.675   7.376   4.564  0.0392  0.0342 -0.5290
   36MOL   C25742327   2.645   7.532   4.584 -0.9711 -0.0365  0.1465
   36MOL   C25842328   2.529   7.563   4.676 -0.0671  0.5047  0.0118
   36MOL   C25942329   2.522   7.706   4.719  0.1090  0.1227  0.3452
   36MOL   C26042330   2.409   7.756   4.814 -0.4375 -0.4431 -0.6826
   36MOL   C26142331   2.432   0.149   4.858  0.5648  0.1411 -0.0674
   36MOL   C26242332   2.312   0.200   4.936  0.5242 -0.1859 -0.1371
   36MOL   C26342333   2.334   0.346   4.963 -0.0727 -0.5639 -0.3582
   36MOL   C26442334   2.430   0.368   5.092  0.1687 -0.5792  0.0320
   36MOL   O26542335   2.554   0.377   5.080 -0.3808 -0.1172  0.4173
   36MOL   H26642336   4.000   6.917   4.409 -0.0821  0.6281  0.4376
   36MOL   H26742337   3.891   6.811   4.324 -0.3051  2.3191 -0.2735
   36MOL   H26842338   3.843   6.895   4.628 -0.4267 -0.1997  0.0540
   36MOL   H26942339   3.793   6.994   4.474  0.9165 -0.5554  0.2473
   36MOL   H27042340   3.653   6.811   4.427 -2.3751  0.0334  0.7738
   36MOL   H27142341   3.710   6.716   4.553 -0.5851 -0.3644 -0.8029
   36MOL   H27242342   3.613   6.909   4.715  0.0786 -1.3699 -0.1508
   36MOL   H27342343   3.558   6.997   4.582 -0.3988  0.1120 -1.7316
   36MOL   H27442344   3.479   6.725   4.651 -0.0451  0.4167  0.0790
   36MOL   H27542345   3.424   6.801   4.505 -1.4891 -0.7437  0.2240
   36MOL   H27642346   3.378   6.890   4.803 -0.9239 -0.1014  0.4302
   36MOL   H27742347   3.259   6.821   4.721  1.6930 -3.1935  0.2025
   36MOL   H27842348   3.269   7.018   4.556 -0.6996 -0.9353 -0.3809
   36MOL   H27942349   3.383   7.098   4.654  0.7939 -1.2947 -0.7210
   36MOL   H28042350   3.225   7.147   4.831 -1.0503  1.4524 -1.0087
   36MOL   H28142351   3.136   6.997   4.792  0.4460 -0.8126  0.8883
   36MOL   H28242352   3.144   7.266   4.639 -1.2336 -0.0452 -3.6604
   36MOL   H28342353   3.073   7.119   4.569 -0.5939 -1.2544  0.8620
   36MOL   H28442354   2.906   7.090   4.757  4.2800 -1.9439  0.6239
   36MOL   H28542355   2.956   7.244   4.818  0.6780  0.3651 -0.2700
   36MOL   H28642356   2.585   7.319   4.539  0.1062 -0.1650 -0.3211
   36MOL   H28742357   2.733   7.361   4.473  0.1053  0.4659 -0.5565
   36MOL   H28842358   2.625   7.580   4.488 -2.0141 -0.9989 -0.1289
   36MOL   H28942359   2.733   7.587   4.616 -0.0839  1.1467 -3.9953
   36MOL   H29042360   2.537   7.501   4.765 -0.5621  1.0446  0.4360
   36MOL   H29142361   2.434   7.534   4.632 -1.6391  0.9236  3.0065
   36MOL   H29242362   2.518   0.012   4.630 -2.3541 -0.3440  0.1148
   36MOL   H29342363   2.619   7.724   4.767 -0.0419  1.4962  0.1462
   36MOL   H29442364   2.316   7.737   4.761 -0.3574 -1.8514 -0.3445
   36MOL   H29542365   2.414   7.702   4.909 -2.8102  2.6993  1.3250
   36MOL   H29642366   2.533   0.157   4.899  0.3934 -0.4097  0.4815
   36MOL   H29742367   2.445   0.201   4.763  0.7899 -0.4427 -0.3633
   36MOL   H29842368   2.300   0.127   5.017 -0.0220 -2.6008 -2.3063
   36MOL   H29942369   2.225   0.191   4.871 -0.5534  2.6808  0.8525
   36MOL   H30042370   2.381   0.400   4.880 -1.8458  1.0621 -0.3379
   36MOL   H30142371   2.240   0.394   4.991  0.2748 -0.2598  0.2945
   36MOL   O30242372   2.360   0.360   5.205  0.2945 -0.0805 -0.2232
   36MOL   C30342373   2.423   0.401   5.332  0.1509 -0.0965 -0.2393
   36MOL   C30442374   2.321   0.475   5.419  0.3637  0.8518  0.3577
   36MOL   C30542375   2.378   0.502   5.558  0.6982 -0.2596 -0.5269
   36MOL   C30642376   2.485   0.618   5.554 -0.0048 -0.5725 -0.1494
   36MOL   C30742377   2.419   0.759   5.554  0.0895  0.0413  0.0594
   36MOL   C30842378   2.519   0.870   5.542 -0.6588  1.0135 -0.2447
   36MOL   C30942379   2.445   1.007   5.539 -0.3316  0.3777  0.0274
   36MOL   C31042380   2.542   1.122   5.497  0.6243 -0.0203 -0.7176
   36MOL   C31142381   2.645   1.163   5.602  0.1382  0.3228 -0.3618
   36MOL   C31242382   2.711   1.292   5.567  0.3468  0.3722 -0.1213
   36MOL   O31342383   2.620   1.402   5.598  0.5113  1.3810  0.3397
   36MOL   C31442384   2.638   1.516   5.530 -0.1308 -0.1740 -0.2876
   36MOL   O31542385   2.738   1.551   5.468 -0.5857 -0.1510 -0.1344
   36MOL   C31642386   2.516   1.613   5.525 -0.0783  0.7757  0.0087
   36MOL   C31742387   2.399   1.534   5.461  0.6525 -0.2012 -0.2518
   36MOL   C31842388   2.412   1.528   5.310  0.4769  0.0133 -0.1278
   36MOL   C31942389   2.279   1.469   5.241 -0.2066 -0.6529 -0.3569
   36MOL   C32042390   2.287   1.467   5.091 -0.5299 -0.6554  0.0656
   36MOL   C32142391   2.158   1.412   5.030  0.4889 -0.8658 -0.5499
   36MOL   C32242392   2.135   1.451   4.885 -0.6863 -0.4978  0.4893
   36MOL   C32342393   2.255   1.414   4.787 -0.4600  0.4064 -0.0484
   36MOL   C32442394   2.310   1.273   4.805  0.0584  0.3002  0.3497
   36MOL   O32542395   2.428   1.257   4.819 -0.0716  0.1813 -0.4682
   36MOL   H32642396   2.474   0.315   5.374  2.9559  1.7419  0.2418
   36MOL   H32742397   2.502   0.473   5.307  1.1231  0.0486  3.0561
   36MOL   H32842398   2.276   0.556   5.362  0.7698  0.4673 -0.5222
   36MOL   H32942399   2.234   0.411   5.436  0.7458  0.0209 -0.7968
   36MOL   H33042400   2.305   0.531   5.633 -0.3587 -1.2625 -1.1450
   36MOL   H33142401   2.426   0.411   5.594 -0.2350 -0.5576 -0.0172
   36MOL   H33242402   2.535   0.622   5.651 -1.2058  2.2561  0.4108
   36MOL   H33342403   2.559   0.605   5.475  0.0796 -1.2075  0.0360
   36MOL   H33442404   2.352   0.786   5.635  0.9374  0.9986  0.4493
   36MOL   H33542405   2.359   0.759   5.463  0.0547 -0.5590  0.0824
   36MOL   H33642406   2.583   0.855   5.455 -1.1560  0.9160 -0.5932
   36MOL   H33742407   2.586   0.871   5.628 -1.6709  0.3733  0.5581
   36MOL   H33842408   2.410   1.039   5.637 -1.0228 -2.8409  0.8891
   36MOL   H33942409   2.360   0.996   5.472 -0.0125 -2.7819  0.0935
   36MOL   H34042410   2.483   1.212   5.480 -3.4252 -2.8391 -2.3810
   36MOL   H34142411   2.600   1.108   5.405 -0.7233 -1.3334 -1.3871
   36MOL   H34242412   2.601   1.162   5.702  0.1254  1.1144 -0.3563
   36MOL   H34342413   2.714   1.080   5.593 -1.9627 -1.4644 -0.4916
   36MOL   H34442414   2.800   1.304   5.628  0.0408 -0.7753  0.5595
   36MOL   H34542415   2.736   1.299   5.461  0.0907  0.2837 -0.1887
   36MOL   H34642416   2.543   1.703   5.471 -0.8788  1.7654  1.2279
   36MOL   H34742417   2.490   1.647   5.626 -1.0436  0.5300 -0.1560
   36MOL   H34842418   2.305   1.584   5.483  1.6855  1.9890 -0.6780
   36MOL   H34942419   2.393   1.436   5.509  0.5146  0.2045  0.5547
   36MOL   H35042420   2.497   1.464   5.285  1.4340  1.4165 -0.5278
   36MOL   H35142421   2.424   1.627   5.266 -4.4266  0.5657 -0.5330
   36MOL   H35242422   2.199   1.536   5.273  1.4021  0.1950  2.0954
   36MOL   H35342423   2.271   1.367   5.277 -0.3484 -1.2418 -2.0157
   36MOL   H35442424   2.301   1.571   5.064 -0.4260 -0.2583  1.6040
   36MOL   H35542425   2.373   1.407   5.061  2.0613  1.8767  2.1220
   36MOL   H35642426   2.154   1.303   5.029  0.0412 -0.8466 -1.2326
   36MOL   H35742427   2.071   1.442   5.089  1.5376 -1.0044  1.0880
   36MOL   H35842428   2.128   1.559   4.884  1.1881 -0.3602 -0.7486
   36MOL   H35942429   2.046   1.409   4.839 -0.4760  0.2067 -0.5770
   36MOL   H36042430   2.234   1.442   4.684 -0.2535  0.7942  0.0151
   36MOL   H36142431   2.338   1.475   4.823  0.9146 -0.9111 -0.9027
   36MOL   O36242432   2.217   1.181   4.810  0.5035  0.3456 -0.4399
   36MOL   C36342433   2.265   1.054   4.847 -0.7972  0.0853 -0.1420
   36MOL   C36442434   2.149   0.958   4.858  0.0042  0.0712 -0.0137
   36MOL   C36542435   2.204   0.822   4.888  0.3267  0.4052  0.0426
   36MOL   C36642436   2.108   0.709   4.839  0.4235  0.0039  0.5646
   36MOL   C36742437   2.074   0.698   4.687  0.0339  0.2002 -0.1492
   36MOL   C36842438   1.990   0.578   4.648 -0.1833  0.0218 -0.0610
   36MOL   C36942439   2.055   0.437   4.641 -0.4072 -0.6162  0.0901
   36MOL   C37042440   1.955   0.326   4.604 -0.5354 -0.4510 -0.9830
   36MOL   C37142441   2.014   0.179   4.607 -0.7516 -0.1938 -0.2714
   36MOL   C37242442   1.922   0.073   4.545  0.1053 -0.5082 -0.6126
   36MOL   O37342443   1.936   7.698   4.602  0.1174  0.3577 -0.4685
   36MOL   C37442444   1.825   7.623   4.629  0.2318  0.0217  0.4842
   36MOL   O37542445   1.707   7.651   4.598  0.0097 -0.0202  0.2017
   36MOL   C37642446   1.862   7.491   4.699  0.0660  0.3176 -0.1057
   36MOL   C37742447   1.742   7.392   4.715  0.4155  0.8530 -0.1041
   36MOL   C37842448   1.777   7.275   4.809 -0.0090 -0.4636  0.5671
   36MOL   C37942449   1.861   7.173   4.725  0.3165 -0.5062  0.0570
   36MOL   C38042450   1.916   7.057   4.820 -0.3265 -0.4949 -0.0663
   36MOL   C38142451   1.990   6.946   4.746 -0.1968 -0.7371 -0.3958
   36MOL   C38242452   2.074   6.995   4.619  0.4173  0.1023  0.6450
   36MOL   C38342453   2.141   6.877   4.551  0.0892  0.8680 -0.2354
   36MOL   C38442454   2.247   6.925   4.445  0.2417  0.4923  0.0614
   36MOL   O38542455   2.313   6.843   4.385 -0.1463 -0.6458 -0.8035
   36MOL   H38642456   2.336   1.020   4.771 -0.8541 -0.0605 -0.1306
   36MOL   H38742457   2.311   1.060   4.946  1.0763  0.3898 -1.0062
   36MOL   H38842458   2.086   0.985   4.943  1.7581 -0.9064  1.6294
   36MOL   H38942459   2.089   0.970   4.767 -0.3869  0.8600  0.3446
   36MOL   H39042460   2.295   0.816   4.828 -0.1987  0.2943 -0.7574
   36MOL   H39142461   2.231   0.815   4.993 -3.2103  3.3859  1.2281
   36MOL   H39242462   2.166   0.620   4.865 -2.2785 -1.7708  0.6940
   36MOL   H39342463   2.028   0.698   4.912 -0.7549 -0.7566 -0.8009
   36MOL   H39442464   2.157   0.711   4.617  0.1143  0.9621  0.0888
   36MOL   H39542465   2.013   0.784   4.660 -0.5089 -1.0302 -3.0290
   36MOL   H39642466   1.942   0.591   4.551 -0.7105  0.1158  0.2123
   36MOL   H39742467   1.917   0.572   4.728 -0.1252  1.8163  0.1496
   36MOL   H39842468   2.103   0.411   4.735  2.7317  0.1181 -1.2225
   36MOL   H39942469   2.143   0.434   4.576  1.4217 -2.0691  2.5243
   36MOL   H40042470   1.912   0.350   4.506  0.4374  2.3475 -0.7805
   36MOL   H40142471   1.868   0.330   4.670 -0.7033 -1.7990 -1.1142
   36MOL   H40242472   2.111   0.177   4.558 -1.6656 -0.1957 -2.1035
   36MOL   H40342473   2.032   0.146   4.709 -0.7574 -0.1690 -0.2624
   36MOL   H40442474   1.821   0.112   4.563  0.1765 -0.7032  0.2362
   36MOL   H40542475   1.921   0.068   4.436  0.6470  1.5200 -0.7268
   36MOL   H40642476   1.900   7.513   4.798 -0.2206  0.7521 -0.0902
   36MOL   H40742477   1.945   7.450   4.641 -0.0234 -0.5758  0.4071
   36MOL   H40842478   1.703   7.357   4.619  0.3588  0.8853 -0.0926
   36MOL   H40942479   1.658   7.438   4.767  0.3570  1.4749 -0.7427
   36MOL   H41042480   1.690   7.230   4.856  0.2732 -1.8536 -0.2395
   36MOL   H41142481   1.829   7.309   4.898  0.5000  0.2423  0.0094
   36MOL   H41242482   1.948   7.224   4.683  0.2508  1.1089  1.8207
   36MOL   H41342483   1.812   7.132   4.637  3.3206  2.2365 -3.0287
   36MOL   H41442484   1.992   7.106   4.879  0.7383 -1.7287 -0.3783
   36MOL   H41542485   1.832   7.018   4.878 -0.7925  0.6830  0.0569
   36MOL   H41642486   2.057   6.888   4.809 -0.7732 -0.6963  0.2736
   36MOL   H41742487   1.917   6.873   4.711 -1.7663  0.1570  0.8938
   36MOL   H41842488   2.137   7.079   4.647 -0.5021  0.3656  1.9602
   36MOL   H41942489   2.012   7.044   4.544 -0.3990 -1.4715  0.2736
   36MOL   H42042490   2.185   6.809   4.625 -1.8015  1.6965  1.7006
   36MOL   H42142491   2.071   6.804   4.508 -1.0252  0.7390  1.7389
   36MOL   O42242492   2.264   7.052   4.437  0.4917  0.5928  0.0675
   36MOL   C42342493   2.323   7.111   4.327 -1.1207  0.1053  0.2273
   36MOL   C42442494   2.332   7.262   4.345 -0.2763  0.4321 -0.5168
   36MOL   C42542495   2.199   7.323   4.401  0.3570 -0.1861  0.2482
   36MOL   C42642496   2.201   7.473   4.442  0.0857 -0.5554 -0.1268
   36MOL   C42742497   2.278   7.563   4.351  0.7926 -0.4371  0.1214
   36MOL   C42842498   2.261   7.712   4.382 -0.3876 -0.1929  0.5730
   36MOL   C42942499   2.378   0.036   4.330 -0.7271 -0.2037  0.6402
   36MOL   C43042500   2.355   0.187   4.346  0.6605  0.5297  0.2960
   36MOL   C43142501   2.460   0.281   4.274  0.2902  0.3453  0.0923
   36MOL   C43242502   2.407   0.419   4.272 -0.8684  0.0737  0.0955
   36MOL   O43342503   2.511   0.498   4.227 -0.1958 -0.4761 -0.2589
   36MOL   C43442504   2.488   0.611   4.158  0.3395  0.3767 -0.6535
   36MOL   O43542505   2.378   0.662   4.150 -0.5508 -0.0498 -0.1511
   36MOL   C43642506   2.612   0.676   4.098  0.7607  0.4400  0.6738
   36MOL   C43742507   2.611   0.794   3.999  0.1261  0.0269 -0.0093
   36MOL   C43842508   2.605   0.927   4.070  0.4627 -0.1206 -0.3090
   36MOL   C43942509   2.621   1.042   3.970 -0.5531 -0.1232  0.3829
   36MOL   C44042510   2.575   1.169   4.042 -0.3509 -0.1097  0.0354
   36MOL   C44142511   2.609   1.295   3.957 -0.8593  0.4212  1.1429
   36MOL   C44242512   2.533   1.414   4.021  0.4132 -1.1031  0.0507
   36MOL   C44342513   2.551   1.544   3.945 -0.7824 -0.3181  0.0274
   36MOL   C44442514   2.690   1.614   3.965 -0.3240  1.0548  0.8271
   36MOL   O44542515   2.756   1.660   3.870 -0.2827 -0.5938 -0.4324
   36MOL   H44642516   2.422   7.078   4.297 -0.9479  1.5322 -0.8089
   36MOL   H44742517   2.263   7.104   4.236 -0.5863 -2.7706  0.0384
   36MOL   H44842518   2.410   7.285   4.417 -1.7356  2.0127  0.6075
   36MOL   H44942519   2.365   7.312   4.254 -1.5560  2.6219  0.1990
   36MOL   H45042520   2.133   7.304   4.316  0.2506 -0.6555  0.4338
   36MOL   H45142521   2.159   7.262   4.482  2.1093 -1.6361  0.0579
   36MOL   H45242522   2.097   7.506   4.438  0.7948  1.9746  1.3703
   36MOL   H45342523   2.229   7.484   4.547  0.4872 -0.8707 -0.2018
   36MOL   H45442524   2.251   7.548   4.247 -0.4713  1.6037  0.1208
   36MOL   H45542525   2.381   7.532   4.364  1.0351  0.8006  1.2356
   36MOL   H45642526   2.255   7.727   4.490 -0.5582 -2.3894  0.8866
   36MOL   H45742527   2.169   0.000   4.343  1.8605  2.7412 -1.5719
   36MOL   H45842528   2.401   0.014   4.225  3.6670  0.0975  1.4219
   36MOL   H45942529   2.467   0.022   4.392  0.1146  0.1261 -0.4604
   36MOL   H46042530   2.351   0.212   4.452  1.5813 -1.2492  0.7778
   36MOL   H46142531   2.251   0.212   4.324  0.8200 -0.7410 -2.1462
   36MOL   H46242532   2.553   0.269   4.330 -0.2957 -4.2380  0.2585
   36MOL   H46342533   2.482   0.253   4.171  1.2148 -1.2786  0.7080
   36MOL   H46442534   2.327   0.422   4.197 -0.5844  0.9157 -0.1812
   36MOL   H46542535   2.377   0.434   4.375 -1.4214  0.2778 -0.0886
   36MOL   H46642536   2.659   0.597   4.038  0.1329 -0.5289  1.4345
   36MOL   H46742537   2.684   0.713   4.171  1.8445 -1.0537  0.4004
   36MOL   H46842538   2.515   0.798   3.948  0.1693 -0.2315 -0.1151
   36MOL   H46942539   2.699   0.800   3.935 -0.3884  0.7910 -0.6497
   36MOL   H47042540   2.676   0.934   4.152 -2.5133 -1.3347  2.4932
   36MOL   H47142541   2.505   0.943   4.110  0.8705  1.7400  0.0315
   36MOL   H47242542   2.557   1.028   3.883  0.5987 -1.6539 -0.2522
   36MOL   H47342543   2.720   1.054   3.926  0.2638 -1.4002  1.8167
   36MOL   H47442544   2.472   1.166   4.077 -0.3814 -1.5916 -0.1294
   36MOL   H47542545   2.637   1.183   4.131  0.3851 -0.4732 -0.4065
   36MOL   H47642546   2.714   1.318   3.943 -1.2119  0.4417 -1.9311
   36MOL   H47742547   2.571   1.284   3.855  2.0882 -0.8393  0.1388
   36MOL   H47842548   2.563   1.420   4.126  2.2154  0.5806 -0.5228
   36MOL   H47942549   2.427   1.394   4.037 -0.2414  3.1826  1.8181
   36MOL   H48042550   2.516   1.527   3.843 -1.3048 -0.5858  0.2469
   36MOL   H48142551   2.479   1.616   3.984 -1.1401  0.8823 -2.6601
   36MOL   O48242552   2.721   1.618   4.096 -0.2838 -0.4434 -0.4994
   36MOL   C48342553   2.855   1.649   4.135 -0.1139  0.6157  0.9480
   36MOL   C48442554   2.944   1.524   4.128  0.2325 -0.3876 -0.0411
   36MOL   C48542555   2.902   1.410   4.215  0.6158 -0.0130  0.1051
   36MOL   C48642556   2.997   1.297   4.227 -0.9129 -1.0008  0.4272
   36MOL   C48742557   2.926   1.167   4.262 -0.0327 -0.0913  0.0908
   36MOL   C48842558   3.021   1.054   4.310  0.3349  0.1311 -0.6333
   36MOL   C48942559   2.960   0.924   4.358  0.3536  0.2979  0.3067
   36MOL   C49042560   3.059   0.837   4.434 -0.1519  0.6679 -0.7260
   36MOL   C49142561   2.990   0.708   4.500  0.6979  0.4219  0.0504
   36MOL   C49242562   3.061   0.664   4.624  0.0456 -0.1072  0.0533
   36MOL   O49342563   3.000   0.561   4.703 -0.0675 -0.2236  1.1404
   36MOL   C49442564   3.050   0.527   4.826 -0.1317 -0.5914  0.0829
   36MOL   O49542565   3.150   0.574   4.876 -0.2950 -0.0212  0.0119
   36MOL   C49642566   2.968   0.423   4.894  0.6060  0.4033  0.4627
   36MOL   C49742567   3.026   0.355   5.016  0.2035  0.0358  0.1409
   36MOL   C49842568   2.978   0.417   5.143 -0.3278 -0.0597  0.5988
   36MOL   C49942569   3.026   0.337   5.268 -0.2551  0.1726  0.0420
   36MOL   C50042570   2.967   0.380   5.401 -0.4222  0.7505  0.1830
   36MOL   C50142571   2.969   0.275   5.508 -0.2098  0.1399  0.1077
   36MOL   C50242572   2.918   0.314   5.645 -0.2355 -0.0314 -0.0209
   36MOL   C50342573   2.763   0.340   5.656 -0.1845  0.4091  0.1892
   36MOL   C50442574   2.692   0.205   5.671 -0.1839  0.2159  0.6299
   36MOL   O50542575   2.736   0.109   5.738  0.1915  0.0425  0.2649
   36MOL   H50642576   2.895   1.716   4.059 -0.8816 -0.4681 -0.4269
   36MOL   H50742577   2.864   1.706   4.227 -1.5987  0.2248  1.3420
   36MOL   H50842578   2.959   1.484   4.028 -1.3420  0.5209 -0.6484
   36MOL   H50942579   3.046   1.546   4.161  0.1418 -0.8503  0.5521
   36MOL   H51042580   2.878   1.450   4.313 -2.5116  2.3422 -1.5712
   36MOL   H51142581   2.809   1.378   4.169 -0.0765  2.5500 -0.3286
   36MOL   H51242582   3.060   1.288   4.139 -0.3470 -1.1131  0.8428
   36MOL   H51342583   3.070   1.331   4.300  0.1086  0.1333 -1.0839
   36MOL   H51442584   2.879   1.130   4.172  0.1579 -0.1585  0.0189
   36MOL   H51542585   2.849   1.203   4.331  0.9194  2.4801 -0.1309
   36MOL   H51642586   3.081   1.091   4.393  0.6508  0.5433 -1.0452
   36MOL   H51742587   3.078   1.037   4.219 -2.1290 -1.8590 -1.8734
   36MOL   H51842588   2.939   0.861   4.271  0.5050  0.8787 -0.1531
   36MOL   H51942589   2.868   0.941   4.414  2.2325  1.4595  3.1425
   36MOL   H52042590   3.111   0.894   4.511 -0.3953  2.1220 -1.6167
   36MOL   H52142591   3.128   0.808   4.355  0.3259  1.0703 -0.4586
   36MOL   H52242592   2.893   0.734   4.542 -0.0613  0.6714 -1.8232
   36MOL   H52342593   2.972   0.626   4.430  1.7754  1.5109 -1.5500
   36MOL   H52442594   3.157   0.629   4.584  0.7779  0.8997  0.8958
   36MOL   H52542595   3.070   0.749   4.691 -0.7555  1.9536 -2.4049
   36MOL   H52642596   2.956   0.346   4.818  0.7791  0.2665  0.5754
   36MOL   H52742597   2.868   0.467   4.900 -0.0205 -0.8527 -0.5370
   36MOL   H52842598   3.135   0.360   5.020  0.1525  0.9967  0.4877
   36MOL   H52942599   2.999   0.250   5.018  2.1454 -0.4695  3.3608
   36MOL   H53042600   2.869   0.420   5.142 -0.3397 -0.5510 -0.8020
   36MOL   H53142601   3.015   0.518   5.158 -0.8785  0.1697  0.4367
   36MOL   H53242602   3.135   0.331   5.279 -0.1971 -1.0766 -1.1278
   36MOL   H53342603   2.991   0.237   5.243 -0.4723 -0.0588  1.2188
   36MOL   H53442604   3.026   0.464   5.440 -1.0763  1.2532  0.1040
   36MOL   H53542605   2.866   0.420   5.393 -0.9010 -0.1714  1.5198
   36MOL   H53642606   2.915   0.188   5.472  0.4506 -0.5816  0.8182
   36MOL   H53742607   3.073   0.242   5.516 -0.7050 -1.0878  1.6085
   36MOL   H53842608   2.967   0.399   5.691  1.5334 -0.7607 -0.5428
   36MOL   H53942609   2.956   0.242   5.717 -1.1082 -0.6296 -0.1406
   36MOL   H54042610   2.728   0.401   5.739 -0.9441 -0.1040  0.2494
   36MOL   H54142611   2.727   0.378   5.561  0.5420 -0.3027 -0.3750
   36MOL   O54242612   2.572   0.191   5.601  0.3812 -1.1729  0.4202
   36MOL   C54342613   2.498   0.072   5.621 -0.2106  0.0153 -0.5236
   36MOL   C54442614   2.473   0.011   5.484  0.0864 -0.0707  0.5326
   36MOL   C54542615   2.596   7.677   5.448 -0.8901 -0.8136 -0.3334
   36MOL   C54642616   2.633   7.660   5.301 -0.0402 -0.5451  0.2566
   36MOL   C54742617   2.684   0.032   5.240 -0.5589  0.4723  1.0174
   36MOL   C54842618   2.712   0.016   5.094 -0.0741 -0.7820 -0.5669
   36MOL   C54942619   2.854   7.707   5.068  0.3725  0.0216 -1.0732
   36MOL   C55042620   2.881   7.678   4.913  0.2126 -0.1901 -0.4395
   36MOL   C55142621   3.021   7.656   4.879  0.2200 -0.2450 -0.1354
   36MOL   C55242622   3.046   7.508   4.866 -0.2273  0.0351  0.7171
   36MOL   O55342623   3.177   7.489   4.796  0.1477  0.0138  0.3365
   36MOL   C55442624   3.292   7.490   4.860 -0.4256 -0.5304 -0.2905
   36MOL   O55542625   3.309   7.521   4.979  0.2102 -0.0834  0.2855
   36MOL   C55642626   3.412   7.457   4.766 -0.0856 -0.3917 -0.4224
   36MOL   C55742627   3.547   7.431   4.833  0.6721 -0.1936 -0.1115
   36MOL   C55842628   3.567   7.287   4.884  0.0290 -0.1847 -0.5174
   36MOL   C55942629   3.712   7.249   4.905  0.6278  0.4358 -0.0461
   36MOL   C56042630   3.730   7.105   4.957  0.1285 -0.4648 -0.2270
   36MOL   C56142631   3.878   7.070   4.984 -0.3655 -0.1815 -0.6000
   36MOL   C56242632   3.887   6.927   5.047  0.4696 -0.0678  0.0184
   36MOL   C56342633   4.033   6.887   5.063  0.9877 -0.6636  0.1226
   36MOL   C56442634   4.104   6.953   5.181  0.4430  0.3361 -0.6283
   36MOL   O56542635   4.220   6.989   5.177 -0.0099  0.0238  0.3061
   36MOL   H56642636   2.550   7.753   5.680 -0.9464  0.2009  0.3675
   36MOL   H56742637   2.401   0.101   5.661  0.0764  0.4323 -0.1229
   36MOL   H56842638   2.384   7.706   5.494 -0.1992  0.1872 -0.3591
   36MOL   H56942639   2.453   0.095   5.417 -0.2284 -0.7705 -0.2544
   36MOL   H57042640   2.681   7.704   5.511 -0.6484 -1.1677 -0.5084
   36MOL   H57142641   2.580   7.571   5.469 -2.0454 -0.6778 -0.4620
   36MOL   H57242642   2.706   7.578   5.304 -1.2971 -1.6734  0.6351
   36MOL   H57342643   2.559   7.608   5.241  1.6949 -2.3093 -0.4079
   36MOL   H57442644   2.770   0.077   5.290  2.0778 -0.1830 -2.6771
   36MOL   H57542645   2.595   0.095   5.243  0.2338  1.7415 -0.7982
   36MOL   H57642646   2.704   0.115   5.050  0.0613 -0.0834  0.9657
   36MOL   H57742647   2.640   7.700   5.054 -0.2182 -1.0896  0.2543
   36MOL   H57842648   2.861   7.611   5.119  0.1273 -0.2927 -1.6250
   36MOL   H57942649   2.925   0.027   5.101 -1.0176  1.2474 -0.8752
   36MOL   H58042650   2.839   0.004   4.856 -1.3622 -1.0033 -0.4752
   36MOL   H58142651   2.816   7.598   4.879 -0.3517  0.4338 -0.8460
   36MOL   H58242652   3.039   7.709   4.785  1.2879  2.9979  1.8173
   36MOL   H58342653   3.087   7.698   4.955  0.4813  0.8321 -0.9610
   36MOL   H58442654   3.048   7.453   4.960 -1.3645  1.4920  1.6161
   36MOL   H58542655   2.967   7.463   4.806  1.6186 -1.8350 -0.4068
   36MOL   H58642656   3.406   7.534   4.688 -0.7591  1.9004  1.8349
   36MOL   H58742657   3.380   7.372   4.706  0.1443  0.0367 -1.1637
   36MOL   H58842658   3.561   7.498   4.919 -0.8089 -1.4706  1.1510
   36MOL   H58942659   3.631   7.449   4.766 -0.0625  2.2781 -0.4394
   36MOL   H59042660   3.527   7.224   4.804  0.1486 -0.3806 -0.4227
   36MOL   H59142661   3.500   7.273   4.969 -0.7828  0.1013 -1.0985
   36MOL   H59242662   3.774   7.318   4.961  1.0234  2.5049 -2.9168
   36MOL   H59342663   3.755   7.250   4.805 -1.0573 -2.9735 -0.8778
   36MOL   H59442664   3.673   7.089   5.049 -2.1469  3.0598 -0.8815
   36MOL   H59542665   3.678   7.047   4.881  1.7192  0.7149 -2.2679
   36MOL   H59642666   3.924   7.069   4.885 -3.7262  0.1735 -2.2144
   36MOL   H59742667   3.934   7.153   5.027 -0.8876  0.3975 -1.0273
   36MOL   H59842668   3.844   6.851   4.983  2.2593 -0.0565 -1.2278
   36MOL   H59942669   3.829   6.919   5.140  1.3278  0.2825  0.5909
   36MOL   H60042670   4.038   6.779   5.079 -1.7481 -1.0237 -0.9927
   36MOL   H60142671   4.087   6.892   4.969 -0.5769  2.4506 -0.6802
   36MOL   O60242672   4.015   6.975   5.279 -0.5738 -0.0088  0.0170
   36MOL   C60342673   4.063   7.049   5.393  0.7450  0.5413  0.9216
   36MOL   C60442674   4.066   7.195   5.365 -0.3776 -0.9123 -0.1581
   36MOL   C60542675   3.922   7.253   5.329  0.3484  0.6346 -0.1588
   36MOL   C60642676   3.908   7.406   5.321 -0.1261  1.6098  0.2380
   36MOL   C60742677   3.766   7.473   5.293 -0.1025  0.5153  0.0909
   36MOL   C60842678   3.774   7.627   5.282 -0.3767 -0.1932 -0.1999
   36MOL   C60942679   3.649   7.675   5.204  0.0721  0.0864 -0.0581
   36MOL   C61042680   3.637   0.079   5.194 -0.2235  0.9303 -0.2553
   36MOL   C61142681   3.506   0.120   5.137 -0.3091 -0.6752  0.6402
   36MOL   C61242682   3.482   0.075   4.994  0.2400  0.2312 -0.0617
   36MOL   O61342683   3.372   0.134   4.926  0.4600 -0.4262 -0.4379
   36MOL   C61442684   3.360   0.123   4.793 -0.5291  0.4567  0.1045
   36MOL   O61542685   3.420   0.039   4.722 -0.1394 -0.4963 -0.0503
   36MOL   C61642686   3.267   0.226   4.724 -0.7096 -0.1719  0.5990
   36MOL   C61742687   3.297   0.240   4.568  0.0199  0.2060  0.0216
   36MOL   C61842688   3.216   0.350   4.500  0.0445 -0.2252 -0.4534
   36MOL   C61942689   3.264   0.374   4.360  0.1010 -0.8061 -0.0100
   36MOL   C62042690   3.197   0.500   4.301  0.4493 -0.1395 -0.2744
   36MOL   C62142691   3.196   0.501   4.156 -0.0544 -0.5026  0.3480
   36MOL   C62242692   3.131   0.621   4.091 -0.1073 -0.4788  0.3142
   36MOL   C62342693   2.981   0.633   4.081 -0.2761 -0.0217 -0.7260
   36MOL   C62442694   2.915   0.531   3.994 -0.7120  0.4447  0.1083
   36MOL   O62542695   2.886   0.550   3.880  0.1181 -0.2014  0.7277
   36MOL   H62642696   3.994   7.025   5.475 -0.1049  1.1299  0.3870
   36MOL   H62742697   4.166   7.015   5.408  0.0021 -1.7905  0.9628
   36MOL   H62842698   4.102   7.246   5.455 -1.4569  0.2856 -0.3887
   36MOL   H62942699   4.129   7.229   5.283 -0.6053 -0.2975 -0.0787
   36MOL   H63042700   3.883   7.204   5.239 -2.0552 -0.4883  1.4453
   36MOL   H63142701   3.857   7.214   5.407  0.6079  0.3286 -0.0942
   36MOL   H63242702   3.950   7.446   5.413 -1.8933 -1.1846  2.3365
   36MOL   H63342703   3.982   7.438   5.248  0.4019 -1.9381 -0.8539
   36MOL   H63442704   3.690   7.433   5.360 -0.0891 -0.0054 -0.2010
   36MOL   H63542705   3.734   7.433   5.196  1.0518 -1.1991  0.3901
   36MOL   H63642706   3.869   7.645   5.231  0.0617 -2.2503 -0.1866
   36MOL   H63742707   3.776   7.682   5.376 -0.9095 -0.4871 -0.0123
   36MOL   H63842708   3.569   7.639   5.269  0.3573 -0.3140  0.0725
   36MOL   H63942709   3.650   7.627   5.106  1.2042  0.9349 -0.4819
   36MOL   H64042710   3.715   0.124   5.132  2.2520  0.0097  2.0711
   36MOL   H64142711   3.648   0.111   5.297  0.3437 -0.1223  0.0242
   36MOL   H64242712   3.429   0.073   5.198 -0.3824 -3.2558 -1.3413
   36MOL   H64342713   3.486   0.226   5.150 -0.5828 -0.5168 -0.9287
   36MOL   H64442714   3.573   0.104   4.941  0.4502 -1.3270 -0.5807
   36MOL   H64542715   3.466   7.724   4.997 -2.0686  0.4782 -1.5101
   36MOL   H64642716   3.280   0.320   4.778  1.2184 -1.0923  1.8316
   36MOL   H64742717   3.165   0.190   4.725 -1.6230  2.3087 -0.2166
   36MOL   H64842718   3.291   0.139   4.529 -1.0390  0.8251 -1.4547
   36MOL   H64942719   3.402   0.269   4.556  0.6476 -1.8846  0.3470
   36MOL   H65042720   3.222   0.436   4.566 -1.1916 -0.5112  0.0370
   36MOL   H65142721   3.112   0.320   4.509  0.5529 -1.6036  1.1278
   36MOL   H65242722   3.234   0.286   4.303 -2.7216 -0.2106  0.5005
   36MOL   H65342723   3.373   0.377   4.350  0.0470  0.8719 -0.1970
   36MOL   H65442724   3.093   0.490   4.332  1.3898 -1.0148  2.8678
   36MOL   H65542725   3.241   0.588   4.348  0.2497 -0.1518 -0.0615
   36MOL   H65642726   3.303   0.508   4.138 -0.2795  1.7513 -0.1495
   36MOL   H65742727   3.164   0.406   4.113 -1.9492 -0.3016  1.2842
   36MOL   H65842728   3.166   0.608   3.989 -1.9031  3.3462 -0.8582
   36MOL   H65942729   3.174   0.710   4.137 -1.3708 -0.1566  0.8926
   36MOL   H66042730   2.947   0.646   4.183 -0.9730  4.0993 -1.4039
   36MOL   H66142731   2.964   0.730   4.034  0.1670  0.5722  0.3187
   36MOL   O66242732   2.904   0.410   4.055  0.2266  0.9645  0.3883
   36MOL   C66342733   2.835   0.308   3.987  0.2706  0.2346 -0.4918
   36MOL   C66442734   2.826   0.174   4.072  0.1035  0.2968  0.3605
   36MOL   C66542735   2.712   0.080   4.017 -0.1717  0.7354 -0.3189
   36MOL   C66642736   2.709   7.711   4.106  0.2223  0.0467 -0.6916
   36MOL   C66742737   2.617   7.596   4.063 -0.2764 -0.7355  0.0738
   36MOL   C66842738   2.631   7.471   4.155  0.2799 -0.1624  0.2090
   36MOL   C66942739   2.765   7.397   4.152  0.3463 -0.3321  0.2389
   36MOL   C67042740   2.769   7.244   4.163  0.1202  0.9166  0.2564
   36MOL   C67142741   2.907   7.197   4.112 -0.0371 -0.1166 -0.5043
   36MOL   C67242742   3.028   7.214   4.212 -0.7983  0.2525 -0.0662
   36MOL   O67342743   3.084   7.348   4.200  0.2183 -0.1571  0.4835
   36MOL   C67442744   3.076   7.430   4.302  0.0973 -0.3291 -0.5313
   36MOL   O67542745   3.023   7.408   4.412 -0.1065 -0.3041  0.1489
   36MOL   C67642746   3.122   7.573   4.274  0.4388 -0.8401  0.1911
   36MOL   C67742747   3.095   7.684   4.377  0.1679 -0.2631 -0.3136
   36MOL   C67842748   2.942   7.729   4.375  0.2847 -0.3601 -0.3234
   36MOL   C67942749   2.928   0.067   4.495  0.4362  0.2088  0.1140
   36MOL   C68042750   2.812   0.160   4.489 -0.1590  1.0328 -0.5517
   36MOL   C68142751   2.797   0.244   4.619  0.2183 -0.3552 -0.0696
   36MOL   C68242752   2.665   0.329   4.634  0.2194  0.4376 -1.3017
   36MOL   C68342753   2.651   0.453   4.546  0.3020 -0.4514  0.1727
   36MOL   C68442754   2.543   0.558   4.581  0.0880 -0.0965 -0.0581
   36MOL   O68542755   2.451   0.539   4.667  0.0643  0.8314  0.5604
   36MOL   H68642756   2.731   0.342   3.978  0.2759  0.6994  1.0864
   36MOL   H68742757   2.878   0.287   3.889  0.4898 -1.5822 -0.0227
   36MOL   H68842758   2.920   0.120   4.073 -0.9047 -1.4872  0.8001
   36MOL   H68942759   2.808   0.206   4.174 -1.4265 -1.3272  0.6272
   36MOL   H69042760   2.622   0.141   4.030  0.2259  0.7729  2.5062
   36MOL   H69142761   2.736   0.064   3.912  1.2589 -0.7397  0.2143
   36MOL   H69242762   2.811   7.673   4.106  0.9358  1.9536  0.6046
   36MOL   H69342763   2.688   7.746   4.207 -3.1055  0.7941 -1.5823
   36MOL   H69442764   2.636   7.574   3.958  0.0007 -0.3127  0.0315
   36MOL   H69542765   2.512   7.625   4.065 -0.1049 -0.1556  3.2543
   36MOL   H69642766   2.565   7.398   4.108 -0.6752  0.6557  0.2654
   36MOL   H69742767   2.593   7.484   4.256  0.7595 -2.4889  0.7262
   36MOL   H69842768   2.837   7.451   4.215 -0.9717 -0.0950  1.5639
   36MOL   H69942769   2.808   7.413   4.053  2.1379  0.8540  1.1596
   36MOL   H70042770   2.687   7.202   4.104  0.7135 -1.2800  0.9355
   36MOL   H70142771   2.767   7.209   4.267 -1.5619 -0.3818 -0.1858
   36MOL   H70242772   2.899   7.090   4.097 -1.1927  0.0245 -0.9636
   36MOL   H70342773   2.940   7.242   4.019  1.2736  2.1992  1.0233
   36MOL   H70442774   3.003   7.181   4.313 -0.4870  0.9930  0.2589
   36MOL   H70542775   3.116   7.155   4.188  0.1683  0.9257  1.7142
   36MOL   H70642776   3.066   7.608   4.188 -0.5496  2.5154  2.1136
   36MOL   H70742777   3.227   7.565   4.247  0.2573 -1.5048 -0.3228
   36MOL   H70842778   3.167   0.007   4.355  2.0818 -1.7730  0.3671
   36MOL   H70942779   3.116   7.665   4.482 -0.8139  0.8515  0.0905
   36MOL   H71042780   2.868   7.652   4.389 -0.8655  0.3566 -2.2860
   36MOL   H71142781   2.913   0.027   4.285 -1.0007 -2.7567 -1.3831
   36MOL   H71242782   3.014   0.132   4.506 -0.1274  0.8795  0.5637
   36MOL   H71342783   2.932   0.015   4.591 -0.2596  2.1737  1.2288
   36MOL   H71442784   2.832   0.240   4.418 -0.1621  1.3080 -0.2462
   36MOL   H71542785   2.713   0.119   4.470 -0.2547  0.4304  1.1253
   36MOL   H71642786   2.798   0.177   4.705 -0.2425  0.3685  0.5021
   36MOL   H71742787   2.889   0.298   4.638 -1.0314  2.7674 -2.5102
   36MOL   H71842788   2.657   0.352   4.740  2.0399 -2.4113 -0.4822
   36MOL   H71942789   2.580   0.264   4.612 -0.3104  0.9823 -0.9035
   36MOL   H72042790   2.746   0.505   4.536 -0.6335  1.2218 -0.1973
   36MOL   H72142791   2.622   0.435   4.443 -2.1209 -0.1117  0.7746
   36MOL   O72242792   2.559   0.671   4.510  0.3913 -0.1788  0.1897
   36MOL   C72342793   2.472   0.776   4.536  0.1520 -0.0432  0.5807
   36MOL   C72442794   2.523   0.900   4.463 -0.7645 -0.2877  0.8384
   36MOL   C72542795   2.427   1.020   4.480 -0.9831  0.6975  0.2443
   36MOL   C72642796   2.503   1.150   4.453 -0.1599  0.3280  0.1366
   36MOL   C72742797   2.417   1.278   4.457  0.1132  0.0876  0.6595
   36MOL   C72842798   2.475   1.408   4.441 -0.3173  0.2405  0.2176
   36MOL   C72942799   2.586   1.446   4.545 -0.0493 -0.3176  0.0820
   36MOL   C73042800   2.605   1.598   4.561  0.1318  0.4073  0.5034
   36MOL   C73142801   2.739   1.644   4.614  0.0111  0.4037 -0.0271
   36MOL   C73242802   2.868   1.605   4.540 -0.0243 -0.2022 -0.0839
   36MOL   O73342803   2.989   1.654   4.586 -0.2659  0.0839  0.4858
   36MOL   C73442804   3.053   1.752   4.516  0.2350  0.6244 -0.1487
   36MOL   O73542805   3.006   1.801   4.415 -0.0283 -0.6561 -0.4547
   36MOL   C73642806   3.181   1.794   4.573  0.7335  0.0834  0.5425
   36MOL   C73742807   3.276   1.687   4.628  0.1413  0.1465 -0.9958
   36MOL   C73842808   3.420   1.731   4.635  0.4251 -0.7652 -0.7242
   36MOL   C73942809   3.436   1.845   4.728 -0.2396 -0.1246  0.6365
   36MOL   C74042810   3.578   1.908   4.731 -0.1706  0.3442  0.8094
   36MOL   C74142811   3.587   2.044   4.807  0.8155  0.8398 -0.4075
   36MOL   C74242812   3.729   2.070   4.853 -0.2066  0.6921 -0.3790
   36MOL   C74342813   3.808   2.136   4.739  0.0164  0.0674 -1.0137
   36MOL   C74442814   3.942   2.198   4.784 -0.6776  0.3287 -0.1266
   36MOL   O74542815   4.050   2.174   4.729  0.2182 -0.2725 -0.5658
   36MOL   H74642816   2.370   0.752   4.506  0.2635 -1.2268  1.1332
   36MOL   H74742817   2.459   0.793   4.643  2.3390 -1.6245  1.1195
   36MOL   H74842818   2.623   0.919   4.503  0.6177 -1.3301 -1.9665
   36MOL   H74942819   2.532   0.881   4.356 -0.8946  1.5988  0.4787
   36MOL   H75042820   2.339   1.019   4.416 -1.3263  2.7910  0.6400
   36MOL   H75142821   2.384   1.018   4.580  1.0902  1.5426  1.1864
   36MOL   H75242822   2.590   1.158   4.518  0.0701  0.3307 -0.1733
   36MOL   H75342823   2.528   1.143   4.347 -0.9065 -1.7953  0.0726
   36MOL   H75442824   2.336   1.277   4.529  0.7588 -1.1040  1.4040
   36MOL   H75542825   2.355   1.256   4.370  1.2502 -0.1629 -0.1031
   36MOL   H75642826   2.391   1.476   4.454 -0.2960  0.5592 -1.2564
   36MOL   H75742827   2.522   1.423   4.344 -2.1562  1.5766 -0.4911
   36MOL   H75842828   2.684   1.407   4.515  1.3617  2.6099  0.6991
   36MOL   H75942829   2.559   1.398   4.639 -0.9395  0.2455  0.1151
   36MOL   H76042830   2.531   1.635   4.631 -0.7071  1.0345 -0.6872
   36MOL   H76142831   2.579   1.650   4.468  2.3386  1.8818  0.6871
   36MOL   H76242832   2.732   1.752   4.612  2.0608  0.5691  1.1424
   36MOL   H76342833   2.753   1.624   4.720 -1.2292  0.2599  0.1221
   36MOL   H76442834   2.881   1.498   4.555 -0.9610 -0.2809  0.2373
   36MOL   H76542835   2.858   1.613   4.432  3.0306 -0.4459 -0.4189
   36MOL   H76642836   3.145   1.871   4.641  0.3314  0.1789  0.2288
   36MOL   H76742837   3.225   1.841   4.485  0.4886 -0.1322  0.3003
   36MOL   H76842838   3.263   1.594   4.573  0.0100  0.2555 -1.1513
   36MOL   H76942839   3.247   1.659   4.729  1.4860  0.6652 -0.4582
   36MOL   H77042840   3.459   1.771   4.541  1.3920  0.5923  0.2382
   36MOL   H77142841   3.485   1.648   4.661  0.5314 -0.2794  0.5754
   36MOL   H77242842   3.404   1.824   4.830 -0.6861  0.8334  0.7022
   36MOL   H77342843   3.377   1.928   4.688 -0.8248  0.0593  1.8673
   36MOL   H77442844   3.645   1.834   4.776 -1.7383 -1.3560  0.3886
   36MOL   H77542845   3.611   1.913   4.627 -0.3696  0.3207  0.7461
   36MOL   H77642846   3.532   2.124   4.758 -1.7186  0.7528  2.1801
   36MOL   H77742847   3.530   2.031   4.899  1.0344 -1.7971 -0.6198
   36MOL   H77842848   3.770   1.976   4.890 -1.6148  0.4899  0.7072
   36MOL   H77942849   3.713   2.134   4.940 -1.8474 -1.6977  1.1279
   36MOL   H78042850   3.820   2.057   4.664 -0.4392  0.9049 -1.9889
   36MOL   H78142851   3.749   2.207   4.681 -0.8776 -1.5555 -2.1561
   36MOL   O78242852   3.938   2.273   4.896  0.2820 -1.0115  0.1636
   36MOL   C78342853   4.060   2.295   4.966  0.6153 -0.0437  0.7773
   36MOL   C78442854   4.051   2.395   5.079  0.1138 -0.4341  0.0403
   36MOL   C78542855   4.039   2.539   5.044  0.8442  0.1523  0.2854
   36MOL   C78642856   3.962   2.636   5.146  0.4212 -0.0182 -0.0130
   36MOL   C78742857   3.940   2.778   5.100 -0.3393  0.2238  0.5073
   36MOL   C78842858   4.053   2.875   5.129  1.0910  0.6330  0.5643
   36MOL   C78942859   4.034   3.016   5.084  0.7714 -0.5194  0.5822
   36MOL   C79042860   4.159   3.104   5.092  0.5650 -0.4630  0.5103
   36MOL   C79142861   4.157   3.251   5.052  0.3578  0.1501 -0.7242
   36MOL   C79242862   4.285   3.337   5.075 -0.2440 -0.8730  0.0474
   36MOL   O79342863   4.396   3.272   5.010 -1.0845 -0.0329  0.0023
   36MOL   C79442864   4.512   3.320   5.011  0.5681 -0.4908 -0.2749
   36MOL   O79542865   4.550   3.411   5.079 -0.0606 -0.0405 -0.4627
   36MOL   C79642866   4.607   3.267   4.908 -0.4518 -0.6422 -0.4953
   36MOL   C79742867   4.626   3.115   4.911 -0.0417  0.0386  0.0098
   36MOL   C79842868   4.674   3.046   5.039 -0.3385 -0.3991 -0.5359
   36MOL   C79942869   4.682   2.897   5.024  0.2172  0.0919 -0.1352
   36MOL   C80042870   4.739   2.845   4.897 -0.1009  0.0591  0.0878
   36MOL   C80142871   4.760   2.692   4.897  0.1355 -0.1088 -0.5223
   36MOL   C80242872   4.626   2.615   4.912 -0.2452 -0.1874  0.2539
   36MOL   C80342873   4.627   2.468   4.877 -0.1683  0.0301 -0.5923
   36MOL   C80442874   4.729   2.396   4.965 -0.2654 -0.3521  0.2166
   36MOL   O80542875   4.743   2.422   5.086 -0.0218  0.0535 -0.2336
   36MOL   H80642876   4.087   2.198   5.007 -1.6942 -1.7378 -1.5273
   36MOL   H80742877   4.143   2.312   4.897  1.1919  0.0888  1.4851
   36MOL   H80842878   3.971   2.358   5.144  0.8966 -1.9986  0.1504
   36MOL   H80942879   4.145   2.383   5.134  0.0784 -0.2160  0.1462
   36MOL   H81042880   4.137   2.575   5.016  2.0949 -3.1603  0.1213
   36MOL   H81142881   3.981   2.529   4.952 -1.5535  0.3130  1.7245
   36MOL   H81242882   3.858   2.604   5.145  0.7982 -1.2884  1.1980
   36MOL   H81342883   3.999   2.628   5.248  1.4900 -1.4858 -0.4946
   36MOL   H81442884   3.855   2.815   5.156 -2.6077 -1.2238 -1.8872
   36MOL   H81542885   3.901   2.787   4.999  0.3350  0.9469  0.3025
   36MOL   H81642886   4.141   2.836   5.078 -0.3785 -2.0276 -0.0302
   36MOL   H81742887   4.064   2.876   5.238  2.3449 -0.2287  0.4508
   36MOL   H81842888   3.947   3.055   5.137  0.5281  0.1099 -0.2520
   36MOL   H81942889   4.004   3.019   4.979 -0.7837  0.5728  1.0313
   36MOL   H82042890   4.247   3.062   5.043  0.2737 -0.8352  0.3020
   36MOL   H82142891   4.188   3.095   5.197  1.5398 -2.3662  0.1089
   36MOL   H82242892   4.125   3.265   4.949  0.7412 -3.0411 -1.3094
   36MOL   H82342893   4.080   3.302   5.110 -0.1559 -0.7074 -0.6433
   36MOL   H82442894   4.274   3.432   5.024  3.1270  0.4949  1.7059
   36MOL   H82542895   4.289   3.353   5.183 -1.2727  0.3994 -0.1047
   36MOL   H82642896   4.711   3.298   4.915 -0.6045 -0.2549  0.0595
   36MOL   H82742897   4.576   3.299   4.808  0.7744 -1.4343 -1.1508
   36MOL   H82842898   4.702   3.115   4.832  0.2273  1.1400  0.2568
   36MOL   H82942899   4.538   3.065   4.873  0.0556 -1.2611  1.4213
   36MOL   H83042900   4.598   3.068   5.114 -0.2436 -1.5203 -0.1083
   36MOL   H83142901   4.758   3.099   5.084 -0.1541 -2.1942  1.3067
   36MOL   H83242902   4.582   2.853   5.035  0.9853 -0.9552  3.2948
   36MOL   H83342903   4.746   2.855   5.101  0.5372  0.0901 -0.4032
   36MOL   H83442904   4.677   2.881   4.815  0.4917  0.9114  0.0096
   36MOL   H83542905   4.832   2.894   4.869 -1.5132  2.1263 -1.0992
   36MOL   H83642906   4.811   2.652   4.810 -0.5736 -2.0789 -0.0637
   36MOL   H83742907   4.826   2.670   4.981 -0.5260 -2.9459 -0.6851
   36MOL   H83842908   4.546   2.672   4.865 -0.1313 -0.5544 -0.3850
   36MOL   H83942909   4.610   2.629   5.019 -2.2047 -0.2538 -0.0220
   36MOL   H84042910   4.528   2.426   4.897 -0.6864  0.3278 -2.5124
   36MOL   H84142911   4.646   2.438   4.774  2.2986 -2.2358  0.4585
   36MOL   O84242912   4.796   2.300   4.896  0.1549  0.1006 -0.7252
   36MOL   C84342913   4.882   2.205   4.957 -0.1193  0.3120  0.1214
   36MOL   C84442914   4.935   2.120   4.849  0.0511 -0.7293  0.1616
   36MOL   C84542915   5.033   2.011   4.904 -0.6703  0.4503 -0.1787
   36MOL   C84642916   5.161   2.060   4.980  0.0296  0.0984 -0.7505
   36MOL   C84742917   5.267   2.125   4.882 -0.0971 -0.0107 -0.0755
   36MOL   C84842918   5.394   2.179   4.952  0.0928 -0.4490  0.1944
   36MOL   C84942919   5.480   2.063   5.022  0.7077 -0.1870 -0.1137
   36MOL   C85042920   5.532   1.952   4.920 -0.3757 -0.3036  0.2812
   36MOL   C85142921   5.602   1.839   5.001  0.2318  0.9021  0.5253
   36MOL   C85242922   5.657   1.723   4.910  0.3716  0.1437  0.0683
   36MOL   O85342923   5.550   1.669   4.835 -0.4815  0.1434 -0.5785
   36MOL   C85442924   5.492   1.552   4.867  0.0869  0.2411  0.5241
   36MOL   O85542925   5.488   1.507   4.983 -0.1579  0.4863  0.1097
   36MOL   C85642926   5.422   1.482   4.754  0.9972  0.1757 -0.0472
   36MOL   C85742927   5.318   1.583   4.686  0.4797  0.2855 -0.0936
   36MOL   C85842928   5.207   1.617   4.782  0.6532 -0.1246  0.0176
   36MOL   C85942929   5.111   1.504   4.829  0.0055  0.1691 -0.6974
   36MOL   C86042930   5.004   1.533   4.933  0.3896 -0.0278  0.4542
   36MOL   C86142931   4.885   1.609   4.871  0.1864 -0.2349  0.6075
   36MOL   C86242932   4.759   1.607   4.957  0.4356 -0.1642 -0.0743
   36MOL   C86342933   4.654   1.690   4.884  0.4472 -0.6144  0.3444
   36MOL   C86442934   4.646   1.843   4.899 -0.0663 -0.8287 -0.2295
   36MOL   O86542935   4.712   1.911   4.973 -0.0457  0.6662  0.0106
   36MOL   H86642936   4.959   2.258   5.013  0.5936 -0.4237 -0.1418
   36MOL   H86742937   4.819   2.146   5.024 -0.3269  2.1487  1.5679
   36MOL   H86842938   4.860   2.067   4.791  0.0597  1.2097 -1.6743
   36MOL   H86942939   4.992   2.188   4.785 -0.3396 -0.6706 -0.1244
   36MOL   H87042940   4.972   1.948   4.969  1.8801 -2.0882 -0.1971
   36MOL   H87142941   5.059   1.942   4.824  0.7999  1.5147 -0.6251
   36MOL   H87242942   5.146   2.124   5.067  1.7667 -0.8337  0.2745
   36MOL   H87342943   5.206   1.970   5.024 -0.6479 -0.6089 -1.4789
   36MOL   H87442944   5.222   2.210   4.830  0.1117 -0.1825 -0.5357
   36MOL   H87542945   5.287   2.055   4.801 -0.0686  1.9575 -1.7988
   36MOL   H87642946   5.384   2.254   5.031 -0.3941 -0.7426  0.4142
   36MOL   H87742947   5.447   2.216   4.864 -0.3848  4.2713  1.7739
   36MOL   H87842948   5.417   2.022   5.100 -0.5643  1.8520 -0.0385
   36MOL   H87942949   5.574   2.099   5.064  0.8472 -1.5467  0.7734
   36MOL   H88042950   5.596   2.006   4.850  1.0895 -1.3569  0.7776
   36MOL   H88142951   5.448   1.921   4.858  0.3471  0.8693 -1.3154
   36MOL   H88242952   5.680   1.883   5.064  2.9831 -0.6317 -1.6687
   36MOL   H88342953   5.540   1.802   5.082 -1.9748  0.7154 -1.1995
   36MOL   H88442954   5.731   1.765   4.841  0.0059 -1.0449 -1.0620
   36MOL   H88542955   5.702   1.646   4.973  0.5601  1.2812  1.3679
   36MOL   H88642956   5.373   1.392   4.791 -0.4716  0.2422 -1.7467
   36MOL   H88742957   5.503   1.463   4.684 -2.2512 -2.6543 -3.2593
   36MOL   H88842958   5.282   1.535   4.595 -0.5181  0.1360  0.3657
   36MOL   H88942959   5.372   1.675   4.663  1.4296 -0.3756 -0.5097
   36MOL   H89042960   5.132   1.676   4.729  1.4543 -0.7783 -1.8991
   36MOL   H89142961   5.241   1.674   4.868 -1.3012 -0.5505  1.1205
   36MOL   H89242962   5.180   1.439   4.884  1.1599  1.6252 -0.3938
   36MOL   H89342963   5.071   1.444   4.747 -1.6043  0.9521 -0.4875
   36MOL   H89442964   4.960   1.444   4.977  0.5222 -0.5053 -0.3676
   36MOL   H89542965   5.035   1.591   5.020 -0.9341 -0.5277  1.2708
   36MOL   H89642966   4.917   1.708   4.836  2.8947 -0.9936  0.8239
   36MOL   H89742967   4.864   1.559   4.777  0.5598  0.5658  0.0850
   36MOL   H89842968   4.771   1.652   5.056 -0.3422  0.5026 -0.2703
   36MOL   H89942969   4.736   1.504   4.985 -0.4868 -0.9375 -3.5175
   36MOL   H90042970   4.671   1.663   4.780  2.1490  0.6185  0.2778
   36MOL   H90142971   4.559   1.645   4.914  0.1588  0.9643  1.9070
   36MOL   O90242972   4.541   1.887   4.832  0.2726  0.5577 -0.1558
   36MOL   C90342973   4.501   2.022   4.828 -0.1843 -0.2962  0.0718
   36MOL   C90442974   4.454   2.071   4.684 -0.4716 -0.7471  0.0705
   36MOL   C90542975   4.464   2.229   4.678 -0.6520 -0.3019 -0.1285
   36MOL   C90642976   4.414   2.277   4.544  0.0708 -0.3639  0.3384
   36MOL   C90742977   4.453   2.422   4.519 -0.6274  0.4774  0.0683
   36MOL   C90842978   4.591   2.445   4.461  0.9102 -0.0977 -0.0171
   36MOL   C90942979   4.655   2.587   4.495  0.2439  0.0388  0.3139
   36MOL   C91042980   4.574   2.702   4.432 -0.0747 -0.1377 -0.5260
   36MOL   C91142981   4.617   2.845   4.487 -0.5330 -0.3939 -0.4639
   36MOL   C91242982   4.547   2.964   4.426 -0.5544  0.2345 -0.3667
   36MOL   O91342983   4.417   2.971   4.460  0.4330 -0.1759 -0.5182
   36MOL   C91442984   4.366   3.067   4.540 -0.0218  0.1455  0.0613
   36MOL   O91542985   4.432   3.166   4.572  0.7172 -0.2777 -0.3182
   36MOL   C91642986   4.231   3.048   4.600  0.1578  0.2010  0.3252
   36MOL   C91742987   4.213   2.927   4.697  0.3056 -0.4267 -0.5811
   36MOL   C91842988   4.206   2.801   4.627 -0.2560  0.9686 -0.3110
   36MOL   C91942989   4.181   2.677   4.711  0.6349  0.9352 -0.3765
   36MOL   C92042990   4.120   2.569   4.620  0.6186  0.1548  0.5548
   36MOL   C92142991   3.970   2.592   4.598 -0.3730 -0.2161  0.1523
   36MOL   C92242992   3.911   2.483   4.520  0.1216  0.0568  0.0840
   36MOL   C92342993   3.769   2.516   4.476  1.1802  0.0158 -0.0930
   36MOL   C92442994   3.666   2.555   4.583  0.4474  0.2055 -0.3364
   36MOL   O92542995   3.631   2.671   4.595 -0.4692 -0.0750 -0.1512
   36MOL   H92642996   4.420   2.020   4.901 -1.1532  0.1406 -0.9876
   36MOL   H92742997   4.581   2.083   4.871 -1.6170  1.1188  0.7699
   36MOL   H92842998   4.510   2.021   4.606 -0.9560  0.7982 -1.3099
   36MOL   H92942999   4.354   2.028   4.682 -0.6977 -0.2878  0.9243
   36MOL   H93043000   4.415   2.272   4.764  1.2580  1.6101  0.0589
   36MOL   H93143001   4.568   2.259   4.693 -0.4854  0.1387 -1.9809
   36MOL   H93243002   4.461   2.218   4.465 -0.6725 -0.7384  0.1733
   36MOL   H93343003   4.308   2.258   4.528 -0.0930  0.5474  0.3224
   36MOL   H93443004   4.439   2.494   4.600  1.4917 -0.7181  1.5459
   36MOL   H93543005   4.389   2.461   4.439  0.2179  0.3202 -0.7008
   36MOL   H93643006   4.584   2.433   4.353 -0.2001 -0.8508  0.1312
   36MOL   H93743007   4.660   2.367   4.496  1.2148  0.0066 -0.3784
   36MOL   H93843008   4.761   2.592   4.470 -0.2879  2.5458 -1.6445
   36MOL   H93943009   4.657   2.601   4.603 -1.2504  0.3225  0.3153
   36MOL   H94043010   4.470   2.696   4.465 -0.9548  1.0183 -2.9972
   36MOL   H94143011   4.586   2.699   4.324  0.8651  1.2292 -0.4844
   36MOL   H94243012   4.622   2.861   4.595  0.5899 -1.4855 -0.3494
   36MOL   H94343013   4.721   2.859   4.457 -0.0002  0.9410  1.8276
   36MOL   H94443014   4.607   3.052   4.451 -0.5139 -0.2363  1.2745
   36MOL   H94543015   4.566   2.941   4.321  1.5827 -0.4885  0.1500
   36MOL   H94643016   4.156   3.050   4.521 -1.7170 -0.2508  2.0499
   36MOL   H94743017   4.219   3.138   4.661 -0.9943  1.1097 -1.2168
   36MOL   H94843018   4.129   2.948   4.762  2.4136  2.2910  1.3797
   36MOL   H94943019   4.287   2.936   4.776 -1.6422 -2.0596  1.4894
   36MOL   H95043020   4.297   2.785   4.568 -0.9577 -0.4036 -1.0556
   36MOL   H95143021   4.133   2.811   4.546  0.2642 -0.3256 -0.9640
   36MOL   H95243022   4.106   2.703   4.786 -0.4312 -1.1794 -0.6776
   36MOL   H95343023   4.268   2.634   4.760  1.3122  1.7240 -0.8769
   36MOL   H95443024   4.180   2.549   4.531  2.4950 -0.5947  1.9568
   36MOL   H95543025   4.128   2.473   4.671 -0.8637 -0.4322 -0.2908
   36MOL   H95643026   3.925   2.602   4.697  0.0679 -0.2166  0.3565
   36MOL   H95743027   3.958   2.680   4.534  1.0696  0.6084  0.9751
   36MOL   H95843028   3.927   2.384   4.563  0.0745  0.4215  0.9433
   36MOL   H95943029   3.971   2.465   4.431  0.4833  2.2411 -0.1379
   36MOL   H96043030   3.766   2.586   4.393 -0.8826  0.1801  0.0907
   36MOL   H96143031   3.724   2.424   4.438  2.6221 -2.1214  3.1840
   36MOL   O96243032   3.634   2.451   4.666  0.0124  0.3497  0.3766
   36MOL   C96343033   3.550   2.465   4.781 -0.2627 -0.7542  0.2593
   36MOL   C96443034   3.619   2.442   4.917  0.1839  0.9871  0.8544
   36MOL   C96543035   3.530   2.394   5.025  0.5921  0.5161 -0.6925
   36MOL   C96643036   3.418   2.495   5.047  0.4629 -0.1759 -0.2157
   36MOL   C96743037   3.312   2.444   5.144 -0.2402  0.6810  0.7703
   36MOL   C96843038   3.196   2.541   5.155 -0.7764 -0.3122 -0.6166
   36MOL   C96943039   3.110   2.497   5.276  0.1980 -0.9361 -0.9002
   36MOL   C97043040   2.972   2.564   5.276  0.1636 -0.1351  0.3448
   36MOL   C97143041   2.895   2.528   5.404 -0.0759  0.4226 -0.1278
   36MOL   C97243042   2.830   2.390   5.408 -0.4130 -0.0510 -0.4435
   36MOL   O97343043   2.728   2.380   5.309  0.2251 -0.0137  0.0815
   36MOL   C97443044   2.742   2.293   5.209 -1.0365  0.0113 -0.6201
   36MOL   O97543045   2.840   2.217   5.192  0.1459  0.4313 -0.1144
   36MOL   C97643046   2.626   2.295   5.104  0.2056  0.1719 -0.0636
   36MOL   C97743047   2.633   2.186   4.992 -0.2974 -0.3166 -0.4968
   36MOL   C97843048   2.514   2.184   4.887 -0.7067  0.2854  0.7531
   36MOL   C97943049   2.516   2.061   4.794 -0.7003 -0.1433  0.1933
   36MOL   C98043050   2.420   2.075   4.678 -0.0179  0.3042  0.6099
   36MOL   C98143051   2.391   1.934   4.614 -0.4138 -0.1413 -0.1147
   36MOL   C98243052   2.306   1.932   4.488 -0.3830 -0.0198  0.0444
   36MOL   C98343053   2.249   1.788   4.456  0.0148  0.3505 -0.0199
   36MOL   C98443054   2.129   1.738   4.532  0.4090 -0.0599  0.3006
   36MOL   O98543055   2.122   1.749   4.653  0.2730  0.2482  0.0929
   36MOL   H98643056   3.486   2.552   4.768  0.2542 -0.7567 -2.6303
   36MOL   H98743057   3.484   2.378   4.767  1.2587 -2.3157  2.4932
   36MOL   H98843058   3.709   2.382   4.902 -0.4927  0.1388  0.1195
   36MOL   H98943059   3.658   2.542   4.934  0.3323  0.9756  0.5877
   36MOL   H99043060   3.487   2.297   5.001 -1.8489  0.9917  1.4889
   36MOL   H99143061   3.584   2.367   5.116 -2.6285  2.4436  1.8912
   36MOL   H99243062   3.453   2.586   5.096  0.0423  0.6914 -1.4778
   36MOL   H99343063   3.366   2.525   4.956 -0.8239  2.4231  1.3222
   36MOL   H99443064   3.371   2.433   5.234 -0.1059  0.8077  0.6973
   36MOL   H99543065   3.269   2.349   5.110  0.4555  0.4569  0.5143
   36MOL   H99643066   3.139   2.544   5.063 -1.0849  2.4556 -0.3766
   36MOL   H99743067   3.229   2.643   5.178  1.9962 -1.3454  0.2837
   36MOL   H99843068   3.175   2.515   5.362  2.6500 -0.9847 -2.6646
   36MOL   H99943069   3.096   2.389   5.272 -1.9739 -0.7158  0.5028
   36MOL     H143070   2.910   2.543   5.189  0.2633  0.6448  0.0853
   36MOL     H243071   2.986   2.671   5.284  1.2904 -0.2761  0.2384
   36MOL     H343072   2.940   2.551   5.500 -0.7192 -0.8726  0.4884
   36MOL     H443073   2.810   2.596   5.402  0.8651  1.5969 -0.4473
   36MOL     H543074   2.902   2.308   5.406 -0.0578  0.2745 -1.3776
   36MOL     H643075   2.792   2.385   5.510 -0.0689 -1.7461 -0.3717
   36MOL     H743076   2.625   2.396   5.062 -0.1222 -0.5931 -1.9419
   36MOL     H843077   2.531   2.282   5.156  0.0935  0.0488 -0.3012
   36MOL     H943078   2.636   2.091   5.046 -0.8051 -0.1296 -0.1385
   36MOL    H1043079   2.731   2.186   4.944 -0.5504 -1.7395 -1.0501
   36MOL    H1143080   2.518   2.277   4.830  1.5672  0.3585  0.9756
   36MOL    H1243081   2.418   2.183   4.938 -0.0842 -0.1313  1.9269
   36MOL    H1343082   2.496   1.977   4.860  0.7289 -1.4408 -0.9967
   36MOL    H1443083   2.616   2.048   4.753 -0.5244  0.3022  0.4821
   36MOL    H1543084   2.330   2.124   4.716 -0.6022  0.8397 -1.3936
   36MOL    H1643085   2.471   2.139   4.606 -0.4122  0.9829  0.9278
   36MOL    H1743086   2.482   1.875   4.607  0.0965  0.7340 -1.0410
   36MOL    H1843087   2.337   1.886   4.696 -0.2545 -0.7380 -0.3580
   36MOL    H1943088   2.359   1.976   4.403 -0.2139 -0.2641  0.0257
   36MOL    H2043089   2.211   1.985   4.500  0.0293  0.4913  1.0893
   36MOL    H2143090   2.207   1.804   4.357 -0.6119  0.6988  0.2920
   36MOL    H2243091   2.328   1.713   4.454 -0.1989  0.0557  1.6788
   36MOL    O2343092   2.052   1.658   4.453 -0.2075 -0.4435 -0.4064
   36MOL    C2443093   1.951   1.586   4.513 -0.0977 -0.1728  0.7027
   36MOL    C2543094   1.870   1.514   4.406 -0.6021 -0.4951  0.2216
   36MOL    C2643095   1.777   1.603   4.327 -0.3169 -0.2126  0.5551
   36MOL    C2743096   1.672   1.682   4.399 -0.7130 -0.2587  0.2954
   36MOL    C2843097   1.595   1.775   4.309  0.2004 -0.4400 -0.0560
   36MOL    C2943098   1.510   1.873   4.412 -0.4796 -0.4051  0.3666
   36MOL    C3043099   1.410   1.966   4.345  0.0890 -0.7367  0.4034
   36MOL    C3143100   1.345   2.057   4.443  0.4981 -0.2236 -0.0454
   36MOL    C3243101   1.231   2.129   4.373 -0.1462  0.1403  0.0935
   36MOL    C3343102   1.103   2.039   4.363 -0.3481 -0.5344  0.0379
   36MOL    O3443103   0.994   2.124   4.342  0.2385 -0.3381  0.2267
   36MOL    C3543104   0.869   2.074   4.351  0.1876  0.6132  0.0281
   36MOL    O3643105   0.850   1.951   4.362 -0.8212  0.2502 -0.2673
   36MOL    C3743106   0.755   2.176   4.352  0.1116  0.0988 -0.7891
   36MOL    C3843107   0.794   2.314   4.413 -0.4743 -0.4527  0.4196
   36MOL    C3943108   0.859   2.307   4.553 -0.1444 -0.5155  0.0943
   36MOL    C4043109   0.840   2.432   4.642 -0.3823 -0.9146 -0.2566
   36MOL    C4143110   0.910   2.410   4.771 -0.5619  0.4475 -0.4318
   36MOL    C4243111   0.891   2.527   4.869  0.2351  0.4377 -0.9560
   36MOL    C4343112   0.950   2.503   5.006 -0.5047  0.0706  0.0485
   36MOL    C4443113   0.929   2.615   5.108 -0.0260 -0.1777 -0.2617
   36MOL    C4543114   1.038   2.720   5.098  0.3323 -0.0624 -0.0439
   36MOL    O4643115   1.020   2.836   5.050  0.2824  0.3330  0.6699
   36MOL    H4743116   1.993   1.515   4.584  1.7124 -0.9713 -1.1091
   36MOL    H4843117   1.888   1.648   4.577 -3.1555 -0.7974 -1.5687
   36MOL    H4943118   1.928   1.454   4.336 -1.1210 -2.0317  1.0941
   36MOL    H5043119   1.808   1.441   4.457 -1.2826  0.0344  0.1682
   36MOL    H5143120   1.836   1.679   4.276  1.5056 -0.4742  2.2225
   36MOL    H5243121   1.724   1.538   4.256 -0.7319  2.6068 -1.8318
   36MOL    H5343122   1.600   1.616   4.448  0.1313  1.2491  3.6754
   36MOL    H5443123   1.719   1.735   4.482  1.3038  0.2414 -1.1371
   36MOL    H5543124   1.521   1.712   4.261 -1.9943 -0.0381  2.6215
   36MOL    H5643125   1.654   1.815   4.227 -0.8367 -1.2107 -1.1866
   36MOL    H5743126   1.578   1.932   4.473 -3.0506  1.8104  1.1780
   36MOL    H5843127   1.460   1.805   4.480  0.6455 -2.5506 -0.8842
   36MOL    H5943128   1.333   1.913   4.289  1.9925 -2.8875 -0.2928
   36MOL    H6043129   1.463   2.036   4.280 -0.0457  0.3678  1.4589
   36MOL    H6143130   1.420   2.131   4.471 -1.1065  1.4189 -0.0091
   36MOL    H6243131   1.312   2.009   4.535 -0.7527  0.6562 -0.0167
   36MOL    H6343132   1.211   2.213   4.439 -0.3207  0.9946 -1.0255
   36MOL    H6443133   1.255   2.184   4.282 -3.3253  2.4913  0.5580
   36MOL    H6543134   1.106   1.969   4.280 -0.5733  0.8303 -1.1414
   36MOL    H6643135   1.091   1.976   4.451  0.2328 -0.8413 -0.0989
   36MOL    H6743136   0.666   2.130   4.394 -0.6653  1.6306 -0.7217
   36MOL    H6843137   0.715   2.187   4.252 -0.6041 -2.0873 -0.7792
   36MOL    H6943138   0.698   2.366   4.412  0.2076  0.7875 -1.3819
   36MOL    H7043139   0.861   2.360   4.341 -0.2375 -0.7230  0.4663
   36MOL    H7143140   0.964   2.297   4.527  0.7508 -0.3247  3.4307
   36MOL    H7243141   0.822   2.219   4.605 -0.9681  0.5952  1.4441
   36MOL    H7343142   0.736   2.458   4.661  0.0410  0.9284 -0.4150
   36MOL    H7443143   0.877   2.524   4.598 -1.8807 -0.4774 -0.6322
   36MOL    H7543144   0.874   2.320   4.820 -0.3428  0.2590 -0.6174
   36MOL    H7643145   1.018   2.400   4.763 -0.2814  0.9490  2.1472
   36MOL    H7743146   0.929   2.617   4.821  1.2038  1.5338  1.7832
   36MOL    H7843147   0.784   2.546   4.876  0.6018  1.8648  1.5677
   36MOL    H7943148   1.057   2.488   4.989 -0.5919  1.6182 -2.0112
   36MOL    H8043149   0.918   2.406   5.044 -0.3653  1.1340  3.0255
   36MOL    H8143150   0.837   2.664   5.076  0.9385  0.5876 -1.9517
   36MOL    H8243151   0.931   2.590   5.214 -0.1828  0.7653 -0.0259
   36MOL    O8343152   1.154   2.676   5.142 -0.1127  0.3222 -0.0333
   36MOL    C8443153   1.274   2.757   5.127  0.1302  0.0750 -0.0022
   36MOL    C8543154   1.342   2.777   5.266  0.2380  0.1076  0.1756
   36MOL    C8643155   1.266   2.865   5.366  0.1778  0.0914 -0.3866
   36MOL    C8743156   1.327   2.857   5.501 -0.4356  0.0450  0.1846
   36MOL    C8843157   1.256   2.948   5.608  0.4445  0.2370  0.3680
   36MOL    C8943158   1.309   2.926   5.752  0.1535  0.4303 -0.1023
   36MOL    C9043159   1.393   3.045   5.801  0.0792  0.0010  0.0777
   36MOL    C9143160   1.550   3.032   5.781  0.5206  0.1266 -0.2559
   36MOL    C9243161   1.626   3.160   5.826  0.6345  0.1539  0.1203
   36MOL    C9343162   1.638   3.252   5.702 -0.3608 -0.7624 -0.2668
   36MOL    O9443163   1.733   3.209   5.605 -0.1727 -0.7765 -0.6556
   36MOL    C9543164   1.807   3.302   5.547 -0.2562 -0.2595  0.1320
   36MOL    O9643165   1.792   3.421   5.567  0.0068 -0.6115  0.2624
   36MOL    C9743166   1.925   3.233   5.468 -0.6626  0.2479 -0.4403
   36MOL    C9843167   1.886   3.186   5.325  0.0718 -0.0747 -0.8142
   36MOL    C9943168   1.827   3.046   5.307  0.1609 -0.0777  0.3380
   36MOL   C10043169   1.829   3.023   5.160  0.2758 -0.2559 -0.2247
   36MOL   C10143170   1.777   2.883   5.135 -0.6799 -0.1885  0.1752
   36MOL   C10243171   1.756   2.846   4.990  0.4435 -0.0955  0.5212
   36MOL   C10343172   1.708   2.701   4.979  0.0132  0.3261 -0.0137
   36MOL   C10443173   1.686   2.658   4.830 -0.7593 -0.7556 -0.0324
   36MOL   C10543174   1.799   2.678   4.732 -0.4402 -0.7449  0.0183
   36MOL   O10643175   1.780   2.742   4.628 -0.3489  0.5206 -0.1326
   36MOL   H10743176   1.343   2.720   5.051 -0.3117  0.3243 -0.5283
   36MOL   H10843177   1.253   2.851   5.076 -1.2339 -1.1898 -1.8376
   36MOL   H10943178   1.350   2.678   5.311  0.5115 -0.2364 -0.6137
   36MOL   H11043179   1.442   2.821   5.258  0.3122 -0.0150  0.4355
   36MOL   H11143180   1.252   2.966   5.327 -1.4491 -0.1491 -0.4486
   36MOL   H11243181   1.171   2.814   5.372  1.3935 -2.0108  2.4983
   36MOL   H11343182   1.319   2.752   5.529 -0.7134  0.2064  0.7050
   36MOL   H11443183   1.432   2.881   5.489 -0.1679 -0.7211  0.9809
   36MOL   H11543184   1.152   2.916   5.610  0.7094 -0.9213 -2.1307
   36MOL   H11643185   1.253   3.052   5.575 -1.0880 -0.5693 -2.1284
   36MOL   H11743186   1.370   2.837   5.771 -0.5811  0.1595  1.0340
   36MOL   H11843187   1.229   2.918   5.825 -0.1827 -0.5220 -0.5689
   36MOL   H11943188   1.382   3.049   5.909  0.8684  0.0315  0.1631
   36MOL   H12043189   1.346   3.131   5.754  0.9841 -0.8406 -2.4803
   36MOL   H12143190   1.570   3.015   5.676 -0.9982  0.2542 -0.5781
   36MOL   H12243191   1.595   2.951   5.840  1.3139 -0.0765 -1.1344
   36MOL   H12343192   1.579   3.213   5.909 -1.4182 -1.4793  0.0469
   36MOL   H12443193   1.730   3.147   5.856  0.6915  0.5267  0.0803
   36MOL   H12543194   1.543   3.282   5.656  1.2386  1.6044 -2.2063
   36MOL   H12643195   1.674   3.345   5.747 -0.6926 -0.9637  0.4083
   36MOL   H12743196   1.967   3.154   5.530  0.0046  2.0668  1.4812
   36MOL   H12843197   2.012   3.298   5.455 -0.2070 -0.5316 -1.3761
   36MOL   H12943198   1.979   3.194   5.270 -0.4023 -1.9161 -1.9329
   36MOL   H13043199   1.808   3.248   5.282  0.2705  0.3303 -0.5860
   36MOL   H13143200   1.729   3.042   5.354 -0.0933 -0.5023 -0.2261
   36MOL   H13243201   1.887   2.974   5.362 -0.9579 -0.9189  0.4784
   36MOL   H13343202   1.929   3.021   5.117  0.6257  2.8168  0.3247
   36MOL   H13443203   1.768   3.096   5.106  1.3525 -0.2190 -1.3907
   36MOL   H13543204   1.834   2.807   5.190 -1.6085  0.2619  1.8088
   36MOL   H13643205   1.679   2.864   5.181 -1.0321 -1.3172 -1.0109
   36MOL   H13743206   1.694   2.920   4.940  0.9418 -0.4370 -0.6140
   36MOL   H13843207   1.854   2.845   4.943  0.0396 -0.7609 -0.3413
   36MOL   H13943208   1.612   2.695   5.030  0.3403  2.5522  0.9008
   36MOL   H14043209   1.779   2.631   5.022 -1.2940  0.5007  2.4878
   36MOL   H14143210   1.645   2.559   4.814 -0.6696 -0.9312  0.7974
   36MOL   H14243211   1.607   2.723   4.791  0.0792 -1.0989 -2.3441
   36MOL   O14343212   1.924   2.621   4.759  0.3294 -1.1898 -0.5343
   36MOL   C14443213   2.038   2.665   4.685 -0.3112 -0.2024 -1.0997
   36MOL   C14543214   2.111   2.776   4.752 -1.1115  0.4245 -0.0783
   36MOL   C14643215   2.131   2.762   4.901 -0.5623  0.0812 -0.8108
   36MOL   C14743216   2.205   2.890   4.953 -0.0873  1.1163 -0.6757
   36MOL   C14843217   2.213   2.892   5.105  0.4953 -0.4021 -0.2125
   36MOL   C14943218   2.283   3.021   5.154  1.0729  0.7330  0.0003
   36MOL   C15043219   2.306   3.032   5.302 -0.1341  0.4507  0.0366
   36MOL   C15143220   2.387   3.155   5.347  0.3418  0.5228  0.1748
   36MOL   C15243221   2.407   3.155   5.501 -0.3837 -0.2747 -0.5223
   36MOL   C15343222   2.539   3.228   5.542  0.3904  0.3526  0.8178
   36MOL   O15443223   2.534   3.361   5.482 -0.2627 -0.1447  0.3188
   36MOL   C15543224   2.633   3.442   5.520 -0.0752 -0.0212 -0.1128
   36MOL   O15643225   2.728   3.413   5.601  0.8659 -0.1756 -0.3205
   36MOL   C15743226   2.631   3.567   5.448  0.3694 -0.3374 -0.1632
   36MOL   C15843227   2.488   3.624   5.426 -0.7102  0.2404 -0.1628
   36MOL   C15943228   2.497   3.774   5.386 -0.1829 -0.8602  0.3800
   36MOL   C16043229   2.351   3.839   5.383  0.2123 -0.6490  0.2018
   36MOL   C16143230   2.360   3.989   5.344 -0.3551  0.6155  0.2223
   36MOL   C16243231   2.219   4.037   5.316  0.7354 -0.6351 -0.6778
   36MOL   C16343232   2.214   4.182   5.270  0.5439 -0.0002 -0.3829
   36MOL   C16443233   2.066   4.231   5.249  0.5216  0.4196 -0.2299
   36MOL   C16543234   2.007   4.303   5.377 -0.8330  0.5104  0.6295
   36MOL   O16643235   2.028   4.247   5.485 -0.1119  0.2976  1.0069
   36MOL   H16743236   2.106   2.584   4.659 -1.3169 -1.2534 -0.5494
   36MOL   H16843237   2.004   2.694   4.586 -2.3293  0.8489 -0.1293
   36MOL   H16943238   2.212   2.798   4.715 -1.4175  1.7993 -0.1156
   36MOL   H17043239   2.060   2.868   4.723 -2.6524 -0.0961  0.9482
   36MOL   H17143240   2.036   2.759   4.954  0.3507 -2.3529  0.7776
   36MOL   H17243241   2.175   2.664   4.922 -1.4554  0.2023  1.8262
   36MOL   H17343242   2.305   2.895   4.910  0.8319  0.2466  1.2798
   36MOL   H17443243   2.144   2.978   4.933  0.5955  1.5278 -0.9904
   36MOL   H17543244   2.261   2.798   5.133  0.9569  0.0725  0.6160
   36MOL   H17643245   2.111   2.890   5.144 -0.4838 -0.1667 -2.6736
   36MOL   H17743246   2.219   3.102   5.117 -1.9735 -1.5976 -0.0758
   36MOL   H17843247   2.380   3.021   5.105  0.3773  0.3641 -1.4237
   36MOL   H17943248   2.355   2.941   5.337  0.6870  1.0870  0.5618
   36MOL   H18043249   2.210   3.028   5.354  1.2156 -2.0529  2.4880
   36MOL   H18143250   2.344   3.251   5.320 -1.8855  0.3102  2.7569
   36MOL   H18243251   2.481   3.147   5.293  1.1740  0.6879  1.5974
   36MOL   H18343252   2.326   3.196   5.561  0.1345  0.3321 -0.2335
   36MOL   H18443253   2.412   3.050   5.531  2.8424 -0.8490 -2.8074
   36MOL   H18543254   2.544   3.236   5.650  1.0543 -2.5751  1.0377
   36MOL   H18643255   2.623   3.171   5.504 -0.4999 -0.8746  0.6560
   36MOL   H18743256   2.679   3.549   5.351 -0.9160  0.2563 -0.9329
   36MOL   H18843257   2.679   3.646   5.505  0.7038  0.3520 -1.3608
   36MOL   H18943258   2.421   3.621   5.512 -1.7108  0.4586 -0.9329
   36MOL   H19043259   2.434   3.577   5.344  0.6948 -1.0722 -0.3564
   36MOL   H19143260   2.543   3.796   5.290  1.2052 -0.2720  1.1724
   36MOL   H19243261   2.560   3.824   5.460 -0.1273 -2.0430  1.1507
   36MOL   H19343262   2.305   3.832   5.481  2.0469  0.9559  1.2190
   36MOL   H19443263   2.282   3.783   5.320 -3.0003 -0.2937  3.2711
   36MOL   H19543264   2.401   4.050   5.425 -0.0668 -0.7114  1.0977
   36MOL   H19643265   2.422   4.006   5.257 -0.7454  0.9982  0.0162
   36MOL   H19743266   2.171   3.963   5.251  1.2461 -0.2994 -1.4494
   36MOL   H19843267   2.152   4.031   5.401 -1.5873  1.2818 -2.2950
   36MOL   H19943268   2.272   4.204   5.181  3.9377 -0.1423  1.7055
   36MOL   H20043269   2.258   4.239   5.352  0.9393 -0.1256 -0.5099
   36MOL   H20143270   2.054   4.299   5.164 -1.3319  0.2080 -0.1704
   36MOL   H20243271   2.002   4.143   5.235  1.7255 -0.4653 -0.2954
   36MOL   H20343272   1.963   4.401   5.360 -0.2470  0.7132  0.2687
   37MOL     O143273   5.162   3.125   1.769  0.0267  0.6467 -0.2917
   37MOL     C243274   5.100   3.131   1.647 -0.1764 -0.5249  0.1554
   37MOL     C343275   5.198   3.172   1.538 -0.1451 -0.7183 -0.1015
   37MOL     C443276   5.312   3.073   1.523 -0.5102 -0.2249 -0.3490
   37MOL     C543277   5.417   3.103   1.417  0.5585  0.6725  0.0129
   37MOL     C643278   5.527   2.999   1.400  0.7397  0.2450  0.6890
   37MOL     C743279   5.484   2.886   1.296 -0.5666  0.6732  0.0420
   37MOL     C843280   5.605   2.807   1.239 -0.1524 -0.4715 -0.1395
   37MOL     C943281   5.572   2.665   1.202  0.5994  0.1004  0.2468
   37MOL    C1043282   5.693   2.591   1.136  0.4266  0.1285  0.4038
   37MOL    C1143283   5.805   2.565   1.228 -0.2509 -0.0274 -0.2181
   37MOL    O1243284   5.871   2.687   1.264 -0.3814  0.1699 -0.4766
   37MOL    C1343285   5.964   2.684   1.361  0.2176  0.1740  0.6709
   37MOL    O1443286   6.003   2.583   1.418 -0.1491 -0.1453  0.5385
   37MOL    C1543287   6.022   2.822   1.390 -0.6448  0.0807 -0.3123
   37MOL    C1643288   6.122   2.864   1.288  0.7818  0.3545 -0.2467
   37MOL    C1743289   6.106   3.010   1.251 -0.3385 -0.1177 -0.3277
   37MOL    C1843290   6.185   3.045   1.131 -0.2071 -0.0633  1.0221
   37MOL    C1943291   6.107   3.043   0.998  0.0263  0.9001  0.4138
   37MOL    C2043292   6.177   3.099   0.872  0.5127  0.4248  0.9748
   37MOL    C2143293   6.146   3.252   0.869  0.2607  0.2467  0.1165
   37MOL    C2243294   6.159   3.330   0.733  0.1219 -0.1072 -0.6369
   37MOL    C2343295   6.308   3.345   0.699  0.2695  0.4828 -0.0550
   37MOL    O2443296   6.361   3.296   0.597  0.1559 -0.4784 -0.4794
   37MOL    H2543297   5.058   3.033   1.626  0.2239 -0.6781  0.0596
   37MOL    H2643298   5.019   3.204   1.649 -0.0284 -0.1891 -3.2286
   37MOL    H2743299   5.135   3.183   1.450  0.1772  1.5086 -0.0645
   37MOL    H2843300   5.252   3.265   1.554  1.2735 -1.4184 -0.7089
   37MOL    H2943301   5.364   3.058   1.617 -1.7590 -0.6069  0.2916
   37MOL    H3043302   5.268   2.974   1.511  1.5523 -1.3631  1.2202
   37MOL    H3143303   5.349   3.122   1.335  0.6966 -0.2653 -0.3243
   37MOL    H3243304   5.459   3.200   1.445  0.3641  1.3505 -1.9747
   37MOL    H3343305   5.558   2.957   1.496  0.7878  0.9897  1.0024
   37MOL    H3443306   5.613   3.045   1.353 -0.8625 -0.4253 -3.0705
   37MOL    H3543307   5.430   2.928   1.212 -0.1984  1.7231  0.3163
   37MOL    H3643308   5.416   2.814   1.342 -0.3225  0.5908  0.2754
   37MOL    H3743309   5.681   2.806   1.317 -0.7207  2.4188  0.5066
   37MOL    H3843310   5.653   2.852   1.152 -0.3881 -0.8711 -0.4784
   37MOL    H3943311   5.477   2.666   1.147 -0.3067  1.1692  1.7863
   37MOL    H4043312   5.527   2.616   1.288  0.1930  0.2945  0.1494
   37MOL    H4143313   5.656   2.501   1.088  0.5356  0.2015  0.1814
   37MOL    H4243314   5.728   2.665   1.064 -0.8887  0.8156  0.4641
   37MOL    H4343315   5.774   2.517   1.321  0.2972 -0.2465 -0.1460
   37MOL    H4443316   5.877   2.502   1.176  1.0671  0.8592  0.4982
   37MOL    H4543317   6.059   2.831   1.492 -1.5101 -1.6293  0.1632
   37MOL    H4643318   5.936   2.889   1.384  0.1642  1.3347  1.6675
   37MOL    H4743319   6.111   2.798   1.202 -0.7690  2.7178 -1.9364
   37MOL    H4843320   6.223   2.850   1.327 -0.0572 -1.0375  1.4929
   37MOL    H4943321   6.143   3.056   1.343 -0.0746  0.6028 -0.7882
   37MOL    H5043322   6.004   3.042   1.230  0.1023  2.1354  0.8257
   37MOL    H5143323   6.266   2.973   1.124 -0.0150  0.3716 -1.7950
   37MOL    H5243324   6.225   3.146   1.146  0.4090  0.0493 -1.2162
   37MOL    H5343325   6.081   2.937   0.990 -0.4816  0.8179  2.7388
   37MOL    H5443326   6.006   3.084   1.007  1.4239  4.6844 -0.3400
   37MOL    H5543327   6.283   3.073   0.880  0.7086  1.0375  0.4206
   37MOL    H5643328   6.143   3.055   0.778  0.7887 -0.6868  1.3870
   37MOL    H5743329   6.202   3.305   0.946  1.3612  0.2827 -0.7098
   37MOL    H5843330   6.039   3.266   0.883  0.4758  1.7043  0.2970
   37MOL    H5943331   6.108   3.281   0.651 -2.7301  2.7709 -0.6666
   37MOL    H6043332   6.112   3.427   0.745 -0.2594 -0.3596 -0.0327
   37MOL    H6143333   5.221   3.052   1.777  1.9509  1.9654 -1.8704
   37MOL    O6243334   6.368   3.419   0.785  0.1259 -0.2758  0.1617
   37MOL    C6343335   6.512   3.428   0.785  0.7383 -0.0235 -0.4758
   37MOL    C6443336   6.564   3.441   0.927 -0.1262 -0.0160  0.1768
   37MOL    C6543337   6.712   3.483   0.938 -0.7579  0.5887  0.4488
   37MOL    C6643338   6.759   3.480   1.087 -0.1938  0.2269 -0.0940
   37MOL    C6743339   6.901   3.540   1.093  0.1444 -0.0413  0.2787
   37MOL    C6843340   6.963   3.522   1.231 -0.4238 -1.0977 -0.1152
   37MOL    C6943341   7.090   3.600   1.245  0.2514 -0.4627 -0.0922
   37MOL    C7043342   7.147   3.580   1.384  0.1801 -0.5549 -0.6031
   37MOL    C7143343   7.281   3.649   1.399  0.1205  0.1773 -0.8099
   37MOL    C7243344   7.351   3.612   1.530 -0.4064 -0.6624  0.6629
   37MOL    O7343345   7.404   3.486   1.511  0.1789  0.7108  0.5181
   37MOL    C7443346   7.526   3.459   1.447 -0.2487 -0.6523  0.3160
   37MOL    O7543347   7.598   3.540   1.389  0.4830  0.0165 -0.5928
   37MOL    C7643348   7.562   3.307   1.463 -0.1382  0.2344 -0.3877
   37MOL    C7743349   7.457   3.214   1.403  0.0092 -0.3163 -0.0092
   37MOL    C7843350   7.445   3.203   1.248 -0.5916 -0.0301 -0.0696
   37MOL    C7943351   7.318   3.123   1.201  0.7995  1.2308  0.3173
   37MOL    C8043352   7.187   3.199   1.195 -0.2397  0.1084  0.2260
   37MOL    C8143353   7.077   3.107   1.131 -0.1179 -0.2347  0.3250
   37MOL    C8243354   7.048   2.981   1.220 -0.8473  0.0971  0.2307
   37MOL    C8343355   6.935   2.890   1.172  0.1651 -0.0237 -0.3238
   37MOL    C8443356   6.952   2.740   1.214  0.4641 -0.1472  0.7237
   37MOL    O8543357   7.034   2.703   1.297 -0.0684  0.4642  0.2181
   37MOL    H8643358   6.557   3.334   0.752 -2.9489 -2.0789  0.0587
   37MOL    H8743359   6.544   3.508   0.718 -1.2158  0.9249 -0.3210
   37MOL    H8843360   6.498   3.518   0.967  0.2611  2.4737 -3.7149
   37MOL    H8943361   6.559   3.348   0.984 -0.8271 -0.7920 -1.1448
   37MOL    H9043362   6.783   3.426   0.878  0.5220  1.8227  0.7648
   37MOL    H9143363   6.715   3.585   0.898 -0.1037  0.2368 -0.4116
   37MOL    H9243364   6.693   3.553   1.134  0.5183  2.3099 -2.2265
   37MOL    H9343365   6.751   3.380   1.129 -0.6503 -0.8480 -2.7147
   37MOL    H9443366   6.902   3.646   1.068  0.5610  0.2022  1.3208
   37MOL    H9543367   6.961   3.486   1.020  0.0424  4.2699 -3.1960
   37MOL    H9643368   6.983   3.416   1.249  0.7690 -1.8401 -4.9532
   37MOL    H9743369   6.902   3.556   1.314  0.6563  1.1478 -0.2108
   37MOL    H9843370   7.071   3.707   1.233 -2.3254 -1.1238 -2.4212
   37MOL    H9943371   7.152   3.560   1.165  1.0872 -1.4102  1.0172
   37MOL   H10043372   7.170   3.475   1.400 -1.5856 -0.7571  0.7551
   37MOL   H10143373   7.072   3.611   1.457 -1.4465 -2.2357 -1.5267
   37MOL   H10243374   7.338   3.639   1.306  1.9991  0.4724  0.2910
   37MOL   H10343375   7.258   3.755   1.411  0.9027  0.3112 -0.4958
   37MOL   H10443376   7.438   3.677   1.543  0.0105 -0.8163 -1.1782
   37MOL   H10543377   7.301   3.619   1.626  2.0162 -0.3317  1.9336
   37MOL   H10643378   7.579   3.287   1.569 -0.6007  1.8488  0.0063
   37MOL   H10743379   7.658   3.290   1.415  0.0732 -2.4983  0.8943
   37MOL   H10843380   7.363   3.228   1.456  0.3815  0.0547  0.5660
   37MOL   H10943381   7.488   3.113   1.429  1.2977  0.2767  0.8079
   37MOL   H11043382   7.537   3.158   1.211 -0.9261  2.4111 -4.1173
   37MOL   H11143383   7.441   3.294   1.189  1.4751  0.7242  0.8995
   37MOL   H11243384   7.318   3.042   1.274 -0.4164 -0.9288 -1.9730
   37MOL   H11343385   7.341   3.089   1.100  2.1142  3.4308 -0.1342
   37MOL   H11443386   7.143   3.231   1.289 -1.0297 -1.6482  0.4739
   37MOL   H11543387   7.197   3.291   1.137 -0.0191  0.2789  0.5294
   37MOL   H11643388   6.983   3.161   1.119 -0.4736 -0.4095  2.1846
   37MOL   H11743389   7.118   3.073   1.036  0.1860 -2.5806  1.2628
   37MOL   H11843390   7.043   3.000   1.327 -0.4215  0.8592  0.1137
   37MOL   H11943391   7.137   2.920   1.208  1.0266  2.8144 -0.0701
   37MOL   H12043392   6.839   2.928   1.204 -0.2588  0.2819 -1.8825
   37MOL   H12143393   6.915   2.888   1.065 -0.2400 -0.1951 -0.2437
   37MOL   O12243394   6.874   2.662   1.136 -0.6567 -0.3050  0.2257
   37MOL   C12343395   6.892   2.527   1.137 -0.4625  1.0793  0.2338
   37MOL   C12443396   6.778   2.480   1.243  0.8435  0.0559 -0.1268
   37MOL   C12543397   6.836   2.427   1.374 -0.0744 -0.0904  0.5581
   37MOL   C12643398   6.732   2.370   1.465 -0.1690 -0.6222  0.2486
   37MOL   C12743399   6.790   2.320   1.604 -0.4616  0.0800 -0.1688
   37MOL   C12843400   6.689   2.337   1.724 -0.5306 -0.0676 -0.1232
   37MOL   C12943401   6.550   2.271   1.698  0.3024  0.3648 -0.4200
   37MOL   C13043402   6.472   2.256   1.824 -0.2309  0.1303  0.1103
   37MOL   C13143403   6.346   2.171   1.812  0.3310  0.0326  0.2491
   37MOL   C13243404   6.264   2.150   1.938  0.1025 -0.0847  0.7687
   37MOL   O13343405   6.160   2.060   1.909 -0.0708 -0.6768 -1.0737
   37MOL   C13443406   6.074   2.019   2.011 -0.2364  0.0103  0.1484
   37MOL   O13543407   6.076   2.056   2.128  0.2092  0.0363  0.5159
   37MOL   C13643408   5.973   1.912   1.969 -0.3062 -0.0183 -0.2850
   37MOL   C13743409   5.852   1.959   1.882 -0.1039  0.5901  0.4472
   37MOL   C13843410   5.791   1.853   1.785 -0.0119 -0.4115  0.5609
   37MOL   C13943411   5.657   1.913   1.729  0.0634 -0.1359 -0.8987
   37MOL   C14043412   5.586   1.806   1.650 -0.2214  0.2198 -0.3056
   37MOL   C14143413   5.460   1.848   1.576  0.2357  0.1366 -0.0484
   37MOL   C14243414   5.493   1.932   1.454 -0.5171 -0.3535  0.4648
   37MOL   C14343415   5.382   1.958   1.348 -0.3442  0.3452 -0.2707
   37MOL   C14443416   5.371   1.843   1.249 -0.1384 -0.1453 -0.1427
   37MOL   O14543417   5.279   1.849   1.168 -0.3843  0.0817  0.1704
   37MOL   H14643418   6.859   2.500   1.037  0.9964 -1.2690  0.3537
   37MOL   H14743419   6.994   2.502   1.168 -0.2473  0.4291 -0.9748
   37MOL   H14843420   6.701   2.557   1.251 -0.9310 -1.7789  0.9409
   37MOL   H14943421   6.723   2.402   1.191 -1.1557  1.4396 -0.1413
   37MOL   H15043422   6.900   2.343   1.347  1.0155  1.2126 -1.0223
   37MOL   H15143423   6.895   2.506   1.420  0.7188 -0.8246  0.8063
   37MOL   H15243424   6.650   2.438   1.489 -1.0669 -1.6158  0.0412
   37MOL   H15343425   6.678   2.290   1.414 -1.9150 -0.1360  1.3009
   37MOL   H15443426   6.874   2.378   1.640 -0.0086 -0.5846 -0.1550
   37MOL   H15543427   6.821   2.215   1.606 -0.7603 -0.0161 -0.5075
   37MOL   H15643428   6.676   2.441   1.756 -0.0136 -0.9359  3.0232
   37MOL   H15743429   6.733   2.293   1.813 -0.4741  1.4478  0.6218
   37MOL   H15843430   6.552   2.172   1.652 -1.7086 -0.3117  0.8842
   37MOL   H15943431   6.486   2.342   1.646  1.3995  0.8192 -1.1617
   37MOL   H16043432   6.438   2.351   1.867 -0.7272 -1.0378  2.3775
   37MOL   H16143433   6.543   2.224   1.900  1.9640  4.5029  0.0912
   37MOL   H16243434   6.275   2.212   1.740 -0.2378 -1.8990 -0.3202
   37MOL   H16343435   6.373   2.076   1.766 -0.8137  0.6553 -1.7443
   37MOL   H16443436   6.321   2.092   2.011 -0.4894 -1.2340  0.3348
   37MOL   H16543437   6.227   2.243   1.981  1.6391  1.5317 -1.3230
   37MOL   H16643438   5.934   1.869   2.061  1.8873  1.6646  1.4928
   37MOL   H16743439   6.022   1.840   1.904  0.6471  1.5150 -1.3055
   37MOL   H16843440   5.896   2.040   1.823 -1.6182  1.9453  1.1422
   37MOL   H16943441   5.775   2.011   1.939  1.0901  1.5331  1.2039
   37MOL   H17043442   5.774   1.760   1.839  1.7762  0.3432  2.4788
   37MOL   H17143443   5.860   1.842   1.701 -0.3959  1.2901  0.0072
   37MOL   H17243444   5.677   2.002   1.668  1.6292  0.5299  0.5361
   37MOL   H17343445   5.587   1.934   1.809  1.8878 -3.6196  1.7169
   37MOL   H17443446   5.660   1.763   1.582  1.5874 -0.7241  2.1704
   37MOL   H17543447   5.563   1.730   1.726  1.4229  0.8054  0.8091
   37MOL   H17643448   5.418   1.763   1.522  1.2112 -0.3510 -0.0604
   37MOL   H17743449   5.392   1.899   1.644 -0.4061 -1.0805  0.2405
   37MOL   H17843450   5.590   1.911   1.410 -1.4279 -2.7243 -0.4876
   37MOL   H17943451   5.509   2.032   1.495 -0.8386 -0.3999  0.7033
   37MOL   H18043452   5.289   1.965   1.403 -0.7787 -0.3030 -0.9157
   37MOL   H18143453   5.382   2.051   1.292 -2.7819  0.1861 -0.5819
   37MOL   O18243454   5.469   1.751   1.256 -0.4596 -0.0583  0.3230
   37MOL   C18343455   5.468   1.648   1.156  0.1936  0.6116 -0.1492
   37MOL   C18443456   5.559   1.544   1.218  0.2406 -0.4181 -0.4299
   37MOL   C18543457   5.561   1.420   1.129 -0.7353 -0.4404  0.0329
   37MOL   C18643458   5.444   1.325   1.149 -0.2202 -0.1549  0.5683
   37MOL   C18743459   5.430   1.216   1.042  0.0558 -0.1641 -0.2469
   37MOL   C18843460   5.294   1.168   1.001 -0.5529 -0.3739 -0.1693
   37MOL   C18943461   5.296   1.050   0.906 -0.4651  1.1450  0.0584
   37MOL   C19043462   5.159   1.028   0.834  0.2021 -0.0637 -0.0397
   37MOL   C19143463   5.155   0.901   0.753 -0.2221  0.0317 -0.1875
   37MOL   C19243464   5.066   0.904   0.634  0.3939  0.2069  0.9152
   37MOL   O19343465   5.082   0.776   0.577  0.2051 -0.5055  0.0811
   37MOL   C19443466   5.015   0.736   0.467 -0.7593 -1.4480  0.6296
   37MOL   O19543467   4.936   0.806   0.406  0.4526  0.1801  0.0829
   37MOL   C19643468   5.067   0.604   0.412  0.0726 -0.0800  0.4637
   37MOL   C19743469   5.108   0.619   0.266  0.2397  0.3244  0.0343
   37MOL   C19843470   5.231   0.706   0.249 -0.0887 -0.2006  0.0878
   37MOL   C19943471   5.292   0.690   0.109 -0.0464  0.1477 -0.0363
   37MOL   C20043472   5.222   0.772   0.009  0.6298 -0.2506  0.4715
   37MOL   C20143473   5.206   0.716   7.624 -0.0261 -0.3633  0.1065
   37MOL   C20243474   5.185   0.830   7.518 -0.1133 -0.1157  0.0465
   37MOL   C20343475   5.041   0.884   7.508  0.4542 -0.3131  0.0081
   37MOL   C20443476   4.965   0.947   7.628  0.8242 -0.1478 -0.6496
   37MOL   O20543477   4.843   0.935   7.631 -0.2671  0.1026  0.1091
   37MOL   H20643478   5.365   1.612   1.151  0.0935  0.9122 -0.2832
   37MOL   H20743479   5.497   1.672   1.054  0.0061  1.3784 -0.0246
   37MOL   H20843480   5.659   1.588   1.225  0.1038  0.0316 -1.2534
   37MOL   H20943481   5.527   1.523   1.320  0.6350 -0.4744 -0.3160
   37MOL   H21043482   5.572   1.465   1.030  1.1439 -0.1452  0.3397
   37MOL   H21143483   5.654   1.363   1.140 -1.2381 -1.2657 -0.0020
   37MOL   H21243484   5.448   1.274   1.246 -1.0503  1.7141  1.6094
   37MOL   H21343485   5.353   1.385   1.152 -0.0045  0.2241 -0.4807
   37MOL   H21443486   5.491   1.133   1.080  0.5462 -0.6688 -2.1098
   37MOL   H21543487   5.476   1.247   0.948  2.1032  1.6953  1.2999
   37MOL   H21643488   5.251   1.254   0.948  0.4479 -0.9257 -1.9058
   37MOL   H21743489   5.227   1.144   1.083  0.4872 -0.2724  0.7056
   37MOL   H21843490   5.323   0.966   0.970  1.6078  1.7071 -0.0330
   37MOL   H21943491   5.379   1.062   0.836  0.4745 -3.6012  0.1327
   37MOL   H22043492   5.144   1.113   0.768  1.5036  0.0453 -0.2031
   37MOL   H22143493   5.086   1.008   0.912 -0.4227 -1.2889 -0.9173
   37MOL   H22243494   5.251   0.888   0.703 -1.1877 -1.3874 -1.7650
   37MOL   H22343495   5.134   0.808   0.806 -0.8162 -0.3492 -1.0727
   37MOL   H22443496   4.962   0.915   0.663  0.4484  0.0338  1.1768
   37MOL   H22543497   5.106   0.980   0.567 -0.2680 -0.5128 -0.3163
   37MOL   H22643498   4.996   0.522   0.411  0.4951 -0.4978  2.5877
   37MOL   H22743499   5.147   0.570   0.479 -1.4219 -3.5213  0.6153
   37MOL   H22843500   5.028   0.657   0.204  0.5910  2.1605  0.6829
   37MOL   H22943501   5.123   0.517   0.230 -1.4479  0.4836 -1.1543
   37MOL   H23043502   5.311   0.675   0.317  2.7918  1.0177 -2.5955
   37MOL   H23143503   5.203   0.809   0.271 -0.7309  0.2980 -2.9243
   37MOL   H23243504   5.286   0.584   0.084 -3.5685  0.1699  0.4793
   37MOL   H23343505   5.397   0.718   0.105  0.1363 -0.8159 -2.6683
   37MOL   H23443506   5.124   0.799   0.050  0.4305  0.8842 -0.7127
   37MOL   H23543507   5.281   0.864   0.009 -0.0136  0.1902 -1.8879
   37MOL   H23643508   5.304   0.673   7.603 -0.5215 -2.4564  1.9257
   37MOL   H23743509   5.141   0.630   7.613 -0.6844  0.1150  0.2375
   37MOL   H23843510   5.230   0.797   7.424  1.1224  0.4997  0.4037
   37MOL   H23943511   5.257   0.910   7.538 -0.1055 -0.3592  1.0052
   37MOL   H24043512   5.031   0.949   7.421  1.9137  0.7556  0.6157
   37MOL   H24143513   4.977   0.802   7.477 -2.0818  0.6070  2.5410
   37MOL   O24243514   5.046   1.022   7.706  0.5741 -0.3365 -0.1091
   37MOL   C24343515   4.981   1.102   0.057 -0.4621 -1.0200  0.0876
   37MOL   C24443516   4.933   1.243   0.013 -0.0429  0.0990 -0.1305
   37MOL   C24543517   4.900   1.353   0.117  0.5956  0.1653  0.1198
   37MOL   C24643518   4.861   1.487   0.054 -0.8220  0.6781  0.4606
   37MOL   C24743519   4.821   1.597   0.148 -1.2940  0.8102 -0.6718
   37MOL   C24843520   4.735   1.710   0.094  0.0026 -0.0801  0.2310
   37MOL   C24943521   4.814   1.798   0.002  0.5062  0.2527 -0.4963
   37MOL   C25043522   4.734   1.916   7.705  1.0804  0.0269  0.7756
   37MOL   C25143523   4.832   2.010   7.631 -0.6179  0.7195 -0.1475
   37MOL   C25243524   4.774   2.139   7.586 -0.4483  0.0481  0.1321
   37MOL   O25343525   4.869   2.229   7.533  0.6436 -0.4961  0.1233
   37MOL   C25443526   4.907   2.335   7.610 -0.9002 -0.7484 -0.1208
   37MOL   O25543527   4.876   2.358   7.728  0.0561 -0.0584 -0.1109
   37MOL   C25643528   5.005   2.430   7.538 -0.6301  0.0393 -0.1558
   37MOL   C25743529   4.982   2.580   7.581  0.2983 -0.2296  0.4093
   37MOL   C25843530   4.848   2.645   7.538  0.4848  0.1155  0.4724
   37MOL   C25943531   4.839   2.796   7.575 -0.5562  0.2013  0.4435
   37MOL   C26043532   4.732   2.871   7.503  0.0040 -0.5612  0.1285
   37MOL   C26143533   4.713   3.015   7.559 -0.5688 -0.3029  0.3348
   37MOL   C26243534   4.619   3.096   7.463 -0.3208  1.1446 -0.1668
   37MOL   C26343535   4.598   3.239   7.509  0.1501 -1.0393 -0.7453
   37MOL   C26443536   4.477   3.246   7.612 -0.6012  0.0960 -0.3301
   37MOL   O26543537   4.365   3.285   7.582 -0.4514  0.1288 -0.3374
   37MOL   H26643538   4.917   1.048   0.127 -0.3084 -2.9736 -1.2606
   37MOL   H26743539   5.068   1.124   0.119 -0.1404  3.6381 -1.8267
   37MOL   H26843540   5.012   1.280   7.704  1.8821  1.8123  3.0394
   37MOL   H26943541   4.848   1.215   7.708  1.3684 -1.1510 -1.5627
   37MOL   H27043542   4.817   1.320   0.180  1.3759  0.0510  1.0974
   37MOL   H27143543   4.986   1.357   0.184  2.1832 -4.1947 -1.4465
   37MOL   H27243544   4.948   1.516   7.753 -0.3507 -2.7514 -0.6926
   37MOL   H27343545   4.778   1.476   7.740  0.0437  0.6725 -0.5649
   37MOL   H27443546   4.909   1.642   0.194 -0.1765  1.1649 -3.0479
   37MOL   H27543547   4.770   1.545   0.229 -1.8432 -0.2177 -1.6725
   37MOL   H27643548   4.689   1.772   0.171  2.8955  2.9093 -0.3335
   37MOL   H27743549   4.647   1.665   0.048  0.6981 -0.4340 -0.7638
   37MOL   H27843550   4.851   1.746   7.671 -1.6452 -1.1204 -0.6532
   37MOL   H27943551   4.896   1.832   0.065 -0.8059 -0.1874  1.5210
   37MOL   H28043552   4.681   1.978   0.021 -0.2655  0.3979 -0.4825
   37MOL   H28143553   4.648   1.883   7.646  1.9632  3.7722 -2.8061
   37MOL   H28243554   4.913   2.036   7.700 -0.3979 -1.1080  0.2996
   37MOL   H28343555   4.884   1.968   7.545  1.1489  1.1201  0.6831
   37MOL   H28443556   4.713   2.093   7.509  2.4547 -2.3195 -0.8551
   37MOL   H28543557   4.721   2.183   7.670  2.6054  1.2106  1.5277
   37MOL   H28643558   4.987   2.407   7.433  2.7355  1.2128 -1.0488
   37MOL   H28743559   5.107   2.401   7.563 -0.0263  1.5781 -0.7748
   37MOL   H28843560   5.057   2.637   7.526  0.1796 -1.3283 -0.9170
   37MOL   H28943561   5.006   2.603   7.685  0.1854 -0.9935  0.6052
   37MOL   H29043562   4.760   2.586   7.564  0.5326 -0.9577 -1.6995
   37MOL   H29143563   4.855   2.634   7.429 -1.4240 -1.5229  0.4828
   37MOL   H29243564   4.938   2.834   7.550 -0.2437 -0.5959  0.4484
   37MOL   H29343565   4.825   2.812   7.682  1.1582 -1.5528  0.9508
   37MOL   H29443566   4.749   2.872   7.395  1.7030  0.6247  0.3798
   37MOL   H29543567   4.637   2.820   7.520 -1.3636  1.6954 -0.5412
   37MOL   H29643568   4.667   3.005   7.658 -0.1694 -0.3124  0.5208
   37MOL   H29743569   4.808   3.067   7.562 -0.4183 -0.4831 -1.0229
   37MOL   H29843570   4.521   3.051   7.445  0.0785  1.0348 -2.2737
   37MOL   H29943571   4.659   3.101   7.361 -0.4048  1.8014 -0.1669
   37MOL   H30043572   4.688   3.280   7.555 -1.6789  0.7662  1.3763
   37MOL   H30143573   4.577   3.295   7.418 -0.3101 -0.1972 -0.1287
   37MOL   O30243574   4.509   3.199   7.739 -0.4046 -0.2522  0.1609
   37MOL   C30343575   4.416   3.205   0.088 -0.2871  0.0457  0.1777
   37MOL   C30443576   4.431   3.086   0.193 -0.1255 -0.3355 -0.1286
   37MOL   C30543577   4.568   3.072   0.260  0.7848  0.1850 -0.0535
   37MOL   C30643578   4.575   2.973   0.383 -0.4387  0.4397  0.0140
   37MOL   C30743579   4.711   2.956   0.458  0.0054  0.2042 -0.1477
   37MOL   C30843580   4.828   2.920   0.362  0.0463  0.5322 -0.5745
   37MOL   C30943581   4.949   2.863   0.447 -0.3584  0.3347  0.1884
   37MOL   C31043582   5.077   2.861   0.362 -0.2459 -0.0734 -0.0988
   37MOL   C31143583   5.199   2.813   0.435 -0.0593  0.7414  0.0895
   37MOL   C31243584   5.248   2.894   0.558  0.3841  0.2831  0.0219
   37MOL   O31343585   5.377   2.856   0.611  0.5251  0.8410 -0.7497
   37MOL   C31443586   5.396   2.802   0.735  0.8425  0.8178  0.1890
   37MOL   O31543587   5.301   2.780   0.808  0.2446  0.0200  0.6001
   37MOL   C31643588   5.547   2.763   0.755  0.4476 -0.2077 -0.0622
   37MOL   C31743589   5.647   2.885   0.742 -0.3916  0.2151 -0.5018
   37MOL   C31843590   5.609   2.992   0.843 -0.0549  1.0051  0.0826
   37MOL   C31943591   5.727   3.098   0.869  0.5726 -0.1579 -0.4149
   37MOL   C32043592   5.695   3.192   0.987  0.0210 -0.9192  0.8913
   37MOL   C32143593   5.609   3.312   0.941 -0.2434  0.6098 -0.7963
   37MOL   C32243594   5.570   3.392   1.068  0.3869 -0.8383  0.2511
   37MOL   C32343595   5.478   3.316   1.170 -0.1480  0.0063  0.1693
   37MOL   C32443596   5.340   3.280   1.115  0.0954  0.0202 -0.3203
   37MOL   O32543597   5.249   3.361   1.117 -0.6003  0.1276 -0.0691
   37MOL   H32643598   4.415   3.297   0.147 -1.7696  0.8985 -1.1396
   37MOL   H32743599   4.318   3.197   0.040  1.1269  0.1829 -2.8407
   37MOL   H32843600   4.349   3.101   0.263 -0.3558 -1.5327 -0.1375
   37MOL   H32943601   4.414   2.986   0.152 -0.7606  0.2383 -1.2912
   37MOL   H33043602   4.650   3.041   0.195 -0.1800 -2.1167 -0.2151
   37MOL   H33143603   4.602   3.173   0.282  2.6494 -0.0946 -1.5149
   37MOL   H33243604   4.520   3.016   0.467 -0.6854 -1.0078  0.6201
   37MOL   H33343605   4.521   2.882   0.358  1.7675 -1.6061  2.3286
   37MOL   H33443606   4.708   2.888   0.544 -0.0563  0.6933  0.2389
   37MOL   H33543607   4.740   3.053   0.499  1.1673  0.5877 -1.7983
   37MOL   H33643608   4.864   3.009   0.311  0.1583  0.7719 -0.0805
   37MOL   H33743609   4.789   2.842   0.296 -0.1523 -0.3434  0.5655
   37MOL   H33843610   4.925   2.762   0.481 -1.6861  0.2865 -0.8433
   37MOL   H33943611   4.968   2.936   0.526  0.1517  0.3645  0.0414
   37MOL   H34043612   5.098   2.958   0.316  1.1984 -0.5221 -0.4006
   37MOL   H34143613   5.066   2.795   0.276 -2.9140  1.6687 -1.1868
   37MOL   H34243614   5.188   2.706   0.456  0.7422  0.5137 -0.6492
   37MOL   H34343615   5.283   2.814   0.367  1.3577  1.2644  1.8117
   37MOL   H34443616   5.255   2.995   0.517  1.2872  0.5743  0.8973
   37MOL   H34543617   5.166   2.897   0.631 -0.5820  0.7615 -1.0612
   37MOL   H34643618   5.569   2.687   0.680 -1.4735  0.2318 -1.1114
   37MOL   H34743619   5.565   2.714   0.851 -2.8643  0.8615  1.1566
   37MOL   H34843620   5.659   2.911   0.636 -1.3104  1.3658 -0.3282
   37MOL   H34943621   5.744   2.839   0.764  0.6188  2.8494  0.6513
   37MOL   H35043622   5.581   2.940   0.934  2.6981  0.9076  0.9394
   37MOL   H35143623   5.514   3.043   0.828 -0.7352 -0.0680  0.6974
   37MOL   H35243624   5.755   3.156   0.782  1.7032  1.3889  0.9474
   37MOL   H35343625   5.819   3.045   0.894 -0.8077 -1.9598  1.0548
   37MOL   H35443626   5.646   3.130   1.062 -1.9068 -1.9758 -1.1716
   37MOL   H35543627   5.780   3.234   1.041  1.3754  1.0656 -2.6209
   37MOL   H35643628   5.653   3.375   0.864  0.9276 -0.5265 -1.0912
   37MOL   H35743629   5.515   3.279   0.896 -0.0678 -1.7765  0.4887
   37MOL   H35843630   5.505   3.477   1.050 -0.6642 -1.7452 -0.3644
   37MOL   H35943631   5.654   3.433   1.123  0.7424  1.3515 -1.8757
   37MOL   H36043632   5.531   3.226   1.199 -0.0441 -0.3768 -1.1556
   37MOL   H36143633   5.465   3.379   1.258 -1.5629 -1.9865  1.4168
   37MOL   O36243634   5.317   3.162   1.075  0.3642  0.2110  0.4143
   37MOL   C36343635   5.190   3.121   1.017 -0.7934 -0.2293  0.5261
   37MOL   C36443636   5.186   3.157   0.866  0.5203 -0.5050  0.1823
   37MOL   C36543637   5.056   3.106   0.801  0.4499  0.0892 -0.2692
   37MOL   C36643638   4.924   3.179   0.831 -0.0183  0.4338 -0.2571
   37MOL   C36743639   4.812   3.164   0.726  0.0044 -0.5478  0.0243
   37MOL   C36843640   4.676   3.228   0.775  0.9871  0.0785 -0.0934
   37MOL   C36943641   4.582   3.248   0.652  0.2132 -0.0452  1.5241
   37MOL   C37043642   4.486   3.360   0.670 -0.0707 -0.1386 -0.9694
   37MOL   C37143643   4.394   3.386   0.552  0.3268 -0.4297 -0.2539
   37MOL   C37243644   4.350   3.530   0.536  0.7576  1.1761 -0.6929
   37MOL   O37343645   4.268   3.537   0.420  0.4797 -0.6165 -0.5078
   37MOL   C37443646   4.317   3.597   0.313 -0.0778  0.4336 -0.0196
   37MOL   O37543647   4.428   3.645   0.296 -0.1945  0.3819 -0.7124
   37MOL   C37643648   4.222   3.570   0.189 -0.0947 -0.4915  0.2143
   37MOL   C37743649   4.143   3.440   0.195 -0.0481  0.2483 -0.4278
   37MOL   C37843650   4.065   3.432   0.065 -0.3214 -0.3127  0.4122
   37MOL   C37943651   3.984   3.302   0.058  0.3548  0.7098 -0.2784
   37MOL   C38043652   3.938   3.272   7.671  0.1149  0.2258  0.6508
   37MOL   C38143653   3.827   3.164   7.660  0.3848 -0.7447 -0.2845
   37MOL   C38243654   3.787   3.158   7.512  0.8611 -0.6921  0.7200
   37MOL   C38343655   3.707   3.026   7.478  0.8543  0.7791 -0.4914
   37MOL   C38443656   3.793   2.892   7.474  0.2369 -0.5010 -0.1232
   37MOL   O38543657   3.767   2.809   7.557 -0.4394  0.4119  0.2552
   37MOL   H38643658   5.171   3.014   1.031 -0.5871 -0.7180 -2.4416
   37MOL   H38743659   5.112   3.168   1.076 -1.5610  1.0139 -1.4205
   37MOL   H38843660   5.190   3.265   0.851 -0.8182 -0.4031  0.5293
   37MOL   H38943661   5.274   3.119   0.814  0.0694  0.3880 -1.2541
   37MOL   H39043662   5.068   3.120   0.694  1.9118 -0.0395 -0.1339
   37MOL   H39143663   5.040   3.002   0.830  0.4643 -0.0788 -0.8480
   37MOL   H39243664   4.896   3.145   0.931 -3.4155  2.1058 -0.5585
   37MOL   H39343665   4.940   3.286   0.845  0.0033  0.4904 -0.7058
   37MOL   H39443666   4.795   3.059   0.703 -1.5535 -0.2688 -0.1263
   37MOL   H39543667   4.845   3.209   0.633  1.5503 -2.6253 -0.4792
   37MOL   H39643668   4.701   3.321   0.826 -1.8045  0.1939  1.1390
   37MOL   H39743669   4.629   3.165   0.850 -0.3760 -0.7313 -1.5958
   37MOL   H39843670   4.523   3.157   0.645 -0.3569  0.4298  0.0160
   37MOL   H39943671   4.639   3.247   0.559 -0.8179  1.9384  0.8499
   37MOL   H40043672   4.560   3.440   0.679 -2.1857  1.7686 -0.2012
   37MOL   H40143673   4.431   3.353   0.764  2.9462 -0.5554  0.8316
   37MOL   H40243674   4.453   3.368   0.462  0.4238 -0.1331 -0.2505
   37MOL   H40343675   4.308   3.319   0.553 -1.0786  1.3086  2.5458
   37MOL   H40443676   4.294   3.554   0.627 -1.3390  0.2408 -1.7082
   37MOL   H40543677   4.426   3.608   0.538 -0.1258  2.0276  0.4601
   37MOL   H40643678   4.285   3.573   0.099  1.0092  1.6842  1.0126
   37MOL   H40743679   4.158   3.657   0.174 -1.1676 -1.3570 -0.2224
   37MOL   H40843680   4.087   3.438   0.288 -0.3128 -1.1470 -0.5996
   37MOL   H40943681   4.212   3.355   0.191  0.5060  0.6480  0.3928
   37MOL   H41043682   4.131   3.445   7.736 -0.8811 -1.7887 -0.2422
   37MOL   H41143683   3.986   3.505   0.047  0.1801 -0.5294 -3.0713
   37MOL   H41243684   3.899   3.318   0.124  1.5274  4.0952  0.5212
   37MOL   H41343685   4.047   3.220   0.091 -0.5429  0.5403  1.0722
   37MOL   H41443686   3.890   3.365   7.639  0.0902  0.3317  0.9909
   37MOL   H41543687   4.031   3.246   7.621 -1.8907 -2.9945 -1.5707
   37MOL   H41643688   3.863   3.064   7.682  2.1036 -0.0082  0.3373
   37MOL   H41743689   3.748   3.184   7.732  1.9474 -0.5197  1.3811
   37MOL   H41843690   3.868   3.178   7.442 -0.5256  0.9735 -0.4693
   37MOL   H41943691   3.725   3.247   7.496  0.0807 -1.5700 -1.3771
   37MOL   H42043692   3.612   3.022   7.531  0.4329 -1.4458 -1.3683
   37MOL   H42143693   3.669   3.035   7.376  0.5593  1.5383 -0.3186
   37MOL   O42243694   3.878   2.879   7.369  0.0413  0.2817 -0.7545
   37MOL   C42343695   3.927   2.754   7.324  0.1102 -0.2115  0.0712
   37MOL   C42443696   4.017   2.674   7.424 -0.2349  0.7839  0.3690
   37MOL   C42543697   4.139   2.760   7.460 -0.0648  0.2798 -0.0416
   37MOL   C42643698   4.223   2.684   7.563 -0.2670 -0.0469  0.6190
   37MOL   C42743699   4.330   2.780   7.623 -0.1474 -0.0116 -0.4983
   37MOL   C42843700   4.435   2.698   7.702 -0.1796 -0.5223  0.3401
   37MOL   C42943701   4.388   2.666   0.086  0.4370  0.7887  0.0859
   37MOL   C43043702   4.505   2.626   0.175 -0.0889 -0.2208  0.0977
   37MOL   C43143703   4.463   2.585   0.316  0.4222 -0.1881  0.5081
   37MOL   C43243704   4.581   2.529   0.400 -0.1644 -0.0596  0.5102
   37MOL   O43343705   4.634   2.401   0.346  0.2055 -0.8425 -0.3152
   37MOL   C43443706   4.764   2.361   0.366 -0.3134  0.8707 -0.1112
   37MOL   O43543707   4.851   2.427   0.419  0.3033  0.1902 -0.0304
   37MOL   C43643708   4.788   2.218   0.318 -0.3288 -0.1764  0.3893
   37MOL   C43743709   4.937   2.178   0.334 -0.0395  0.3433  0.5340
   37MOL   C43843710   4.968   2.039   0.274 -0.4743 -0.5804  0.6176
   37MOL   C43943711   5.109   1.978   0.300 -0.3499  0.1388  0.2765
   37MOL   C44043712   5.213   2.022   0.196 -0.4401 -0.4965 -0.2482
   37MOL   C44143713   5.352   1.949   0.217  0.2446  0.6558 -0.3963
   37MOL   C44243714   5.458   1.945   0.106 -0.3861 -0.6205  0.3138
   37MOL   C44343715   5.479   2.089   0.049 -0.8582 -0.0445 -0.3138
   37MOL   C44443716   5.552   2.094   7.675 -0.8014  0.1419 -0.1069
   37MOL   O44543717   5.558   2.001   7.597 -0.1437  0.0252 -0.4079
   37MOL   H44643718   3.844   2.691   7.291 -0.3812 -0.5049  1.8625
   37MOL   H44743719   3.984   2.784   7.235  0.7499  0.1454  0.5937
   37MOL   H44843720   3.966   2.653   7.518  0.9654  0.5125  0.9737
   37MOL   H44943721   4.052   2.581   7.379  0.8245  0.9140  0.8982
   37MOL   H45043722   4.192   2.789   7.370 -1.0607  2.6767  0.1186
   37MOL   H45143723   4.111   2.859   7.496  0.7527  0.6799 -0.4898
   37MOL   H45243724   4.158   2.650   7.644 -0.8668  2.1742  1.1282
   37MOL   H45343725   4.268   2.596   7.519  0.0413  0.4193  0.0001
   37MOL   H45443726   4.288   2.863   7.680 -0.5102 -0.4130 -0.1708
   37MOL   H45543727   4.392   2.824   7.545 -0.5904  2.4324  0.4814
   37MOL   H45643728   4.532   2.748   7.702  0.5536 -1.9222 -0.1799
   37MOL   H45743729   4.454   2.601   7.656 -2.3708 -1.0449  0.4893
   37MOL   H45843730   4.301   2.599   0.086  2.4655 -1.9401  0.3342
   37MOL   H45943731   4.343   2.759   0.120  0.1099 -0.1288  2.2603
   37MOL   H46043732   4.585   2.699   0.189  0.9190 -1.2888 -0.0171
   37MOL   H46143733   4.558   2.545   0.125 -0.5360 -0.7290  0.4465
   37MOL   H46243734   4.416   2.669   0.366 -0.5872 -0.6610  0.3662
   37MOL   H46343735   4.384   2.511   0.301 -0.2637  0.6172  0.1014
   37MOL   H46443736   4.653   2.602   0.436 -1.7265  1.8281 -0.0388
   37MOL   H46543737   4.535   2.495   0.493 -2.0907 -0.4413 -0.5615
   37MOL   H46643738   4.768   2.223   0.211  0.5309 -0.2390  0.2267
   37MOL   H46743739   4.723   2.144   0.364 -0.2351 -0.5078 -0.0101
   37MOL   H46843740   4.949   2.189   0.442 -0.5691 -0.6525  0.6975
   37MOL   H46943741   5.001   2.253   0.287 -0.5063  0.2859 -0.1990
   37MOL   H47043742   4.952   2.040   0.166  1.6778  0.2119  0.2791
   37MOL   H47143743   4.901   1.969   0.324  1.1981 -2.8302 -0.2061
   37MOL   H47243744   5.098   1.869   0.301 -1.4873  0.2592  2.4296
   37MOL   H47343745   5.140   2.010   0.399  0.4223  1.8692 -0.5001
   37MOL   H47443746   5.195   1.996   0.092 -0.3152 -1.3133 -0.0692
   37MOL   H47543747   5.228   2.130   0.205  0.9086 -0.6647 -0.3774
   37MOL   H47643748   5.386   1.988   0.313 -1.6648 -0.7304  0.8921
   37MOL   H47743749   5.325   1.844   0.233 -2.8430  0.9736 -2.9493
   37MOL   H47843750   5.401   1.890   0.031 -0.0926 -1.0161  0.3845
   37MOL   H47943751   5.544   1.891   0.145 -0.5010 -1.0005  0.0361
   37MOL   H48043752   5.382   2.126   0.018 -1.6397 -1.4232  0.4176
   37MOL   H48143753   5.525   2.156   0.122  2.5580 -1.3940 -1.1316
   37MOL   O48243754   5.608   2.225   7.655  0.1446 -0.4428  0.2965
   37MOL   C48343755   5.668   2.238   7.531  0.3301  0.5428  0.0582
   37MOL   C48443756   5.710   2.378   7.508 -0.0014 -0.4384  0.7601
   37MOL   C48543757   5.832   2.428   7.588  0.1673 -0.7256  0.1044
   37MOL   C48643758   5.868   2.578   7.552 -0.0860 -0.5792 -0.0176
   37MOL   C48743759   6.008   2.622   7.578 -0.4729 -0.3037 -0.2417
   37MOL   C48843760   6.110   2.597   7.464  0.2700  0.3945 -0.5816
   37MOL   C48943761   6.249   2.663   7.483 -0.3942  0.3830 -1.0310
   37MOL   C49043762   6.266   2.804   7.428 -0.0741  0.1800 -0.3085
   37MOL   C49143763   6.409   2.862   7.451  0.7491 -0.1234  0.3704
   37MOL   C49243764   6.496   2.850   7.324 -0.6387 -0.3042  0.2968
   37MOL   O49343765   6.524   2.713   7.294  0.1450  0.5242  0.2204
   37MOL   C49443766   6.529   2.664   7.168 -0.1499 -0.0567 -0.5644
   37MOL   O49543767   6.517   2.729   7.067 -0.6225 -0.9694  0.0944
   37MOL   C49643768   6.550   2.518   7.174 -0.3367 -0.8332  0.2212
   37MOL   C49743769   6.653   2.470   7.272 -0.5034  0.4977  0.1959
   37MOL   C49843770   6.801   2.482   7.227  0.6734 -0.7994  0.2575
   37MOL   C49943771   6.894   2.425   7.335  0.4655  0.3410  1.2475
   37MOL   C50043772   6.914   2.513   7.458  0.2674  0.6418  0.2901
   37MOL   C50143773   7.028   2.460   7.547  0.3887  0.9459 -0.3424
   37MOL   C50243774   6.985   2.344   7.639  0.6311  0.2768  0.6582
   37MOL   C50343775   7.105   2.267   7.680 -0.7253 -0.2003 -0.1874
   37MOL   C50443776   7.148   2.170   7.570 -0.3446 -0.3128  0.6325
   37MOL   O50543777   7.254   2.177   7.510 -0.4579 -0.3317  0.0113
   37MOL   H50643778   5.749   2.166   7.520  0.1077  0.2650  0.2492
   37MOL   H50743779   5.605   2.206   7.448  0.5288  0.7123 -0.1584
   37MOL   H50843780   5.732   2.385   7.402 -0.4755  1.0255  0.7495
   37MOL   H50943781   5.620   2.436   7.523 -0.1929 -0.4441 -0.3641
   37MOL   H51043782   5.798   2.422   7.691  2.2146 -0.8905  0.7917
   37MOL   H51143783   5.912   2.357   7.567 -0.1322 -1.3659  1.1433
   37MOL   H51243784   5.846   2.610   7.450 -0.6987  1.0726  0.6163
   37MOL   H51343785   5.792   2.639   7.602 -0.2214 -0.8901  0.1558
   37MOL   H51443786   6.050   2.574   7.666 -0.4575 -1.5682 -0.9387
   37MOL   H51543787   6.010   2.726   7.611  1.1638  0.0604 -1.4450
   37MOL   H51643788   6.066   2.640   7.374 -0.7514  2.3474  0.8276
   37MOL   H51743789   6.110   2.490   7.445 -1.6135 -0.2636  2.8141
   37MOL   H51843790   6.327   2.601   7.441 -1.3967 -1.1905 -0.6208
   37MOL   H51943791   6.277   2.671   7.588  0.6127  1.1829 -1.3564
   37MOL   H52043792   6.195   2.876   7.470  1.4354  0.6404  1.5069
   37MOL   H52143793   6.247   2.803   7.321  0.8324 -0.4554 -0.4663
   37MOL   H52243794   6.397   2.969   7.467  0.9625 -0.2734  1.5199
   37MOL   H52343795   6.461   2.816   7.535 -1.1321  0.3366  1.8371
   37MOL   H52443796   6.444   2.905   7.245 -1.1733  2.2423  2.3694
   37MOL   H52543797   6.589   2.904   7.339 -0.5624 -0.3815  0.1103
   37MOL   H52643798   6.570   2.484   7.073 -1.1688 -0.7492  0.0272
   37MOL   H52743799   6.459   2.467   7.205 -0.4884 -0.0201  1.1811
   37MOL   H52843800   6.629   2.369   7.306  2.3232  0.2261  1.5158
   37MOL   H52943801   6.648   2.528   7.364  0.0681  2.5145 -1.0154
   37MOL   H53043802   6.826   2.584   7.200 -0.7991 -0.5092 -0.0387
   37MOL   H53143803   6.814   2.427   7.133 -2.2208 -0.8227 -0.1771
   37MOL   H53243804   6.991   2.406   7.288  0.0723  1.6692 -0.1722
   37MOL   H53343805   6.867   2.327   7.373 -1.0647  0.1690 -0.2040
   37MOL   H53443806   6.932   2.618   7.435 -1.2787  0.6355 -1.0494
   37MOL   H53543807   6.819   2.516   7.512  0.6042  2.6332  0.8229
   37MOL   H53643808   7.115   2.439   7.484  0.2129  0.8745 -0.5601
   37MOL   H53743809   7.066   2.533   7.619  0.2942  0.3498  0.3146
   37MOL   H53843810   6.912   2.273   7.600  1.3760 -0.1272 -0.0094
   37MOL   H53943811   6.934   2.375   7.730  0.7237 -0.9678  1.1278
   37MOL   H54043812   7.194   2.327   7.698 -0.9593 -0.2920  1.4246
   37MOL   H54143813   7.078   2.225   0.021 -2.7213  2.8079  0.6539
   37MOL   O54243814   7.045   2.084   7.539  0.0192  0.0960 -0.4949
   37MOL   C54343815   7.077   1.974   7.446  0.0354 -0.1147  0.2695
   37MOL   C54443816   7.011   1.997   7.307 -0.2641 -0.4321 -0.9883
   37MOL   C54543817   6.861   1.975   7.318  0.7309  0.0357  0.7450
   37MOL   C54643818   6.803   2.053   7.195  0.3811  0.8735 -0.5326
   37MOL   C54743819   6.648   2.058   7.191 -0.2244 -0.5319  0.5401
   37MOL   C54843820   6.589   1.937   7.118  0.0652  0.5211 -0.0241
   37MOL   C54943821   6.442   1.924   7.167 -0.3113 -0.1495  0.1278
   37MOL   C55043822   6.364   1.814   7.104  0.1100  0.1813 -0.3484
   37MOL   C55143823   6.228   1.801   7.160  0.1699  1.0148  0.0853
   37MOL   C55243824   6.166   1.670   7.123 -0.4146 -0.7402 -0.0381
   37MOL   O55343825   6.176   1.640   6.985 -0.3136 -0.2919 -0.7441
   37MOL   C55443826   6.176   1.506   6.941 -0.2265 -0.0442  0.3352
   37MOL   O55543827   6.160   1.403   7.010 -0.1109 -0.1039  0.1235
   37MOL   C55643828   6.205   1.492   6.792 -0.2742 -0.4571  0.5960
   37MOL   C55743829   6.307   1.596   6.731 -0.6091 -0.4587  0.2539
   37MOL   C55843830   6.443   1.597   6.801 -0.3423  0.5981 -0.5390
   37MOL   C55943831   6.555   1.704   6.775  0.1363 -0.1207 -0.4438
   37MOL   C56043832   6.688   1.673   6.838 -0.4534 -0.2263  0.2772
   37MOL   C56143833   6.796   1.782   6.797  0.0251  0.1129  0.9987
   37MOL   C56243834   6.931   1.783   6.870  0.1759 -0.2628  0.3999
   37MOL   C56343835   7.023   1.667   6.834  0.3616  0.5065 -0.2222
   37MOL   C56443836   7.099   1.682   6.703  0.1268  0.5326  0.1141
   37MOL   O56543837   7.214   1.737   6.697  0.5119 -0.7378  0.1428
   37MOL   H56643838   7.182   1.974   7.416  0.3867  0.2143  1.4275
   37MOL   H56743839   7.052   1.877   7.489  0.2189 -0.4829 -0.4620
   37MOL   H56843840   7.040   2.092   7.263  1.4211 -0.8787 -0.8847
   37MOL   H56943841   7.048   1.932   7.228 -0.5894 -1.0398 -0.6471
   37MOL   H57043842   6.844   1.868   7.307  1.0124  0.1330 -0.7292
   37MOL   H57143843   6.811   1.994   7.412 -0.7757 -0.7761  0.1289
   37MOL   H57243844   6.845   2.153   7.201  1.3653  0.5802 -2.3654
   37MOL   H57343845   6.838   2.011   7.101 -1.0045 -2.3695  0.3135
   37MOL   H57443846   6.602   2.148   7.148  0.0906 -1.1199 -1.0761
   37MOL   H57543847   6.607   2.057   7.292 -0.2274 -0.7912  0.5366
   37MOL   H57643848   6.640   1.843   7.135  0.9330  0.9322 -0.3325
   37MOL   H57743849   6.592   1.942   7.009 -1.8561 -0.4127 -0.1448
   37MOL   H57843850   6.391   2.017   7.142  1.2856 -0.4540 -4.8897
   37MOL   H57943851   6.442   1.910   7.275  0.1094 -1.6172 -0.0563
   37MOL   H58043852   6.421   1.724   7.129  0.1294  0.6201  1.2314
   37MOL   H58143853   6.363   1.818   6.995  0.6191  2.6490 -0.3030
   37MOL   H58243854   6.234   1.801   7.269  1.1297 -0.7860  0.0538
   37MOL   H58343855   6.158   1.879   7.131 -2.0686 -0.9879 -0.0912
   37MOL   H58443856   6.218   1.592   7.180  1.0716  0.5668  0.4269
   37MOL   H58543857   6.064   1.660   7.160 -0.3644 -0.4157  0.1891
   37MOL   H58643858   6.111   1.476   6.739  0.2193 -3.6161  0.6049
   37MOL   H58743859   6.249   1.394   6.776 -0.2977 -0.4261  0.3369
   37MOL   H58843860   6.264   1.696   6.724  2.7053  1.0582  0.7792
   37MOL   H58943861   6.327   1.569   6.627  0.6411  1.2741  0.0099
   37MOL   H59043862   6.488   1.502   6.773  0.7100  1.1855 -0.8537
   37MOL   H59143863   6.440   1.598   6.910 -0.3098  1.9566 -0.5387
   37MOL   H59243864   6.520   1.802   6.809 -2.2259 -1.2886  0.5478
   37MOL   H59343865   6.561   1.721   6.668 -0.6151  0.8894 -0.3397
   37MOL   H59443866   6.676   1.673   6.946 -2.4598  2.1022  0.1141
   37MOL   H59543867   6.721   1.571   6.820 -1.5739 -0.5949  0.2627
   37MOL   H59643868   6.806   1.785   6.688  1.5340 -1.2455  1.0880
   37MOL   H59743869   6.754   1.881   6.811 -0.5253  0.2292 -1.1881
   37MOL   H59843870   6.906   1.792   6.975 -3.2089 -0.0562 -0.3788
   37MOL   H59943871   6.995   1.870   6.852  0.2939 -0.4991 -0.3466
   37MOL   H60043872   7.105   1.657   6.906 -0.2691  1.2683  0.6155
   37MOL   H60143873   6.975   1.569   6.834  2.6906 -0.7151  2.1793
   37MOL   O60243874   7.028   1.642   6.600  0.6111 -0.9379 -0.4218
   37MOL   C60343875   7.086   1.631   6.475 -0.1072  0.2535 -0.4886
   37MOL   C60443876   7.004   1.629   6.345 -0.2635  0.0651  0.6220
   37MOL   C60543877   6.927   1.758   6.318 -0.1115  0.5733  0.3111
   37MOL   C60643878   6.803   1.756   6.221 -0.8169 -0.7488 -0.3479
   37MOL   C60743879   6.744   1.900   6.206 -0.0464 -0.0590  0.1097
   37MOL   C60843880   6.674   1.959   6.325 -0.6964  0.4095 -0.0830
   37MOL   C60943881   6.550   1.882   6.386  0.1854  0.6413  0.0504
   37MOL   C61043882   6.441   1.852   6.286 -0.4203 -0.1157 -0.1503
   37MOL   C61143883   6.373   1.966   6.225  0.4775  0.1172  0.3964
   37MOL   C61243884   6.273   1.934   6.117  0.4664  0.0861  0.4432
   37MOL   O61343885   6.195   2.047   6.073  0.0190  0.1507 -0.2670
   37MOL   C61443886   6.105   2.103   6.148 -0.0424  0.2436 -0.2002
   37MOL   O61543887   6.090   2.076   6.264 -0.0028  0.4165 -1.0654
   37MOL   C61643888   6.024   2.198   6.076  0.7175 -0.5554  0.3738
   37MOL   C61743889   5.874   2.199   6.109 -0.2848  0.4341 -0.0034
   37MOL   C61843890   5.795   2.074   6.070  0.4259 -0.0191 -0.4402
   37MOL   C61943891   5.655   2.056   6.133 -0.0700  0.5066 -0.1061
   37MOL   C62043892   5.594   1.921   6.083  0.0117 -0.1724 -0.5304
   37MOL   C62143893   5.443   1.904   6.120  1.1849  0.7292  0.3951
   37MOL   C62243894   5.393   1.760   6.126  0.4342  0.3619 -0.4404
   37MOL   C62343895   5.357   1.694   5.993  0.4671 -0.1047  0.1705
   37MOL   C62443896   5.309   1.549   6.003 -0.5524  0.2682 -0.3481
   37MOL   O62543897   5.316   1.480   6.098 -0.0650 -0.8150 -0.1670
   37MOL   H62643898   7.172   1.693   6.454 -0.2220  0.9325  0.9839
   37MOL   H62743899   7.142   1.538   6.461  0.3773  0.2553  1.3749
   37MOL   H62843900   7.073   1.614   6.262 -0.0109 -0.4527  0.9219
   37MOL   H62943901   6.929   1.550   6.352  0.4155 -0.6217  0.1397
   37MOL   H63043902   6.887   1.780   6.417  0.4867  2.6209  0.1020
   37MOL   H63143903   6.994   1.840   6.293  0.9309  0.0750  1.3962
   37MOL   H63243904   6.844   1.723   6.125  1.0451  0.0143  0.1590
   37MOL   H63343905   6.733   1.684   6.261  1.0124 -3.3771 -1.7077
   37MOL   H63443906   6.667   1.906   6.128 -0.4975  0.8917  0.6221
   37MOL   H63543907   6.832   1.953   6.168  1.4848 -1.9003  1.0064
   37MOL   H63643908   6.645   2.058   6.291  1.1598  1.2271  0.6554
   37MOL   H63743909   6.751   1.987   6.397  0.3338  0.4162 -1.1620
   37MOL   H63843910   6.500   1.929   6.471  0.5517  0.4078  0.3944
   37MOL   H63943911   6.595   1.791   6.426 -0.6263  0.7175  1.1344
   37MOL   H64043912   6.361   1.803   6.342 -1.1857  0.3990 -0.7813
   37MOL   H64143913   6.489   1.790   6.211  4.2581 -0.0903  2.6624
   37MOL   H64243914   6.328   2.014   6.312  1.8836  1.7313  0.2643
   37MOL   H64343915   6.434   2.045   6.180 -1.6359  0.9677 -1.0589
   37MOL   H64443916   6.324   1.887   6.032 -0.1524  1.1526 -0.5316
   37MOL   H64543917   6.209   1.853   6.152 -3.3225  2.9609  0.5234
   37MOL   H64643918   6.036   2.180   5.969  0.7880  1.3375  0.0631
   37MOL   H64743919   6.076   2.290   6.097 -1.2633  0.2895  1.7911
   37MOL   H64843920   5.836   2.287   6.058 -2.6419  1.0111  2.6537
   37MOL   H64943921   5.867   2.224   6.215 -2.6812  0.2909 -0.1104
   37MOL   H65043922   5.855   1.983   6.073 -0.4206 -0.5611  0.3466
   37MOL   H65143923   5.773   2.076   5.963 -0.2700 -0.6995 -0.3190
   37MOL   H65243924   5.592   2.145   6.129  0.6968  1.0025 -1.5623
   37MOL   H65343925   5.680   2.042   6.238 -2.0178 -1.6791  0.1217
   37MOL   H65443926   5.620   1.918   5.977  2.4785  0.4024  0.0132
   37MOL   H65543927   5.661   1.855   6.139  0.2389  1.2092  0.8748
   37MOL   H65643928   5.425   1.953   6.216  0.0301 -2.3250  1.8230
   37MOL   H65743929   5.373   1.952   6.052  1.3661  1.3671  0.6592
   37MOL   H65843930   5.305   1.763   6.190 -0.7698  0.2191 -2.0477
   37MOL   H65943931   5.470   1.705   6.179  0.3755  1.8567  1.2569
   37MOL   H66043932   5.282   1.750   5.939  2.2211  1.1484 -1.0033
   37MOL   H66143933   5.443   1.698   5.926 -0.1760 -1.3825 -0.7519
   37MOL   O66243934   5.254   1.512   5.885 -0.3209  0.0729 -0.1655
   37MOL   C66343935   5.228   1.370   5.874  0.2737  0.0631  0.5696
   37MOL   C66443936   5.350   1.279   5.855  0.9197  0.1188  0.1084
   37MOL   C66543937   5.456   1.322   5.762 -0.1711 -0.1548  0.1652
   37MOL   C66643938   5.556   1.207   5.743  0.5362 -0.0559  0.2629
   37MOL   C66743939   5.691   1.239   5.665  1.0291 -0.3495 -0.2478
   37MOL   C66843940   5.786   1.133   5.628 -0.0429 -0.4056 -0.1948
   37MOL   C66943941   5.878   1.072   5.746 -0.0036 -0.0863  0.3435
   37MOL   C67043942   5.940   0.936   5.710  0.0806  0.1707 -0.4489
   37MOL   C67143943   6.035   0.897   5.829 -0.5776  0.5924 -0.6428
   37MOL   C67243944   6.104   0.757   5.804  0.0292 -0.1575 -0.4114
   37MOL   O67343945   6.141   0.704   5.927  0.4840 -0.0327 -0.4222
   37MOL   C67443946   6.165   0.577   5.932  0.4013  0.0944  0.1134
   37MOL   O67543947   6.159   0.494   5.842  0.6617 -0.3039 -0.0594
   37MOL   C67643948   6.195   0.538   6.073 -0.3969  0.5075 -0.2380
   37MOL   C67743949   6.336   0.468   6.097  0.0627 -0.7505 -0.0991
   37MOL   C67843950   6.450   0.572   6.060  0.0130 -0.8012 -0.1383
   37MOL   C67943951   6.594   0.527   6.100 -0.9125  0.4394  0.0225
   37MOL   C68043952   6.653   0.393   6.042 -0.4002  0.3077 -0.1661
   37MOL   C68143953   6.641   0.381   5.891  0.2316 -0.0777  0.2956
   37MOL   C68243954   6.710   0.262   5.835 -0.3022  0.5340  0.9898
   37MOL   C68343955   6.695   0.133   5.913  0.1790 -0.4303  0.4551
   37MOL   C68443956   6.777   0.022   5.846 -0.8187  0.3727  0.4168
   37MOL   O68543957   6.795   0.017   5.726  0.0704  0.0405  0.2734
   37MOL   H68643958   5.164   1.329   5.952  1.4405 -1.8742  0.5401
   37MOL   H68743959   5.163   1.364   5.787  0.7425  0.2748  0.2031
   37MOL   H68843960   5.398   1.259   5.951  0.7633 -0.7245  0.0159
   37MOL   H68943961   5.319   1.176   5.837  2.0734 -0.1554 -0.3776
   37MOL   H69043962   5.410   1.357   5.669 -0.0241  0.9109  0.4825
   37MOL   H69143963   5.496   1.417   5.797  2.7043 -0.5020 -2.0197
   37MOL   H69243964   5.587   1.170   5.840  1.8030  0.9487  0.2493
   37MOL   H69343965   5.497   1.126   5.699  2.3794 -1.7312  0.8227
   37MOL   H69443966   5.752   1.317   5.711  2.0672 -0.2828 -1.6915
   37MOL   H69543967   5.658   1.295   5.577  0.9724  0.4999  0.3075
   37MOL   H69643968   5.859   1.166   5.554  2.1093  0.9269  2.4465
   37MOL   H69743969   5.745   1.051   5.569  1.4231 -1.2026 -0.1307
   37MOL   H69843970   5.825   1.055   5.840 -1.1428  0.2523 -0.2288
   37MOL   H69943971   5.951   1.146   5.779  0.6812 -0.8997  0.6598
   37MOL   H70043972   5.994   0.927   5.616 -1.5104  0.9972 -1.4591
   37MOL   H70143973   5.860   0.863   5.701  0.0817  0.3555 -1.9652
   37MOL   H70243974   6.115   0.970   5.844 -0.5540  0.1613  1.6392
   37MOL   H70343975   5.986   0.904   5.926 -1.1249  1.7204 -1.0028
   37MOL   H70443976   6.027   0.705   5.747  0.4289 -0.6928 -0.4680
   37MOL   H70543977   6.191   0.764   5.739  0.3215 -1.7850 -0.2145
   37MOL   H70643978   6.119   0.466   6.103 -1.9314  2.1692 -0.0430
   37MOL   H70743979   6.178   0.612   6.151 -1.3873 -1.2384  1.2622
   37MOL   H70843980   6.347   0.386   6.026  1.7206 -0.8158  0.2095
   37MOL   H70943981   6.358   0.431   6.198  0.6892  0.8944  0.3833
   37MOL   H71043982   6.424   0.660   6.118 -2.1180 -2.2201  1.1223
   37MOL   H71143983   6.442   0.600   5.955  2.2107  1.9299  0.3712
   37MOL   H71243984   6.614   0.514   6.206 -0.2821 -1.3863 -0.3072
   37MOL   H71343985   6.660   0.611   6.082 -0.3694  0.1278  0.5781
   37MOL   H71443986   6.753   0.382   6.084 -0.6952 -0.8674  0.2532
   37MOL   H71543987   6.591   0.318   6.092  0.2303 -0.2380 -0.1906
   37MOL   H71643988   6.535   0.374   5.867  0.5161 -1.6142 -0.6021
   37MOL   H71743989   6.665   0.473   5.839  0.6107 -0.6466 -0.5491
   37MOL   H71843990   6.814   0.288   5.814  0.0240 -1.4737  0.0633
   37MOL   H71943991   6.670   0.239   5.736 -0.6045  2.4978  0.6207
   37MOL   H72043992   6.735   0.139   6.014  0.2028  1.8796  0.3531
   37MOL   H72143993   6.592   0.097   5.921  0.3183 -0.4614  2.3093
   37MOL   O72243994   6.836   7.700   5.943 -0.1174  0.7579  0.3081
   37MOL   C72343995   6.899   7.580   5.903  0.9448  0.0094  0.1117
   37MOL   C72443996   6.982   7.518   6.020  0.5839  0.3545  0.4858
   37MOL   C72543997   7.124   7.570   6.037 -0.2173 -1.2093  0.2864
   37MOL   C72643998   7.178   7.537   6.170  0.2629 -0.1320 -0.5825
   37MOL   C72743999   7.307   7.620   6.201 -0.3063 -0.1997 -0.3573
   37MOL   C72844000   7.377   7.551   6.322  0.9792 -0.0152 -0.2843
   37MOL   C72944001   7.295   7.557   6.451  0.1981  0.2475 -0.9183
   37MOL   C73044002   7.372   7.590   6.576 -0.2531 -0.3032 -0.0541
   37MOL   C73144003   7.283   7.563   6.703 -0.2805  0.9781 -0.0714
   37MOL   C73244004   7.352   7.598   6.832 -0.1418 -0.0842  0.3486
   37MOL   O73344005   7.260   7.602   6.937  0.3092 -0.5020  0.0421
   37MOL   C73444006   7.264   7.497   7.029  0.1674  0.1508 -0.2194
   37MOL   O73544007   7.323   7.388   7.015 -0.3457 -0.6355 -0.0270
   37MOL   C73644008   7.164   7.522   7.140 -0.6063 -0.0688 -0.3882
   37MOL   C73744009   7.042   7.426   7.115 -0.3200 -0.2016 -0.2280
   37MOL   C73844010   6.977   7.426   6.973  0.2279 -0.2080 -0.4548
   37MOL   C73944011   6.915   7.564   6.937  0.1621 -0.2644 -0.1367
   37MOL   C74044012   6.827   7.544   6.811 -0.1725 -0.1744  0.2017
   37MOL   C74144013   6.742   7.670   6.785 -0.7197  0.0798 -0.3959
   37MOL   C74244014   6.629   7.642   6.682 -0.5993  0.1832 -0.0857
   37MOL   C74344015   6.520   7.750   6.655 -0.3587  0.3814  0.0063
   37MOL   C74444016   6.575   0.110   6.581 -0.4380  0.2212 -0.3186
   37MOL   O74544017   6.576   0.226   6.623  0.0815  0.3833  0.4964
   37MOL   H74644018   6.832   7.501   5.869  0.9106 -0.9824  2.4087
   37MOL   H74744019   6.953   7.596   5.810 -2.1265  0.4346 -1.7027
   37MOL   H74844020   6.921   7.534   6.109  0.1522 -2.2055  0.6876
   37MOL   H74944021   6.973   7.410   6.017  1.4698  0.2919 -0.2471
   37MOL   H75044022   7.187   7.542   5.952  0.7200 -0.3264  0.6913
   37MOL   H75144023   7.120   7.678   6.042 -1.2997 -1.1348 -1.6144
   37MOL   H75244024   7.107   7.577   6.243  1.5752  2.9033 -0.8965
   37MOL   H75344025   7.183   7.428   6.171 -0.6002 -0.1795 -1.3471
   37MOL   H75444026   7.291   7.721   6.239  3.0827 -0.9555  3.4083
   37MOL   H75544027   7.374   7.640   6.118  0.4002 -1.0177  0.0118
   37MOL   H75644028   7.474   7.601   6.326  1.5214 -0.7225 -3.0612
   37MOL   H75744029   7.396   7.447   6.296 -0.0751  0.2717 -2.3732
   37MOL   H75844030   7.251   7.460   6.477  3.8825 -1.4556 -0.6076
   37MOL   H75944031   7.210   7.622   6.435 -1.4360 -1.6347 -0.0832
   37MOL   H76044032   7.421   7.687   6.566 -1.5349  0.7825  3.6826
   37MOL   H76144033   7.457   7.522   6.572  0.3295  0.4967 -2.5910
   37MOL   H76244034   7.203   7.637   6.695 -0.8422  0.8029  3.2729
   37MOL   H76344035   7.223   7.473   6.712  1.0400  0.2007  1.2830
   37MOL   H76444036   7.424   7.521   6.859 -1.7132 -1.2385  1.3248
   37MOL   H76544037   7.407   7.692   6.824  0.9366 -0.8056 -0.9502
   37MOL   H76644038   7.140   7.626   7.119  0.0794 -0.0350 -1.0364
   37MOL   H76744039   7.210   7.518   7.239  0.9735  3.5045 -0.8905
   37MOL   H76844040   6.975   7.450   7.198  0.4161 -0.4475  0.4432
   37MOL   H76944041   7.066   7.323   7.139 -0.8042  0.1276  1.7936
   37MOL   H77044042   6.887   7.366   6.988 -0.9158  1.6479  0.3330
   37MOL   H77144043   7.042   7.392   6.892 -0.2517 -3.3649  0.4184
   37MOL   H77244044   6.996   7.634   6.921  1.2497 -1.8683 -1.7431
   37MOL   H77344045   6.856   7.600   7.022 -1.1205  0.3797 -1.2843
   37MOL   H77444046   6.891   7.526   6.725 -1.7111 -1.6150 -0.6692
   37MOL   H77544047   6.759   7.460   6.826 -0.8671  0.1733 -0.9677
   37MOL   H77644048   6.693   7.704   6.877  0.4495  2.0277 -0.4627
   37MOL   H77744049   6.810   7.753   6.765  0.3675 -1.1635 -1.9830
   37MOL   H77844050   6.581   7.545   6.696  1.8338 -1.2417 -1.4375
   37MOL   H77944051   6.684   7.632   6.589  0.0764 -2.5262  0.5655
   37MOL   H78044052   6.452   7.697   6.588 -0.4526  2.6091 -1.6959
   37MOL   H78144053   6.473   0.037   6.743 -0.5790  1.2465 -0.5369
   37MOL   O78244054   6.610   0.075   6.459  0.5566  0.1054 -0.0440
   37MOL   C78344055   6.642   0.186   6.364  0.2335  0.0362  0.0077
   37MOL   C78444056   6.792   0.224   6.360 -0.0526 -0.4564 -0.5169
   37MOL   C78544057   6.883   0.112   6.317  0.5024  0.1756 -0.0300
   37MOL   C78644058   7.020   0.156   6.275  0.4070  0.6728 -0.5622
   37MOL   C78744059   7.022   0.239   6.148 -0.1749 -0.3110  0.9159
   37MOL   C78844060   7.153   0.267   6.073  0.0784 -0.1241 -0.2767
   37MOL   C78944061   7.134   0.367   5.953  0.9017 -0.1060 -0.1698
   37MOL   C79044062   7.097   0.506   5.992 -0.4045 -0.3059  0.6085
   37MOL   C79144063   7.098   0.609   5.879 -0.0599 -0.9204  0.6328
   37MOL   C79244064   7.068   0.749   5.926  0.3145  0.2449  0.1350
   37MOL   O79344065   7.126   0.860   5.855  0.0732 -0.4157  0.4484
   37MOL   C79444066   7.053   0.953   5.782  0.0314 -0.2732  0.6299
   37MOL   O79544067   6.931   0.967   5.786  0.0522 -0.1668 -0.2931
   37MOL   C79644068   7.143   1.052   5.713  0.0440 -0.5002  0.4643
   37MOL   C79744069   7.236   0.992   5.607  0.4553 -0.1968 -0.3174
   37MOL   C79844070   7.355   0.912   5.663 -0.5153  0.8764  0.1936
   37MOL   C79944071   7.466   0.881   5.554 -0.5137 -0.6361  0.5702
   37MOL   C80044072   7.591   0.797   5.601 -0.0621 -0.3825 -0.1732
   37MOL   C80144073   7.688   0.755   5.494 -0.2340 -1.0106  0.1533
   37MOL   C80244074   0.046   0.669   5.555 -0.3269 -0.1278  0.0740
   37MOL   C80344075   0.123   0.584   5.454  0.1532  0.8479  0.3080
   37MOL   C80444076   0.224   0.492   5.522 -0.3784  0.0669  0.0747
   37MOL   O80544077   0.338   0.524   5.552  0.3497  0.1574  0.2481
   37MOL   H80644078   6.603   0.160   6.265 -0.6714 -0.5952  0.5265
   37MOL   H80744079   6.575   0.269   6.386  0.9905  0.7098 -0.2053
   37MOL   H80844080   6.804   0.312   6.296 -0.2164  0.1528  0.2801
   37MOL   H80944081   6.822   0.246   6.463  1.1325  2.1723 -1.3619
   37MOL   H81044082   6.886   0.030   6.389 -0.4056 -0.6948 -0.9517
   37MOL   H81144083   6.828   0.075   6.230 -1.9182 -0.6392  1.7732
   37MOL   H81244084   7.066   0.212   6.357  0.4323 -1.2952  0.7838
   37MOL   H81344085   7.078   0.065   6.269 -0.6955 -0.0408 -0.4647
   37MOL   H81444086   6.965   0.330   6.168 -0.9081 -0.3420 -0.9496
   37MOL   H81544087   6.958   0.188   6.076 -0.8930  1.1313  0.5088
   37MOL   H81644088   7.200   0.177   6.034  2.6697  0.7906  0.6310
   37MOL   H81744089   7.236   0.304   6.133 -0.2378 -0.0803  0.1388
   37MOL   H81844090   7.063   0.333   5.877 -0.9010  1.0306  0.9934
   37MOL   H81944091   7.229   0.373   5.898  0.9540 -2.4966 -0.4093
   37MOL   H82044092   7.154   0.534   6.081  2.2674  0.0432 -1.1575
   37MOL   H82144093   6.995   0.498   6.031  0.1213  1.1638  2.4211
   37MOL   H82244094   7.202   0.612   5.844  0.9342  0.8136  3.5640
   37MOL   H82344095   7.038   0.582   5.793  1.7699 -3.1421 -0.0066
   37MOL   H82444096   6.959   0.748   5.931  0.3767 -0.4364  1.3809
   37MOL   H82544097   7.099   0.766   6.029  0.3940 -0.0651  0.1616
   37MOL   H82644098   7.203   1.102   5.789  0.7716  0.1808 -0.5310
   37MOL   H82744099   7.083   1.128   5.662  1.1061 -0.2485 -0.4414
   37MOL   H82844100   7.289   1.067   5.548  2.9118 -3.1728 -2.1065
   37MOL   H82944101   7.182   0.933   5.532  1.6654 -1.8865  0.1127
   37MOL   H83044102   7.315   0.818   5.700  0.9328  0.1200 -0.1213
   37MOL   H83144103   7.409   0.966   5.741 -0.1226 -0.3561  0.7743
   37MOL   H83244104   7.503   0.974   5.511 -0.7466  0.4889  2.7421
   37MOL   H83344105   7.416   0.834   5.469 -1.6488  0.2956  0.7153
   37MOL   H83444106   7.642   0.868   5.665 -1.5619  0.5916 -0.0267
   37MOL   H83544107   7.556   0.708   5.653  2.9259 -0.5734  1.5967
   37MOL   H83644108   7.629   0.700   5.421 -0.3408  1.2777 -1.5470
   37MOL   H83744109   7.715   0.849   5.444 -1.8388  0.3156  1.7120
   37MOL   H83844110   0.020   0.600   5.636 -0.1257  1.9772  1.9946
   37MOL   H83944111   0.117   0.737   5.604 -1.9670  3.0336 -1.7643
   37MOL   H84044112   0.060   0.516   5.397 -0.7507  0.3993  1.8214
   37MOL   H84144113   0.177   0.653   5.389  1.6076  0.3358  0.9428
   37MOL   O84244114   0.172   0.380   5.562 -1.1371  0.2394  0.3242
   37MOL   C84344115   0.250   0.270   5.611  0.1675  0.2609  0.5337
   37MOL   C84444116   0.275   0.272   5.765  0.4610 -0.4171  0.1070
   37MOL   C84544117   0.414   0.206   5.803  0.2642  0.3132 -0.1875
   37MOL   C84644118   0.467   0.242   5.939  0.0028  0.8814 -0.1926
   37MOL   C84744119   0.382   0.198   6.053  0.3247  0.5434 -0.1249
   37MOL   C84844120   0.471   0.178   6.189  0.5014  0.5531 -0.3262
   37MOL   C84944121   0.521   0.314   6.261  0.3404 -0.7588 -0.2913
   37MOL   C85044122   0.617   0.288   6.381  0.1944  0.1394  0.1490
   37MOL   C85144123   0.663   0.414   6.452 -0.6098  0.0139  0.2534
   37MOL   C85244124   0.771   0.380   6.553 -0.0841  0.7068 -0.1982
   37MOL   O85344125   0.850   0.486   6.596 -0.2584  0.1511  0.0578
   37MOL   C85444126   0.822   0.574   6.689 -0.3770  1.2219  0.4362
   37MOL   O85544127   0.712   0.574   6.738  0.4247 -0.3138 -0.3486
   37MOL   C85644128   0.936   0.657   6.742  0.7164 -0.5137 -0.3458
   37MOL   C85744129   0.974   0.777   6.652  0.1258 -0.4062 -0.4446
   37MOL   C85844130   1.091   0.749   6.552 -0.0934  0.1636 -0.8250
   37MOL   C85944131   1.231   0.753   6.625 -0.2379  0.0690  0.6005
   37MOL   C86044132   1.342   0.797   6.531  0.4429 -0.0729  0.4373
   37MOL   C86144133   1.480   0.793   6.590 -0.1264  0.1011 -0.7611
   37MOL   C86244134   1.531   0.657   6.622  0.2708  0.8846  0.3030
   37MOL   C86344135   1.677   0.653   6.690  0.6665 -0.3182  0.4915
   37MOL   C86444136   1.792   0.671   6.587 -0.1960 -0.6249 -0.2131
   37MOL   O86544137   1.831   0.584   6.508  0.3245 -0.4104 -0.0323
   37MOL   H86644138   0.212   0.171   5.587 -0.4955  0.5915  0.2089
   37MOL   H86744139   0.338   0.274   5.548  0.8200  0.5706  1.4527
   37MOL   H86844140   0.279   0.379   5.784 -2.2513  0.1173 -1.9136
   37MOL   H86944141   0.189   0.228   5.816  0.0330 -2.2590 -2.0905
   37MOL   H87044142   0.403   0.098   5.797 -2.0603  0.5136 -0.1228
   37MOL   H87144143   0.482   0.231   5.722  0.9764 -3.4002 -0.8205
   37MOL   H87244144   0.564   0.193   5.943 -0.4488  0.0835  1.6705
   37MOL   H87344145   0.489   0.348   5.949 -1.6337  1.3077 -0.9893
   37MOL   H87444146   0.340   0.103   6.018  0.0502  0.2622  0.9658
   37MOL   H87544147   0.300   0.268   6.070  1.0158  1.4454 -0.4597
   37MOL   H87644148   0.555   0.112   6.169  0.9870  0.3471  2.2835
   37MOL   H87744149   0.410   0.123   6.261  1.7583  1.9290  1.8292
   37MOL   H87844150   0.430   0.358   6.302 -0.9344 -0.3041 -3.4003
   37MOL   H87944151   0.569   0.379   6.188 -2.3823  1.2411 -0.4040
   37MOL   H88044152   0.708   0.232   6.357 -1.3026 -2.5039  0.4022
   37MOL   H88144153   0.562   0.226   6.452  0.4482 -0.3925 -0.1185
   37MOL   H88244154   0.717   0.481   6.386  2.6698  0.2997  3.0730
   37MOL   H88344155   0.579   0.470   6.494  1.2338 -0.0028  4.2032
   37MOL   H88444156   0.732   0.336   6.645 -1.2479 -1.5389 -1.7298
   37MOL   H88544157   0.832   0.307   6.500 -0.1139  0.2822  0.3410
   37MOL   H88644158   1.024   0.595   6.761 -0.2016 -1.7563 -0.1220
   37MOL   H88744159   0.899   0.703   6.833 -0.1787 -1.7199 -0.0819
   37MOL   H88844160   0.991   0.861   6.719 -1.5475 -1.2910  1.1392
   37MOL   H88944161   0.884   0.807   6.599  0.7880 -0.3341 -1.5523
   37MOL   H89044162   1.099   0.830   6.479  3.8798 -0.1916 -0.9235
   37MOL   H89144163   1.072   0.660   6.492  0.9486 -0.0738 -0.8091
   37MOL   H89244164   1.245   0.650   6.658 -1.9090 -0.8713 -1.5008
   37MOL   H89344165   1.230   0.812   6.717 -0.4885  0.6292  0.2421
   37MOL   H89444166   1.328   0.740   6.439  1.0702  3.0444 -1.6765
   37MOL   H89544167   1.318   0.897   6.495 -0.7603 -1.6250 -3.3236
   37MOL   H89644168   1.538   0.850   6.517  1.7979  0.1866  0.7868
   37MOL   H89744169   1.472   0.856   6.679 -2.0559 -1.2614  0.0535
   37MOL   H89844170   1.532   0.599   6.530  0.2121 -0.0279  0.8686
   37MOL   H89944171   1.450   0.615   6.681  1.2426  0.0283  1.0338
   37MOL   H90044172   1.681   0.739   6.757 -0.0906 -0.6926  1.0425
   37MOL   H90144173   1.682   0.561   6.749  1.0879  0.6416  1.9623
   37MOL   O90244174   1.849   0.789   6.603 -0.0094 -0.1390  0.2286
   37MOL   C90344175   1.976   0.813   6.540  0.4360 -0.5158 -0.4617
   37MOL   C90444176   2.073   0.892   6.633 -0.1765  0.2740 -0.5543
   37MOL   C90544177   2.206   0.932   6.566  1.0950 -0.2072  0.1662
   37MOL   C90644178   2.284   1.030   6.656 -0.7677 -0.4356  0.0394
   37MOL   C90744179   2.430   1.052   6.607 -0.0355  0.2421 -0.4735
   37MOL   C90844180   2.518   1.132   6.700  0.6544 -0.1772 -0.0230
   37MOL   C90944181   2.663   1.110   6.648  0.1004  0.4986  0.3287
   37MOL   C91044182   2.761   1.202   6.716 -0.1120  0.5338  0.2300
   37MOL   C91144183   2.743   1.339   6.670  0.8225 -0.2332 -0.4666
   37MOL   C91244184   2.849   1.432   6.726 -0.7914 -0.8401  0.3122
   37MOL   O91344185   2.961   1.427   6.635  0.1992  0.3287  0.4784
   37MOL   C91444186   3.047   1.531   6.620  0.4184  0.4722 -0.2267
   37MOL   O91544187   3.061   1.635   6.694 -0.0857  0.3411  0.4056
   37MOL   C91644188   3.126   1.505   6.488  0.5547 -0.0811 -0.1318
   37MOL   C91744189   3.214   1.620   6.461  0.1134  0.0503 -0.4624
   37MOL   C91844190   3.322   1.589   6.355  0.3677  0.6715 -0.1459
   37MOL   C91944191   3.415   1.708   6.337  0.0176 -0.1611  0.0571
   37MOL   C92044192   3.521   1.686   6.230 -1.3303 -0.2821  0.0617
   37MOL   C92144193   3.657   1.754   6.251 -0.8800 -0.6121  0.0645
   37MOL   C92244194   3.743   1.718   6.125 -0.4157 -0.4420 -0.1614
   37MOL   C92344195   3.883   1.782   6.126 -0.4608 -1.1687  0.2841
   37MOL   C92444196   4.002   1.700   6.188  0.1976  0.6680  0.8290
   37MOL   O92544197   4.112   1.707   6.136  0.7543 -0.3310  0.5866
   37MOL   H92644198   2.015   0.718   6.502 -1.4668 -0.9788 -1.3213
   37MOL   H92744199   1.948   0.866   6.449 -0.5047  0.9519  0.6623
   37MOL   H92844200   2.017   0.983   6.654 -1.2356 -0.7026  0.9870
   37MOL   H92944201   2.079   0.845   6.731 -0.2917 -1.3526 -1.3038
   37MOL   H93044202   2.266   0.842   6.556  2.1565  0.2353  2.2464
   37MOL   H93144203   2.187   0.977   6.468 -0.6805  1.9153  1.4278
   37MOL   H93244204   2.237   1.128   6.643  1.0814  0.3455 -1.0175
   37MOL   H93344205   2.278   0.993   6.758  0.1085 -0.9247 -0.0870
   37MOL   H93444206   2.428   1.106   6.512 -0.1542 -0.0006 -0.6097
   37MOL   H93544207   2.478   0.959   6.577  0.0025 -0.1766  0.8874
   37MOL   H93644208   2.501   1.087   6.798  0.9479 -1.6722 -0.6396
   37MOL   H93744209   2.484   1.236   6.704  1.1515 -0.0891  2.8682
   37MOL   H93844210   2.673   1.117   6.540  1.3568 -1.6477  0.2616
   37MOL   H93944211   2.704   1.009   6.655  1.4336  1.0872  1.4083
   37MOL   H94044212   2.860   1.166   6.690 -0.7945  0.2410 -2.0152
   37MOL   H94144213   2.752   1.194   6.824 -1.8814 -0.7933 -0.0022
   37MOL   H94244214   2.736   1.344   6.562  0.0838  2.9607 -0.3377
   37MOL   H94344215   2.639   1.367   6.690  0.5660 -0.8329 -0.9707
   37MOL   H94444216   2.800   1.529   6.735 -0.4796 -0.4390 -1.9745
   37MOL   H94544217   2.900   1.403   6.817 -0.2501  2.3469  1.0931
   37MOL   H94644218   3.062   1.500   6.400 -0.4072  1.4439  0.4564
   37MOL   H94744219   3.186   1.414   6.491 -1.6234 -1.5285  0.8081
   37MOL   H94844220   3.275   1.648   6.547  0.5676 -0.0509 -0.7509
   37MOL   H94944221   3.153   1.705   6.430  1.3741  0.6526 -1.3227
   37MOL   H95044222   3.282   1.558   6.258 -1.1293  1.0300  0.3468
   37MOL   H95144223   3.389   1.513   6.394 -0.4937 -0.0979 -0.1343
   37MOL   H95244224   3.474   1.729   6.426  1.0050 -1.3920 -0.2925
   37MOL   H95344225   3.355   1.800   6.336  1.3472  0.7392  1.3022
   37MOL   H95444226   3.534   1.579   6.209  1.2386 -0.0366  0.2366
   37MOL   H95544227   3.479   1.718   6.134 -1.5621 -0.9876 -0.0833
   37MOL   H95644228   3.650   1.863   6.259 -1.4309 -0.7441  1.5915
   37MOL   H95744229   3.697   1.723   6.347 -1.3184 -1.9540 -0.1761
   37MOL   H95844230   3.685   1.730   6.033 -1.6821 -1.3960  0.4906
   37MOL   H95944231   3.751   1.610   6.134 -0.8405 -0.6288 -1.8809
   37MOL   H96044232   3.911   1.803   6.023  0.3877 -1.5981  0.4244
   37MOL   H96144233   3.874   1.882   6.167 -0.0032 -0.8190 -0.4517
   37MOL   O96244234   3.976   1.625   6.293 -0.5731  0.1404  0.0360
   37MOL   C96344235   4.072   1.548   6.363 -0.0075  0.6962 -0.2463
   37MOL   C96444236   4.045   1.404   6.319  0.2008 -0.0788 -0.1351
   37MOL   C96544237   4.120   1.301   6.401 -0.3846  0.0370 -0.3915
   37MOL   C96644238   4.068   1.165   6.386 -0.1673  0.4267 -0.9971
   37MOL   C96744239   4.084   1.101   6.240  0.6719 -0.5999  0.0096
   37MOL   C96844240   4.089   0.950   6.244 -0.2313 -0.2385  0.7702
   37MOL   C96944241   3.970   0.890   6.315  0.0030 -0.3179  0.8946
   37MOL   C97044242   3.985   0.736   6.320  0.3061 -0.6030 -0.5574
   37MOL   C97144243   3.879   0.665   6.400 -0.6562  0.2278  0.3718
   37MOL   C97244244   3.902   0.517   6.415  0.1090  0.4284 -0.1349
   37MOL   O97344245   3.784   0.452   6.456 -0.1288  0.4993 -0.6452
   37MOL   C97444246   3.796   0.328   6.505 -0.1047 -0.2052 -0.0094
   37MOL   O97544247   3.902   0.280   6.545  0.1570 -0.2749 -0.3729
   37MOL   C97644248   3.657   0.270   6.527  0.3002  0.2914 -0.0439
   37MOL   C97744249   3.662   0.122   6.576 -0.4430 -0.2542 -0.1106
   37MOL   C97844250   3.531   0.053   6.596  0.1401 -0.3608 -0.1597
   37MOL   C97944251   3.471   7.746   6.461 -1.2384 -0.3259 -0.3763
   37MOL   C98044252   3.346   7.653   6.470  0.8032  0.2751 -0.3058
   37MOL   C98144253   3.325   7.556   6.346 -0.0277 -0.2820 -0.2236
   37MOL   C98244254   3.272   7.644   6.224  0.0901  0.0847  0.1156
   37MOL   C98344255   3.231   7.563   6.106  0.0926 -0.2147  0.1421
   37MOL   C98444256   3.145   7.635   6.010  0.0287  0.5401  0.2349
   37MOL   O98544257   3.181   7.680   5.900  0.3166 -0.3048  0.5882
   37MOL   H98644258   4.173   1.577   6.337  0.0385  1.3578  0.6407
   37MOL   H98744259   4.056   1.562   6.470  2.3697 -1.2920  0.4124
   37MOL   H98844260   3.940   1.377   6.311  0.4504 -0.2128 -4.0327
   37MOL   H98944261   4.082   1.395   6.217  0.1731  1.4004 -0.2857
   37MOL   H99044262   4.226   1.312   6.379 -0.0089  0.8825  1.6484
   37MOL   H99144263   4.106   1.344   6.501  0.6232 -0.4875 -0.0241
   37MOL   H99244264   4.130   1.108   6.456  0.5004  0.5537 -1.4865
   37MOL   H99344265   3.967   1.165   6.426  0.5463  1.1168  0.8955
   37MOL   H99444266   4.171   1.134   6.184  0.6367  1.3694  1.0422
   37MOL   H99544267   4.005   1.133   6.172 -1.0633  0.1088  2.2762
   37MOL   H99644268   4.173   0.911   6.300 -1.9743 -1.3479  2.6853
   37MOL   H99744269   4.093   0.909   6.143  0.0503 -0.7337  0.9860
   37MOL   H99844270   3.879   0.909   6.258  1.4599  1.2921 -0.9698
   37MOL   H99944271   3.943   0.931   6.412  2.4490  2.8089  0.3524
   37MOL     H144272   4.086   0.712   6.353 -0.8551 -3.8354  0.9537
   37MOL     H244273   3.984   0.695   6.219 -0.6552  0.2415 -0.8964
   37MOL     H344274   3.883   0.713   6.497 -2.0667  1.5325 -0.1896
   37MOL     H444275   3.781   0.690   6.360 -1.4474 -0.1180  2.0461
   37MOL     H544276   3.922   0.473   6.318 -0.2769  0.0767 -0.0604
   37MOL     H644277   3.984   0.501   6.485  0.5035 -0.9669 -0.9053
   37MOL     H744278   3.608   0.272   6.430  0.8946 -0.5615 -0.3573
   37MOL     H844279   3.608   0.327   6.606 -0.9783 -2.3317  1.1337
   37MOL     H944280   3.723   0.113   6.666  0.4137 -1.6214 -0.8185
   37MOL    H1044281   3.728   0.064   6.512  0.1864 -1.1934  1.3702
   37MOL    H1144282   3.458   0.097   6.664 -1.4883  0.2365 -2.2511
   37MOL    H1244283   3.549   7.725   6.663 -0.1515 -0.0425  0.3253
   37MOL    H1344284   3.552   7.688   6.416  1.5135  1.6735  1.7888
   37MOL    H1444285   3.451   0.077   6.399  1.5391  1.0754  0.6151
   37MOL    H1544286   3.363   7.593   6.559 -0.5236  1.6354  0.8977
   37MOL    H1644287   3.262   7.721   6.485  2.4744  1.8927  2.1312
   37MOL    H1744288   3.420   7.505   6.329  1.1631  1.3825  1.2571
   37MOL    H1844289   3.255   7.478   6.377 -1.5561  0.8519 -0.7612
   37MOL    H1944290   3.340   7.724   6.196 -0.1418 -0.2179 -1.3468
   37MOL    H2044291   3.187   7.705   6.256 -0.2099 -1.4419  2.3378
   37MOL    H2144292   3.321   7.532   6.053 -1.6331 -2.8842 -1.3449
   37MOL    H2244293   3.183   7.471   6.141  1.4664 -0.1306  2.3119
   37MOL    O2344294   3.023   7.648   6.058 -0.1861  0.6403  0.3504
   37MOL    C2444295   2.917   7.708   5.975  0.1208  0.3395 -0.5182
   37MOL    C2544296   2.860   0.067   6.048  0.2701 -1.1119 -0.3137
   37MOL    C2644297   2.938   0.199   6.026 -0.4151 -0.0799 -0.0652
   37MOL    C2744298   2.846   0.322   6.066  1.0190  0.2173 -0.3060
   37MOL    C2844299   2.912   0.454   6.035  0.3744  0.1799 -0.5615
   37MOL    C2944300   3.029   0.482   6.117  0.2549 -0.4569 -0.8939
   37MOL    C3044301   3.074   0.633   6.108  0.3438  0.7812 -0.5996
   37MOL    C3144302   3.205   0.650   6.193  0.0498  0.5363 -0.0916
   37MOL    C3244303   3.273   0.785   6.179  0.1541 -0.3909 -0.4454
   37MOL    C3344304   3.403   0.781   6.262  0.5033  0.5072  0.0521
   37MOL    O3444305   3.461   0.917   6.251 -0.2826  0.3930  0.1855
   37MOL    C3544306   3.553   0.966   6.328  0.0155 -0.0287 -0.6618
   37MOL    O3644307   3.603   0.900   6.418  0.4529  0.0581 -0.0964
   37MOL    C3744308   3.578   1.113   6.304 -0.6111  0.2097 -0.1615
   37MOL    C3844309   3.693   1.173   6.392 -0.1469  0.4258  0.5864
   37MOL    C3944310   3.670   1.321   6.411  0.4824  0.3049  0.5663
   37MOL    C4044311   3.728   1.373   6.537 -0.0269  0.5320  0.1041
   37MOL    C4144312   3.732   1.523   6.540  0.0208 -0.4217 -0.1880
   37MOL    C4244313   3.768   1.589   6.678  0.4026 -0.4905  0.8196
   37MOL    C4344314   3.771   1.740   6.671 -0.1837 -0.7091  0.4710
   37MOL    C4444315   3.830   1.793   6.804  0.6239 -0.2773 -0.5654
   37MOL    C4544316   3.966   1.855   6.798 -0.4984 -0.1407  0.2203
   37MOL    O4644317   3.993   1.973   6.826  0.2218  0.0006  0.5337
   37MOL    H4744318   2.940   7.733   5.872 -0.4319  1.3615 -0.3975
   37MOL    H4844319   2.839   7.632   5.974  0.8768 -0.5883  2.9478
   37MOL    H4944320   2.754   0.074   6.021  0.4556 -1.9182 -1.2661
   37MOL    H5044321   2.864   0.057   6.156 -0.8800 -0.2819 -0.1832
   37MOL    H5144322   3.031   0.197   6.084 -0.5607 -1.6002  0.1401
   37MOL    H5244323   2.975   0.217   5.925  0.1239  3.2949  0.6728
   37MOL    H5344324   2.746   0.324   6.021 -0.0999 -3.4489  1.7972
   37MOL    H5444325   2.834   0.318   6.174  0.2177 -0.7093 -0.4169
   37MOL    H5544326   2.847   0.539   6.057 -0.0350 -0.1492 -0.4688
   37MOL    H5644327   2.922   0.453   5.926 -0.9806  0.1978 -0.7067
   37MOL    H5744328   3.112   0.413   6.104  0.6571  0.2727 -2.2599
   37MOL    H5844329   3.002   0.486   6.223  1.3161 -1.2081 -0.5855
   37MOL    H5944330   2.996   0.706   6.127 -0.7260 -0.2294 -1.0698
   37MOL    H6044331   3.094   0.662   6.004  1.7282  1.8582 -0.0583
   37MOL    H6144332   3.276   0.580   6.149 -1.1964 -0.9569  0.2189
   37MOL    H6244333   3.189   0.630   6.299 -1.1496 -1.7995 -0.6742
   37MOL    H6344334   3.300   0.803   6.074 -2.1757 -1.4532 -1.2585
   37MOL    H6444335   3.212   0.873   6.202 -2.9825 -2.9020  1.2449
   37MOL    H6544336   3.386   0.769   6.369  1.4273  0.9309  0.2531
   37MOL    H6644337   3.476   0.704   6.236  1.4218  1.8665 -1.4595
   37MOL    H6744338   3.484   1.167   6.315  0.5554  1.5984  3.8430
   37MOL    H6844339   3.591   1.118   6.196  0.2054  0.2752 -0.0614
   37MOL    H6944340   3.785   1.159   6.335  0.0058  0.2901  0.8661
   37MOL    H7044341   3.701   1.115   6.484  3.6050  0.0283  0.0665
   37MOL    H7144342   3.565   1.348   6.414  0.4315  0.4987 -1.9022
   37MOL    H7244343   3.723   1.368   6.327 -0.2631 -3.1799 -1.9608
   37MOL    H7344344   3.829   1.332   6.543  0.1366  1.1655  2.0121
   37MOL    H7444345   3.673   1.334   6.622 -1.2727 -0.4854 -1.1568
   37MOL    H7544346   3.806   1.560   6.469  1.0926 -0.0662  1.0930
   37MOL    H7644347   3.642   1.573   6.504 -0.9316 -0.4728  2.0328
   37MOL    H7744348   3.703   1.555   6.759 -0.5029  2.2304  1.2661
   37MOL    H7844349   3.871   1.562   6.701  0.3149 -0.9912  0.6289
   37MOL    H7944350   3.669   1.774   6.655  0.5496  1.1115 -0.4130
   37MOL    H8044351   3.834   1.779   6.592 -0.6949 -2.0872 -0.6387
   37MOL    H8144352   3.769   1.874   6.846  0.4941  0.0045 -1.2877
   37MOL    H8244353   3.842   1.716   6.880  0.6898  1.2057  0.9538
   37MOL    O8344354   4.056   1.766   6.763 -0.6078  0.0677 -0.5300
   37MOL    C8444355   4.191   1.803   6.770 -0.4813 -0.0243 -0.4458
   37MOL    C8544356   4.261   1.744   6.649  0.6563 -0.4211  0.7416
   37MOL    C8644357   4.234   1.834   6.526  0.1951 -0.2959  1.3311
   37MOL    C8744358   4.265   1.986   6.540 -0.0694  0.3318  0.2231
   37MOL    C8844359   4.410   2.010   6.566 -0.8438 -0.0473  0.3932
   37MOL    C8944360   4.433   2.160   6.579 -0.1946  0.3658  0.9785
   37MOL    C9044361   4.574   2.205   6.573 -0.3894  0.3992 -0.1245
   37MOL    C9144362   4.590   2.353   6.611  0.3783 -0.1868  0.7448
   37MOL    C9244363   4.731   2.414   6.583 -0.6026 -0.5277 -0.5693
   37MOL    C9344364   4.765   2.544   6.663  0.2431  0.8634 -0.0262
   37MOL    O9444365   4.662   2.646   6.661  0.0159  0.0069 -0.1326
   37MOL    C9544366   4.618   2.698   6.777  0.1739 -0.1548 -0.7106
   37MOL    O9644367   4.658   2.667   6.888  0.3833 -0.0858  0.3626
   37MOL    C9744368   4.515   2.810   6.762 -0.4971  0.0261 -0.2819
   37MOL    C9844369   4.410   2.776   6.652  0.2679  0.2518  0.2442
   37MOL    C9944370   4.317   2.896   6.613  0.3803  0.4343  1.3549
   37MOL   C10044371   4.244   2.964   6.729  0.1899  0.5508  0.1227
   37MOL   C10144372   4.192   3.099   6.694  0.2503 -0.2258 -0.2930
   37MOL   C10244373   4.078   3.088   6.596 -0.0191  0.0566  0.9591
   37MOL   C10344374   4.024   3.224   6.556 -0.8766  0.9985  0.0176
   37MOL   C10444375   3.955   3.245   6.420 -0.0651  0.5375  0.5143
   37MOL   C10544376   3.833   3.167   6.400 -0.6931 -0.6388 -0.0333
   37MOL   O10644377   3.721   3.221   6.412 -0.2136  0.1936 -0.2663
   37MOL   H10744378   4.213   1.906   6.798  0.8470 -0.3814 -0.1804
   37MOL   H10844379   4.233   1.746   6.852 -3.9824 -1.0391  0.7195
   37MOL   H10944380   4.367   1.727   6.665  0.6146  0.3106  1.8310
   37MOL   H11044381   4.222   1.645   6.627  0.2674 -0.2541  0.6738
   37MOL   H11144382   4.295   1.793   6.445 -0.2005 -1.0286  1.4016
   37MOL   H11244383   4.131   1.828   6.490  0.6408 -3.0589  0.4285
   37MOL   H11344384   4.243   2.040   6.448 -2.3569  0.5310  0.8614
   37MOL   H11444385   4.211   2.030   6.623  2.0325  3.3860  0.0599
   37MOL   H11544386   4.475   1.968   6.489 -2.0469  1.8162 -1.6877
   37MOL   H11644387   4.434   1.956   6.658  1.3857  3.1240  1.8058
   37MOL   H11744388   4.394   2.182   6.679 -0.9688 -0.8715  0.9638
   37MOL   H11844389   4.376   2.218   6.507 -0.0473 -1.0005 -0.2556
   37MOL   H11944390   4.606   2.203   6.469 -1.2147  1.2507 -0.3990
   37MOL   H12044391   4.632   2.128   6.624 -1.0111 -0.1941 -0.3095
   37MOL   H12144392   4.563   2.362   6.716  0.1244 -1.4401  0.7904
   37MOL   H12244393   4.524   2.421   6.556 -0.6319 -0.8148  1.1560
   37MOL   H12344394   4.806   2.339   6.609 -1.9077 -0.7363  2.9590
   37MOL   H12444395   4.745   2.425   6.476 -1.1092  2.2888 -0.3996
   37MOL   H12544396   4.791   2.514   6.764 -1.6280 -0.4094  0.1067
   37MOL   H12644397   4.858   2.593   6.635  1.7632 -0.4849  2.4512
   37MOL   H12744398   4.554   2.910   6.742  0.8579  0.3164  3.5138
   37MOL   H12844399   4.444   2.816   6.844  0.5583  0.7483  0.5891
   37MOL   H12944400   4.344   2.699   6.692 -0.7467  0.3227 -1.2116
   37MOL   H13044401   4.463   2.732   6.567 -0.2613  1.6279 -0.8238
   37MOL   H13144402   4.243   2.867   6.538  2.0157  1.6948 -0.8124
   37MOL   H13244403   4.379   2.965   6.556 -2.0347  0.9828 -0.7240
   37MOL   H13344404   4.320   2.976   6.807  0.1356  0.2462  0.2230
   37MOL   H13444405   4.168   2.890   6.755 -0.2401  0.5035 -1.2599
   37MOL   H13544406   4.151   3.134   6.789 -0.2721  1.9760 -1.2902
   37MOL   H13644407   4.274   3.165   6.664 -0.4716  1.3349  1.0851
   37MOL   H13744408   4.110   3.044   6.502 -0.9521  0.7296  0.3184
   37MOL   H13844409   3.989   3.032   6.626  0.6984 -3.0813 -2.4793
   37MOL   H13944410   4.104   3.294   6.575  0.1242  0.0006 -0.4314
   37MOL   H14044411   3.954   3.255   6.633 -0.6474 -0.2549  0.7476
   37MOL   H14144412   3.931   3.350   6.405 -2.9964 -0.3007 -1.0150
   37MOL   H14244413   4.023   3.226   6.337 -0.5145 -1.0756  0.4913
   37MOL   O14344414   3.851   3.034   6.378  0.3091 -0.2233 -0.3569
   37MOL   C14444415   3.738   2.951   6.349 -0.3104  0.5100  0.0654
   37MOL   C14544416   3.757   2.810   6.414 -0.1435 -0.2161 -0.8609
   37MOL   C14644417   3.882   2.737   6.370 -0.4144 -0.5495 -0.8355
   37MOL   C14744418   3.889   2.713   6.217 -0.1698 -0.9057  0.2390
   37MOL   C14844419   3.811   2.585   6.178  0.5678 -0.7541 -0.3757
   37MOL   C14944420   3.802   2.577   6.027 -0.3308 -0.7183  0.3359
   37MOL   C15044421   3.678   2.493   5.990 -0.7261 -0.0862 -1.0399
   37MOL   C15144422   3.662   2.516   5.837 -0.1916 -1.0519 -0.2572
   37MOL   C15244423   3.534   2.460   5.773  0.0416 -0.4431  0.3421
   37MOL   C15344424   3.520   2.512   5.629 -0.2652 -0.5514  0.6151
   37MOL   O15444425   3.607   2.442   5.545  0.6317 -0.4287 -0.0097
   37MOL   C15544426   3.677   2.511   5.452  0.3096  0.4485 -0.0039
   37MOL   O15644427   3.664   2.625   5.420  0.1344  0.3560  0.0044
   37MOL   C15744428   3.788   2.414   5.397  0.5030 -0.2301  0.0831
   37MOL   C15844429   3.874   2.328   5.496  1.0266  0.0920  0.4286
   37MOL   C15944430   3.800   2.194   5.560 -0.3645 -0.3547  0.4307
   37MOL   C16044431   3.898   2.125   5.664  1.0177  0.5147 -0.5206
   37MOL   C16144432   3.920   2.203   5.793 -0.4580 -0.4878 -0.8750
   37MOL   C16244433   4.028   2.136   5.884  0.2550 -0.0580 -0.0618
   37MOL   C16344434   4.028   2.196   6.029  0.3004  0.1438 -0.4769
   37MOL   C16444435   4.098   2.103   6.136 -0.4771  0.1606  0.4319
   37MOL   C16544436   4.244   2.133   6.139 -0.3923 -0.1311 -0.2484
   37MOL   O16644437   4.287   2.232   6.081  0.3940  0.3751 -0.3643
   37MOL   H16744438   3.644   2.990   6.388 -0.9321 -0.6097 -0.2852
   37MOL   H16844439   3.729   2.936   6.241 -0.5985 -2.9152  0.5095
   37MOL   H16944440   3.747   2.812   6.522 -1.3361 -1.2478 -0.9298
   37MOL   H17044441   3.677   2.743   6.380 -0.5825  0.5258 -1.3164
   37MOL   H17144442   3.958   2.807   6.405 -0.4944 -1.1248  0.5243
   37MOL   H17244443   3.878   2.645   6.428 -1.6042 -0.7057 -1.1587
   37MOL   H17344444   3.850   2.798   6.161  0.7604 -1.4203 -1.2300
   37MOL   H17444445   3.992   2.707   6.182  0.1818 -0.5618  1.2189
   37MOL   H17544446   3.712   2.579   6.222  1.3946 -0.5902  1.5665
   37MOL   H17644447   3.854   2.496   6.224  0.5509 -0.9730 -0.7808
   37MOL   H17744448   3.889   2.530   5.981 -0.0817 -0.4822  0.5604
   37MOL   H17844449   3.795   2.677   5.984  0.6473 -1.7630 -2.3524
   37MOL   H17944450   3.588   2.529   6.038 -1.4948 -3.0213 -0.2052
   37MOL   H18044451   3.697   2.386   5.997 -1.2600 -0.0467  1.3232
   37MOL   H18144452   3.745   2.476   5.780  1.8980  1.9569  0.5666
   37MOL   H18244453   3.663   2.623   5.815  1.5081 -1.1345 -0.5828
   37MOL   H18344454   3.537   2.352   5.768 -1.4897 -0.5978  2.3842
   37MOL   H18444455   3.447   2.495   5.828 -0.5842 -0.6107 -0.5294
   37MOL   H18544456   3.421   2.517   5.584 -0.6741  0.7404  1.6358
   37MOL   H18644457   3.548   2.618   5.635 -3.0439  0.1931  0.7672
   37MOL   H18744458   3.858   2.475   5.340 -0.7315 -0.0516 -1.2789
   37MOL   H18844459   3.743   2.340   5.331  2.3739 -1.2735 -0.0463
   37MOL   H18944460   3.897   2.398   5.576 -0.7555  1.4104 -0.1634
   37MOL   H19044461   3.967   2.293   5.452  1.5065  0.8648  0.8167
   37MOL   H19144462   3.752   2.135   5.483  0.5553 -1.4238  0.6572
   37MOL   H19244463   3.726   2.245   5.621 -0.3850 -0.6188  0.6286
   37MOL   H19344464   3.999   2.126   5.625  1.2725  1.5003  0.1442
   37MOL   H19444465   3.857   2.026   5.682 -0.4338  1.3491  0.9720
   37MOL   H19544466   3.957   2.301   5.762 -1.0517 -0.0356 -0.1799
   37MOL   H19644467   3.833   2.213   5.858  0.3993 -0.8842  0.3317
   37MOL   H19744468   3.995   2.033   5.893  2.1173 -0.6834 -0.0382
   37MOL   H19844469   4.120   2.134   5.825  0.2105  0.0285 -0.1351
   37MOL   H19944470   3.926   2.216   6.061  0.6500  0.0899  0.7160
   37MOL   H20044471   4.062   2.299   6.033  2.2177 -0.4644 -0.3551
   37MOL   H20144472   4.068   2.102   6.240 -0.0630  1.0203  0.5618
   37MOL   H20244473   4.075   1.999   6.111 -0.2460  0.0070  0.8671
   37MOL   H20344474   4.314   2.064   6.186 -1.5016 -0.4635  0.9276
   38MOL     O144475   5.944   3.904   5.686 -0.5985  1.1161 -0.5302
   38MOL     C244476   5.965   3.761   5.688  0.1116  0.0366  0.6445
   38MOL     C344477   5.941   3.707   5.545 -0.0075 -0.4652 -0.1453
   38MOL     C444478   6.058   3.747   5.447 -0.1613  0.1066 -0.5094
   38MOL     C544479   6.076   3.652   5.321 -0.7507 -0.0103 -0.0085
   38MOL     C644480   6.174   3.728   5.221 -0.1257 -0.0480 -0.9538
   38MOL     C744481   6.191   3.648   5.090  0.3381  0.5310 -0.3768
   38MOL     C844482   6.244   3.715   4.965 -0.3524  0.2765 -0.0878
   38MOL     C944483   6.142   3.808   4.899 -0.7402 -0.3877  1.0407
   38MOL    C1044484   6.180   3.854   4.750  1.0325 -0.8535 -0.4977
   38MOL    C1144485   6.076   3.948   4.696 -0.2888 -0.5395  0.2714
   38MOL    O1244486   5.955   3.881   4.678  0.0624  0.8446 -0.6100
   38MOL    C1344487   5.852   3.942   4.628  0.9725  0.0954 -0.7187
   38MOL    O1444488   5.853   4.052   4.578 -0.4380  0.2317 -0.1964
   38MOL    C1544489   5.724   3.873   4.646 -0.0717 -0.3951  0.0811
   38MOL    C1644490   5.656   3.892   4.785 -0.2596  0.3577  0.2396
   38MOL    C1744491   5.734   3.845   4.911  0.1442  0.1073 -0.4955
   38MOL    C1844492   5.670   3.898   5.043 -0.1725  0.5160  1.3413
   38MOL    C1944493   5.742   3.850   5.173  0.1080  0.2637  0.1064
   38MOL    C2044494   5.658   3.875   5.299  0.3396 -0.4266 -0.1676
   38MOL    C2144495   5.665   4.017   5.360 -0.3702 -0.3341  0.8442
   38MOL    C2244496   5.553   4.054   5.454 -0.2657  0.5925 -0.1036
   38MOL    C2344497   5.585   4.032   5.599  0.2165  0.1567  0.0858
   38MOL    O2444498   5.673   3.949   5.632  0.2192 -0.0622  0.0993
   38MOL    H2544499   6.055   3.737   5.744 -0.6849 -2.3678  0.9751
   38MOL    H2644500   5.893   3.709   5.751  0.9623  1.1422  2.5710
   38MOL    H2744501   5.953   3.601   5.564 -0.8854 -0.3540  1.0854
   38MOL    H2844502   5.836   3.727   5.523 -0.2042  0.3173  1.4153
   38MOL    H2944503   6.039   3.846   5.405  2.6479  0.8220 -0.1844
   38MOL    H3044504   6.155   3.753   5.496  0.0086 -1.4780 -0.6085
   38MOL    H3144505   6.110   3.555   5.356 -0.1848  0.6417  1.2984
   38MOL    H3244506   5.972   3.636   5.293 -1.3929  0.0807  2.1929
   38MOL    H3344507   6.267   3.740   5.278 -0.8966  3.1909 -0.2958
   38MOL    H3444508   6.146   3.829   5.194 -0.3674  0.2212  0.2575
   38MOL    H3544509   6.095   3.605   5.063  1.3401 -1.2024 -1.2853
   38MOL    H3644510   6.255   3.560   5.102 -0.1608  0.1566 -0.4689
   38MOL    H3744511   6.267   3.634   4.894  0.4679  3.0657 -3.1263
   38MOL    H3844512   6.338   3.770   4.974 -0.4549  0.3316  0.6646
   38MOL    H3944513   6.131   3.898   4.959 -0.5263  0.8567 -0.7386
   38MOL    H4044514   6.043   3.765   4.887  0.1481 -1.7382 -2.1299
   38MOL    H4144515   6.279   3.900   4.749  0.6844 -0.1094 -0.9144
   38MOL    H4244516   6.187   3.762   4.692  0.6058 -1.7501  0.8424
   38MOL    H4344517   6.070   4.034   4.763 -1.3735 -0.7548  0.4583
   38MOL    H4444518   6.106   3.974   4.595 -2.3580 -1.1737 -0.5297
   38MOL    H4544519   5.741   3.766   4.638  0.0881 -0.3280 -0.5466
   38MOL    H4644520   5.654   3.906   4.569  0.4931 -0.4093 -0.4474
   38MOL    H4744521   5.564   3.834   4.785  0.0583 -0.1464 -0.4069
   38MOL    H4844522   5.618   3.994   4.792  0.8736  0.6804  2.2437
   38MOL    H4944523   5.836   3.884   4.913  0.1559  0.1264 -1.3461
   38MOL    H5044524   5.742   3.736   4.906  0.5942  0.1508 -0.7278
   38MOL    H5144525   5.569   3.857   5.040  0.5698 -1.3041  1.0892
   38MOL    H5244526   5.649   4.005   5.037 -0.3991  0.4284  0.4352
   38MOL    H5344527   5.763   3.743   5.166 -0.4989  0.1364  0.1892
   38MOL    H5444528   5.840   3.897   5.178 -0.1288  0.8363 -0.4704
   38MOL    H5544529   5.553   3.863   5.271 -0.2630 -0.5364  1.9988
   38MOL    H5644530   5.678   3.797   5.373  1.0533 -2.1898 -2.1489
   38MOL    H5744531   5.664   4.079   5.270 -0.3304 -0.3281  0.8471
   38MOL    H5844532   5.762   4.031   5.408  1.0174  2.2879 -2.4423
   38MOL    H5944533   5.542   4.161   5.434  1.0751  0.7169 -0.2145
   38MOL    H6044534   5.453   4.018   5.428 -1.0392  1.4135  1.6195
   38MOL    H6144535   5.851   3.915   5.675 -0.8049 -1.2417 -1.5137
   38MOL    O6244536   5.507   4.102   5.685 -0.0323  0.3653 -0.0981
   38MOL    C6344537   5.531   4.090   5.827 -0.6222 -0.3948 -0.2725
   38MOL    C6444538   5.615   4.208   5.885 -0.2441 -0.0958  0.6641
   38MOL    C6544539   5.642   4.208   6.037  0.4265  0.3454 -0.3971
   38MOL    C6644540   5.705   4.346   6.082 -0.2723 -0.2964 -0.3559
   38MOL    C6744541   5.788   4.327   6.214  0.1626 -0.4145 -0.2078
   38MOL    C6844542   5.901   4.435   6.229 -0.4541  0.9684  0.8131
   38MOL    C6944543   5.969   4.443   6.370  0.3090  0.0167 -0.0887
   38MOL    C7044544   5.881   4.522   6.462  0.5348  0.8064  0.4922
   38MOL    C7144545   5.957   4.566   6.588 -0.6638  0.5597  0.1336
   38MOL    C7244546   5.849   4.610   6.689  0.5433  0.3233  0.1436
   38MOL    O7344547   5.907   4.698   6.781 -0.1324 -0.5350 -0.0807
   38MOL    C7444548   5.990   4.671   6.882  0.2986  0.2378  0.2581
   38MOL    O7544549   6.043   4.563   6.898  0.9882  0.2420 -0.6848
   38MOL    C7644550   6.041   4.796   6.953 -0.4863  0.0596  0.1784
   38MOL    C7744551   6.112   4.894   6.865 -0.2040  0.1568  0.1438
   38MOL    C7844552   6.267   4.853   6.836 -0.3448  0.1272 -0.0841
   38MOL    C7944553   6.346   4.972   6.775  0.3431 -0.3215  0.8040
   38MOL    C8044554   6.495   4.952   6.756 -0.4305 -1.5331  0.1267
   38MOL    C8144555   6.582   4.929   6.888  0.3399 -1.0718  0.2953
   38MOL    C8244556   6.725   4.873   6.870 -0.0238  0.5094 -0.0235
   38MOL    C8344557   6.764   4.799   7.004 -0.3215  0.2379  0.3434
   38MOL    C8444558   6.788   4.890   7.124  0.8071  0.0252  0.4238
   38MOL    O8544559   6.814   5.006   7.112  0.6745  0.2260 -0.1741
   38MOL    H8644560   5.443   4.072   5.889  0.6634  0.2586  1.7768
   38MOL    H8744561   5.599   4.006   5.838 -0.0024  0.1160 -0.1946
   38MOL    H8844562   5.712   4.199   5.837 -0.4871  0.3546  0.0910
   38MOL    H8944563   5.567   4.301   5.857 -0.4823 -0.4726 -0.1889
   38MOL    H9044564   5.546   4.198   6.088  0.7272 -0.6792 -0.0084
   38MOL    H9144565   5.700   4.122   6.071  0.4521  0.6327  0.2863
   38MOL    H9244566   5.765   4.386   6.000  2.0762 -2.4177  0.2716
   38MOL    H9344567   5.628   4.422   6.093 -0.3047 -0.3590 -0.1448
   38MOL    H9444568   5.841   4.232   6.219  1.3314  0.2129 -0.3288
   38MOL    H9544569   5.715   4.325   6.295  0.4824 -0.3291  0.0823
   38MOL    H9644570   5.854   4.529   6.201 -0.8460  1.5266  3.2790
   38MOL    H9744571   5.978   4.417   6.153 -0.9188 -0.6004  0.6853
   38MOL    H9844572   6.063   4.497   6.367 -0.5044  1.4223 -0.5615
   38MOL    H9944573   5.997   4.347   6.415  0.9190  0.3478  0.2389
   38MOL   H10044574   5.794   4.461   6.487 -0.6723  1.5388 -1.8700
   38MOL   H10144575   5.856   4.617   6.416  0.1350  1.8317  2.7544
   38MOL   H10244576   6.025   4.493   6.633 -1.6489 -1.6322 -1.8456
   38MOL   H10344577   6.022   4.648   6.558  0.9844 -1.6603 -2.5717
   38MOL   H10444578   5.768   4.664   6.640  0.5519 -0.2882 -0.5547
   38MOL   H10544579   5.810   4.521   6.737 -0.7473  1.5461  1.4051
   38MOL   H10644580   6.112   4.764   7.029  0.7314  1.8170 -0.2076
   38MOL   H10744581   5.960   4.842   7.011  0.2973 -1.5142  2.6033
   38MOL   H10844582   6.124   4.978   6.934  1.3546 -1.0549  1.3667
   38MOL   H10944583   6.047   4.934   6.786 -1.1337 -0.4143  0.6113
   38MOL   H11044584   6.272   4.754   6.792  1.5289 -0.3020  1.0705
   38MOL   H11144585   6.312   4.841   6.934 -1.8685 -1.5636  0.4402
   38MOL   H11244586   6.334   5.048   6.853  1.4342  1.1088 -0.3892
   38MOL   H11344587   6.295   5.022   6.693 -1.0490  0.7022  2.2558
   38MOL   H11444588   6.522   4.873   6.685  0.4201 -1.7592  0.6910
   38MOL   H11544589   6.541   5.042   6.716 -1.0320 -1.6640 -0.8892
   38MOL   H11644590   6.589   5.026   6.938  1.6302 -2.0906  2.1073
   38MOL   H11744591   6.528   4.862   6.955 -0.0948 -2.1848 -1.1280
   38MOL   H11844592   6.790   4.957   6.848  0.7128 -0.6283 -2.4549
   38MOL   H11944593   6.736   4.805   6.785  1.3519 -0.5110  0.9503
   38MOL   H12044594   6.683   4.736   7.038 -0.9276  0.7900 -0.0640
   38MOL   H12144595   6.854   4.737   6.997  0.9945  1.9834  1.2187
   38MOL   O12244596   6.782   4.821   7.235 -0.5677  0.0621 -0.5177
   38MOL   C12344597   6.822   4.871   7.358 -0.2805  0.0166  0.7764
   38MOL   C12444598   6.891   4.758   7.445 -0.4070 -0.7907  0.0613
   38MOL   C12544599   6.783   4.659   7.486 -0.1471  0.1314  0.3485
   38MOL   C12644600   6.674   4.720   7.576  0.0874  0.5384  0.4671
   38MOL   C12744601   6.587   4.607   7.639 -1.1007  0.5671  0.4401
   38MOL   C12844602   6.457   4.668   7.697  0.3300  0.1289 -0.4130
   38MOL   C12944603   6.351   4.568   7.742  0.0298  0.0716  0.1129
   38MOL   C13044604   6.382   4.485   0.114 -0.2328 -0.5673 -0.4403
   38MOL   C13144605   6.272   4.380   0.137  0.0370  0.4370 -0.0301
   38MOL   C13244606   6.265   4.321   0.278 -0.0932  0.1838  0.6549
   38MOL   O13344607   6.191   4.200   0.297 -0.5594  0.1673  0.0140
   38MOL   C13444608   6.063   4.213   0.334 -0.5531 -0.1017 -0.6475
   38MOL   O13544609   5.992   4.318   0.337  0.7781  0.0299 -0.0552
   38MOL   C13644610   5.994   4.081   0.369 -0.3220 -0.3224  0.6945
   38MOL   C13744611   5.914   4.088   0.504 -0.8812  0.0653 -0.3385
   38MOL   C13844612   6.003   4.045   0.624 -0.2153 -0.0979 -0.0946
   38MOL   C13944613   5.938   4.056   0.758  0.5564 -0.3420 -0.1372
   38MOL   C14044614   6.043   4.042   0.875 -0.1339  0.0717  0.4592
   38MOL   C14144615   5.983   4.066   1.018  0.1829 -0.6071 -0.4304
   38MOL   C14244616   5.941   4.206   1.062  0.0392 -0.4131  0.4824
   38MOL   C14344617   6.050   4.318   1.039 -0.3694 -0.1319 -0.4434
   38MOL   C14444618   6.165   4.307   1.135  0.1800 -0.0431 -0.0566
   38MOL   O14544619   6.257   4.224   1.111  0.3346 -0.0573 -0.7642
   38MOL   H14644620   6.899   4.948   7.349 -0.7473  0.4571  0.5387
   38MOL   H14744621   6.738   4.913   7.413  0.8029  2.6372  0.5106
   38MOL   H14844622   6.974   4.708   7.394  2.6257  1.0453  2.9362
   38MOL   H14944623   6.929   4.799   7.539  1.1121  0.0123 -0.8822
   38MOL   H15044624   6.737   4.609   7.401  0.6664 -1.8843  1.0447
   38MOL   H15144625   6.822   4.588   7.559  0.0208  0.0341  0.1650
   38MOL   H15244626   6.715   4.790   7.650  0.9324 -0.7615  1.2531
   38MOL   H15344627   6.609   4.778   7.512 -0.2804 -0.6260 -0.2129
   38MOL   H15444628   6.642   4.561   7.721  0.0543  0.4049 -0.4130
   38MOL   H15544629   6.566   4.525   7.570  2.2819 -0.6136  0.7295
   38MOL   H15644630   6.420   4.736   7.619 -1.2675 -0.4739 -0.1982
   38MOL   H15744631   6.485   4.730   0.025 -0.3463 -1.1249  0.7325
   38MOL   H15844632   6.318   4.506   7.659  1.7326 -1.0273  0.2195
   38MOL   H15944633   6.263   4.626   0.011  0.1585  0.3141  0.0045
   38MOL   H16044634   6.405   4.548   0.200 -3.0506  0.0851 -0.1335
   38MOL   H16144635   6.476   4.433   0.091  1.7930  2.5059  0.5681
   38MOL   H16244636   6.173   4.415   0.107  0.3815  1.3640 -0.1286
   38MOL   H16344637   6.305   4.296   0.076 -1.8888  0.2119 -0.8096
   38MOL   H16444638   6.371   4.303   0.299  0.6973  2.1119 -1.5079
   38MOL   H16544639   6.234   4.396   0.351  0.3476 -1.2467  2.3591
   38MOL   H16644640   6.060   3.994   0.361  0.1397  0.1415 -0.7512
   38MOL   H16744641   5.923   4.077   0.286  0.2108  0.4445  0.1967
   38MOL   H16844642   5.836   4.012   0.501  1.8156 -2.8729  0.5709
   38MOL   H16944643   5.874   4.186   0.528 -0.1559  0.2927 -0.0372
   38MOL   H17044644   6.092   4.108   0.622 -0.4872  0.2965  0.2006
   38MOL   H17144645   6.031   3.941   0.606 -2.6005 -0.9218  0.8304
   38MOL   H17244646   5.873   3.969   0.759  0.6177 -0.3845  0.6352
   38MOL   H17344647   5.877   4.146   0.765  0.8701 -0.1465  0.1719
   38MOL   H17444648   6.080   3.940   0.862  0.0129  0.1152  0.5376
   38MOL   H17544649   6.133   4.103   0.874  0.6264 -1.0053  1.2743
   38MOL   H17644650   5.889   4.011   1.026 -1.3924  1.6804 -2.3427
   38MOL   H17744651   6.059   4.037   1.091  0.8302  0.7954 -0.5248
   38MOL   H17844652   5.912   4.205   1.167 -0.9782  0.9355  0.2308
   38MOL   H17944653   5.850   4.239   1.012 -0.0773 -0.1582  0.8550
   38MOL   H18044654   6.097   4.301   0.942  0.2568  0.2502 -0.2083
   38MOL   H18144655   6.015   4.421   1.036  1.5190  0.5299 -0.0333
   38MOL   O18244656   6.156   4.394   1.245 -0.5051  0.0822 -0.2198
   38MOL   C18344657   6.247   4.391   1.352 -0.1387 -0.3222  0.2273
   38MOL   C18444658   6.218   4.504   1.452 -0.1254  0.0409  0.1593
   38MOL   C18544659   6.327   4.527   1.559  0.9015  0.1874  0.4685
   38MOL   C18644660   6.308   4.657   1.644  0.1846 -0.0717 -0.2393
   38MOL   C18744661   6.424   4.667   1.746 -0.2638 -0.2233 -0.7412
   38MOL   C18844662   6.557   4.719   1.695  0.5009  0.1646 -0.3633
   38MOL   C18944663   6.665   4.712   1.809  0.0608  0.5021  0.5590
   38MOL   C19044664   6.803   4.768   1.768 -0.0691  0.3492  0.6172
   38MOL   C19144665   6.892   4.773   1.896 -1.0968 -1.0435  0.2165
   38MOL   C19244666   7.035   4.826   1.868  0.3318 -0.7874 -0.5087
   38MOL   O19344667   7.091   4.847   1.996 -0.0310  0.3939  0.0103
   38MOL   C19444668   7.093   4.973   2.041  0.5243  0.3837 -0.2609
   38MOL   O19544669   7.045   5.071   1.988  0.8996  0.1679 -0.5873
   38MOL   C19644670   7.150   4.974   2.186  0.4784  0.5003 -0.3658
   38MOL   C19744671   7.213   5.105   2.227 -0.2573 -0.2558  0.3757
   38MOL   C19844672   7.216   5.128   2.378 -0.1472 -0.1961 -0.2027
   38MOL   C19944673   7.314   5.239   2.427  0.2494  0.3817 -0.6901
   38MOL   C20044674   7.246   5.369   2.435  1.1663 -0.0069  0.0067
   38MOL   C20144675   7.335   5.491   2.456 -0.2690 -0.2278 -0.3065
   38MOL   C20244676   7.414   5.477   2.592  0.4356  0.2928 -0.4071
   38MOL   C20344677   7.537   5.579   2.598 -0.2600 -0.4487  0.1014
   38MOL   C20444678   7.646   5.557   2.496  0.9283 -0.6807  0.0457
   38MOL   O20544679   7.675   5.440   2.473 -0.2986  0.3081 -0.0583
   38MOL   H20644680   6.235   4.292   1.397 -1.8702 -0.1815  0.0997
   38MOL   H20744681   6.353   4.396   1.328 -0.4685 -0.1775 -1.2348
   38MOL   H20844682   6.208   4.591   1.387  0.4873 -0.5852 -0.7848
   38MOL   H20944683   6.122   4.482   1.500 -0.4507 -4.1903 -2.2443
   38MOL   H21044684   6.325   4.444   1.630 -0.9874 -0.2619 -0.1017
   38MOL   H21144685   6.427   4.508   1.519  0.5825  0.6199 -0.5491
   38MOL   H21244686   6.285   4.745   1.584 -2.5912 -0.3525  0.3605
   38MOL   H21344687   6.215   4.637   1.696 -0.7898  0.3138 -1.7915
   38MOL   H21444688   6.446   4.581   1.809 -1.6305 -0.1099 -0.0998
   38MOL   H21544689   6.399   4.739   1.824  0.1146 -0.8803  0.0029
   38MOL   H21644690   6.543   4.826   1.675  2.2524  0.5013  0.0817
   38MOL   H21744691   6.600   4.672   1.606 -1.3597 -2.4345  0.0598
   38MOL   H21844692   6.682   4.608   1.835  0.1784  0.4611  0.3235
   38MOL   H21944693   6.631   4.763   1.899 -2.6156 -0.4893  0.1545
   38MOL   H22044694   6.809   4.867   1.724 -1.2416 -0.4415 -1.4062
   38MOL   H22144695   6.843   4.695   1.697 -1.2864 -0.4131  0.6920
   38MOL   H22244696   6.849   4.840   1.970  1.0572 -0.8794  1.3635
   38MOL   H22344697   6.891   4.679   1.951 -2.5437  0.2256  2.4478
   38MOL   H22444698   7.099   4.753   1.818  0.4690 -0.0391 -1.4250
   38MOL   H22544699   7.022   4.917   1.811  1.4972  0.3137  0.9306
   38MOL   H22644700   7.226   4.896   2.197 -1.2355 -1.0290  0.8608
   38MOL   H22744701   7.076   4.949   2.262  0.2786 -1.5381 -1.2000
   38MOL   H22844702   7.162   5.187   2.177  0.5336 -0.9921 -1.7026
   38MOL   H22944703   7.319   5.106   2.202 -0.1650  1.1217  0.7807
   38MOL   H23044704   7.243   5.036   2.430 -2.8077 -0.9169 -0.0392
   38MOL   H23144705   7.115   5.131   2.419 -0.1390 -1.3990 -0.0962
   38MOL   H23244706   7.406   5.242   2.369  0.6669  0.6147 -0.0068
   38MOL   H23344707   7.342   5.215   2.529 -0.6145  0.0467 -0.5296
   38MOL   H23444708   7.213   5.398   2.336  0.1644 -0.3135  0.2386
   38MOL   H23544709   7.160   5.385   2.501  0.4299 -1.4608 -0.5790
   38MOL   H23644710   7.409   5.479   2.376 -2.0833 -2.0161 -1.7710
   38MOL   H23744711   7.286   5.589   2.449 -0.5123 -0.3371 -0.1343
   38MOL   H23844712   7.451   5.376   2.610  0.5806  0.5363  0.7211
   38MOL   H23944713   7.350   5.500   2.677  0.8627  0.5614 -0.1589
   38MOL   H24044714   7.508   5.684   2.591  0.2472 -0.3770 -1.0897
   38MOL   H24144715   7.588   5.561   2.692  2.6548 -3.2649 -1.9328
   38MOL   O24244716   7.710   5.660   2.454  0.5330 -0.1301 -0.7478
   38MOL   C24344717   0.041   5.653   2.346  0.2375  0.6545 -0.6557
   38MOL   C24444718   0.181   5.721   2.381  0.3630 -0.5255  0.1773
   38MOL   C24544719   0.263   5.639   2.483 -0.8016  0.6840  0.3560
   38MOL   C24644720   0.383   5.706   2.551  0.0909 -0.2081  0.1683
   38MOL   C24744721   0.453   5.622   2.662  0.0928 -0.3150  0.6612
   38MOL   C24844722   0.566   5.696   2.730  0.0037  0.3320  0.6317
   38MOL   C24944723   0.624   5.641   2.861  0.0646 -0.0910  0.0091
   38MOL   C25044724   0.684   5.750   2.952  0.4339 -0.1019  0.3599
   38MOL   C25144725   0.652   5.723   3.098 -0.7170 -0.4085 -0.2829
   38MOL   C25244726   0.750   5.802   3.192 -0.0593  0.0616  0.0389
   38MOL   O25344727   0.739   5.736   3.312  0.2398  0.1603 -0.1520
   38MOL   C25444728   0.795   5.791   3.422 -0.0703 -0.2761  0.4717
   38MOL   O25544729   0.841   5.901   3.428  0.5757  0.2093 -0.1565
   38MOL   C25644730   0.771   5.707   3.546 -0.1140  0.3935 -0.2029
   38MOL   C25744731   0.646   5.752   3.624  0.1204 -0.7671  0.2994
   38MOL   C25844732   0.575   5.659   3.722 -0.3936  0.3545  0.1325
   38MOL   C25944733   0.466   5.735   3.805  0.4645 -0.7182  0.0881
   38MOL   C26044734   0.371   5.647   3.892 -0.0078 -0.1997 -0.3607
   38MOL   C26144735   0.262   5.726   3.974  0.4442  0.1600 -1.2557
   38MOL   C26244736   0.233   5.631   4.092  0.2840 -0.6392  0.0898
   38MOL   C26344737   0.125   5.690   4.190  0.8432 -0.4039  0.4578
   38MOL   C26444738   0.120   5.615   4.324  0.1034 -0.0755  0.3476
   38MOL   O26544739   0.115   5.678   4.428  0.6491  0.4026 -0.3817
   38MOL   H26644740   0.063   5.553   2.308 -0.2061  0.5965 -0.7675
   38MOL   H26744741   0.003   5.711   2.261  0.3474  2.3196  0.4013
   38MOL   H26844742   0.241   5.729   2.290  0.2956 -0.1249  0.1699
   38MOL   H26944743   0.153   5.825   2.396 -0.6305 -0.6936 -0.4691
   38MOL   H27044744   0.187   5.617   2.558 -1.6906 -0.0866 -0.7404
   38MOL   H27144745   0.287   5.538   2.448 -0.3105  0.9026  0.0496
   38MOL   H27244746   0.453   5.737   2.474  2.8842 -0.0802  2.6339
   38MOL   H27344747   0.341   5.795   2.599  2.1913  0.7006  0.3968
   38MOL   H27444748   0.498   5.538   2.610  0.7020  1.2498 -1.3863
   38MOL   H27544749   0.381   5.586   2.736 -0.4936 -1.3796 -0.4204
   38MOL   H27644750   0.514   5.790   2.750  1.0682  0.9820  0.3949
   38MOL   H27744751   0.639   5.708   2.650 -0.8711  0.2944 -0.1735
   38MOL   H27844752   0.694   5.558   2.861  0.3758  0.1704 -0.7003
   38MOL   H27944753   0.534   5.619   2.918  0.3279 -1.2260 -0.0167
   38MOL   H28044754   0.654   5.854   2.939 -2.1718 -0.9032 -0.2672
   38MOL   H28144755   0.788   5.742   2.919  0.0851 -2.0861 -0.3004
   38MOL   H28244756   0.548   5.738   3.127 -0.1258  1.6252  0.8931
   38MOL   H28344757   0.675   5.619   3.120 -1.6373 -0.6994 -0.6726
   38MOL   H28444758   0.855   5.796   3.166  0.3028  2.2954  0.8864
   38MOL   H28544759   0.724   5.908   3.199 -1.1462 -0.1867 -0.1014
   38MOL   H28644760   0.867   5.689   3.593 -0.8854 -0.2261  1.1678
   38MOL   H28744761   0.739   5.608   3.513  1.4178  0.1680 -1.0287
   38MOL   H28844762   0.572   5.787   3.552 -0.3796  0.3429  1.3399
   38MOL   H28944763   0.671   5.840   3.682 -0.9171  0.8192 -1.5886
   38MOL   H29044764   0.650   5.607   3.782  0.9085 -0.6635 -2.2975
   38MOL   H29144765   0.522   5.586   3.662  0.7298 -0.3626  0.0108
   38MOL   H29244766   0.402   5.801   3.746  1.5821 -0.5140 -0.9122
   38MOL   H29344767   0.521   5.805   3.868 -0.9721  1.2650 -0.7853
   38MOL   H29444768   0.327   5.563   3.840 -0.3638 -0.7032  0.7477
   38MOL   H29544769   0.442   5.592   3.954 -0.4905 -2.9594 -2.1804
   38MOL   H29644770   0.300   5.821   4.010  0.7987 -0.4088 -0.0951
   38MOL   H29744771   0.168   5.754   3.926  0.0971 -0.5376 -0.9892
   38MOL   H29844772   0.327   5.609   4.143 -0.7178 -1.2275  1.7246
   38MOL   H29944773   0.194   5.539   4.048  1.5618 -0.7772 -0.7691
   38MOL   H30044774   0.143   5.795   4.214 -0.3788  0.0771 -0.6585
   38MOL   H30144775   0.027   5.687   4.141  0.7514  2.1129  0.4126
   38MOL   O30244776   0.120   5.480   4.308 -0.0326 -0.5667  0.1138
   38MOL   C30344777   0.133   5.398   4.426 -0.0776 -0.0647  0.0882
   38MOL   C30444778   0.186   5.261   4.392 -0.1096 -0.5244 -0.3530
   38MOL   C30544779   0.137   5.162   4.504 -0.5260  0.0696 -0.4138
   38MOL   C30644780   0.182   5.018   4.481  0.1268  0.8946  0.1606
   38MOL   C30744781   0.157   4.921   4.599  0.1414 -0.6955 -0.7763
   38MOL   C30844782   0.261   4.818   4.638  0.0030 -0.4621 -0.0586
   38MOL   C30944783   0.294   4.711   4.537  0.5314 -0.4864 -0.1352
   38MOL   C31044784   0.360   4.584   4.595 -0.0147 -0.1121 -0.0386
   38MOL   C31144785   0.412   4.500   4.483 -0.1444 -0.3481 -0.2065
   38MOL   C31244786   0.413   4.350   4.519 -0.5912 -0.3071  0.0895
   38MOL   O31344787   0.451   4.292   4.396 -0.2469 -0.5214  0.5329
   38MOL   C31444788   0.580   4.277   4.375 -0.2221  0.3081  0.0153
   38MOL   O31544789   0.673   4.327   4.440  0.2472 -0.2634  0.0665
   38MOL   C31644790   0.600   4.191   4.250  0.4255 -0.3129 -0.4730
   38MOL   C31744791   0.511   4.223   4.129 -0.2052  0.4718  0.4616
   38MOL   C31844792   0.569   4.342   4.050  0.3370 -0.3555 -1.0512
   38MOL   C31944793   0.564   4.482   4.118  0.0517 -0.2328  0.3105
   38MOL   C32044794   0.617   4.598   4.030  0.4873  0.2247  0.4494
   38MOL   C32144795   0.555   4.740   4.077 -0.0604 -0.9734 -0.2477
   38MOL   C32244796   0.631   4.781   4.210  0.1070 -0.5085  0.1029
   38MOL   C32344797   0.557   4.881   4.292 -0.4442 -0.6249 -0.0910
   38MOL   C32444798   0.624   4.911   4.430  0.0926  0.0998 -0.0373
   38MOL   O32544799   0.657   5.026   4.463 -0.4587  0.5826 -0.8261
   38MOL   H32644800   0.182   5.448   4.509  1.4538  0.7742 -1.2839
   38MOL   H32744801   0.031   5.381   4.459 -0.7013  2.8716 -0.2192
   38MOL   H32844802   0.146   5.230   4.297 -1.2146 -2.8042  0.8291
   38MOL   H32944803   0.293   5.272   4.372 -0.1864  2.3719  0.5109
   38MOL   H33044804   0.182   5.192   4.598  0.1643  0.9456 -1.0147
   38MOL   H33144805   0.029   5.172   4.517 -0.4946 -0.5248  0.2834
   38MOL   H33244806   0.146   4.977   4.387 -0.0802 -1.4915  1.2213
   38MOL   H33344807   0.290   5.018   4.467  0.3041 -1.0069  1.2425
   38MOL   H33444808   0.062   4.871   4.582 -1.5374  2.2029 -0.2365
   38MOL   H33544809   0.154   4.982   4.690  4.1764 -0.2655 -0.8193
   38MOL   H33644810   0.220   4.779   4.730  0.0965 -0.0455  0.1612
   38MOL   H33744811   0.355   4.870   4.656 -0.7358  0.5041  1.0774
   38MOL   H33844812   0.366   4.746   4.462  0.8660  0.7343  0.7493
   38MOL   H33944813   0.206   4.674   4.485  0.4449 -1.1027  0.4410
   38MOL   H34044814   0.274   4.536   4.642 -0.6580  0.0882 -1.0013
   38MOL   H34144815   0.445   4.607   4.660  2.6020 -1.8362 -2.7363
   38MOL   H34244816   0.359   4.509   4.389 -1.4374 -3.3191  0.1766
   38MOL   H34344817   0.516   4.527   4.466 -0.4255  0.1158 -1.1641
   38MOL   H34444818   0.480   4.333   4.603  3.1107  0.5781 -2.5708
   38MOL   H34544819   0.314   4.315   4.549 -1.1171 -1.3917 -2.7505
   38MOL   H34644820   0.573   4.089   4.279  0.5299 -0.2664 -0.2081
   38MOL   H34744821   0.708   4.190   4.231  0.3578 -0.1380 -0.8604
   38MOL   H34844822   0.408   4.243   4.158  0.2918  2.2258  1.1267
   38MOL   H34944823   0.521   4.138   4.061 -2.5308 -0.0115  0.6815
   38MOL   H35044824   0.507   4.356   3.962 -0.5085  2.0682 -0.1296
   38MOL   H35144825   0.668   4.334   4.007  0.2816  0.0570 -1.2632
   38MOL   H35244826   0.629   4.478   4.206  0.3257  1.3314  0.1864
   38MOL   H35344827   0.462   4.500   4.153 -0.6847 -0.5729 -1.6133
   38MOL   H35444828   0.724   4.582   4.031  0.7610  1.9715  0.6412
   38MOL   H35544829   0.576   4.579   3.931  0.3443  0.8395  0.3880
   38MOL   H35644830   0.556   4.823   4.007  0.6550 -0.6860  0.0930
   38MOL   H35744831   0.451   4.744   4.107  0.1542  0.4064  0.3377
   38MOL   H35844832   0.732   4.799   4.173  0.3717 -1.0208  0.5731
   38MOL   H35944833   0.632   4.697   4.279  1.3675 -1.5407 -1.1280
   38MOL   H36044834   0.541   4.972   4.233 -2.7717  0.0101  1.4828
   38MOL   H36144835   0.451   4.864   4.311 -0.3847  0.6376  1.4522
   38MOL   O36244836   0.628   4.804   4.520 -0.1466 -0.1266  0.2627
   38MOL   C36344837   0.668   4.818   4.654 -0.1820 -0.0615 -0.1026
   38MOL   C36444838   0.817   4.791   4.676 -0.4179  0.0318 -0.0634
   38MOL   C36544839   0.865   4.656   4.636 -0.3273  0.8454 -0.4685
   38MOL   C36644840   1.013   4.626   4.672  0.1441 -0.3276 -0.3312
   38MOL   C36744841   1.053   4.646   4.817  0.4304  0.4965 -0.4118
   38MOL   C36844842   1.197   4.604   4.840  0.0266  0.0642  0.4597
   38MOL   C36944843   1.236   4.601   4.993  0.9568 -0.7136  0.0224
   38MOL   C37044844   1.385   4.572   5.019  0.2275 -0.2787  0.0877
   38MOL   C37144845   1.406   4.523   5.157  0.0848 -0.1871 -0.9981
   38MOL   C37244846   1.549   4.468   5.180 -0.1704 -0.4724 -0.1022
   38MOL   O37344847   1.547   4.410   5.308  0.3637 -0.1802  0.0310
   38MOL   C37444848   1.609   4.293   5.324 -0.0399 -0.5103 -0.1871
   38MOL   O37544849   1.704   4.257   5.247  0.0034 -0.4155 -0.0944
   38MOL   C37644850   1.580   4.217   5.451  0.2668  0.3251  0.8919
   38MOL   C37744851   1.434   4.194   5.488  0.0983  0.2310  0.0787
   38MOL   C37844852   1.352   4.094   5.405  0.2261 -0.7789  0.1818
   38MOL   C37944853   1.396   3.946   5.400 -0.7276 -0.2850  0.0116
   38MOL   C38044854   1.375   3.872   5.529  0.4589 -0.2094  0.2769
   38MOL   C38144855   1.406   3.729   5.528 -0.4317  0.2603 -0.6224
   38MOL   C38244856   1.404   3.681   5.678  0.2301  0.8548  0.2259
   38MOL   C38344857   1.383   3.530   5.685  0.1840  0.4547  0.3976
   38MOL   C38444858   1.234   3.491   5.659 -0.2478  0.3796  0.0649
   38MOL   O38544859   1.207   3.395   5.584  0.0638  0.4112 -0.4473
   38MOL   H38644860   0.644   4.920   4.685  1.1780  0.3193 -0.2543
   38MOL   H38744861   0.608   4.759   4.724 -0.6328 -0.2062 -0.6091
   38MOL   H38844862   0.889   4.856   4.626  0.3454 -0.7363  0.0249
   38MOL   H38944863   0.827   4.813   4.782 -2.6330  1.2794 -0.0682
   38MOL   H39044864   0.800   4.583   4.685  1.8712  0.3687  1.8110
   38MOL   H39144865   0.848   4.639   4.529 -0.2034 -0.1551 -0.3403
   38MOL   H39244866   1.055   4.530   4.639 -0.0750 -0.4255 -0.3265
   38MOL   H39344867   1.075   4.698   4.620  0.2927 -0.6154 -0.5546
   38MOL   H39444868   0.995   4.574   4.876  0.3047 -0.4518 -1.6684
   38MOL   H39544869   1.038   4.749   4.850  1.6186  0.9977 -1.4223
   38MOL   H39644870   1.256   4.680   4.787 -2.5988  0.9719 -1.2393
   38MOL   H39744871   1.210   4.509   4.789  4.2980  0.5600  0.3660
   38MOL   H39844872   1.177   4.514   5.024  0.7482  0.3256  2.7201
   38MOL   H39944873   1.190   4.684   5.047  1.1992  0.8707 -2.1451
   38MOL   H40044874   1.449   4.658   5.000 -0.5302  0.3851  0.5516
   38MOL   H40144875   1.424   4.498   4.949 -2.1029 -1.6360  0.1923
   38MOL   H40244876   1.387   4.607   5.224  2.4589  0.1697 -0.7093
   38MOL   H40344877   1.334   4.452   5.197 -1.3861  1.9208  0.1806
   38MOL   H40444878   1.583   4.404   5.099 -3.5208 -2.2166 -0.2313
   38MOL   H40544879   1.629   4.542   5.183 -0.8666  0.2496  0.8372
   38MOL   H40644880   1.626   4.260   5.540  1.8560  2.0611 -0.7246
   38MOL   H40744881   1.627   4.120   5.434 -2.1347 -0.7820  0.2396
   38MOL   H40844882   1.389   4.289   5.461  0.3925  0.2835 -0.2191
   38MOL   H40944883   1.423   4.178   5.596 -1.6431 -1.9275 -0.3740
   38MOL   H41044884   1.371   4.125   5.303 -1.5153  0.1411  0.1359
   38MOL   H41144885   1.246   4.105   5.429  0.1152 -1.6058  0.1086
   38MOL   H41244886   1.503   3.944   5.380 -0.5450 -4.8115  0.9813
   38MOL   H41344887   1.336   3.893   5.326 -2.6677  1.9817 -0.0793
   38MOL   H41444888   1.440   3.920   5.602 -0.8748 -0.4249  1.6443
   38MOL   H41544889   1.274   3.892   5.568 -0.7312 -2.4554 -1.5430
   38MOL   H41644890   1.336   3.674   5.465 -0.7614 -0.1574  0.0929
   38MOL   H41744891   1.502   3.703   5.484 -0.5878 -1.8013  0.1756
   38MOL   H41844892   1.333   3.738   5.739  0.1648  2.3829 -1.2604
   38MOL   H41944893   1.499   3.704   5.726  1.1355  1.0723 -1.6163
   38MOL   H42044894   1.437   3.493   5.598 -0.3160  0.7707 -0.0488
   38MOL   H42144895   1.422   3.478   5.773 -0.4932  0.1675  0.5320
   38MOL   O42244896   1.161   3.579   5.719 -0.2986 -0.0303  0.0100
   38MOL   C42344897   1.023   3.583   5.686  0.2095 -0.1731 -0.2242
   38MOL   C42444898   1.006   3.721   5.630  0.0076  0.3114  0.1318
   38MOL   C42544899   1.016   3.844   5.727  0.8622 -0.2029  0.3604
   38MOL   C42644900   0.882   3.860   5.803 -1.1095 -0.0125 -0.2932
   38MOL   C42744901   0.884   3.997   5.885  0.4260 -0.5299  0.2155
   38MOL   C42844902   0.778   4.016   5.998  0.3763  0.4239 -0.1100
   38MOL   C42944903   0.788   4.152   6.060 -0.2116 -0.1980  0.3647
   38MOL   C43044904   0.686   4.161   6.179  0.7418  0.6453 -0.3221
   38MOL   C43144905   0.663   4.303   6.241  0.1737 -0.2611 -0.1643
   38MOL   C43244906   0.541   4.312   6.336 -0.2176 -0.6011 -0.1184
   38MOL   O43344907   0.497   4.450   6.363 -0.9167 -0.1545  0.5315
   38MOL   C43444908   0.577   4.521   6.450 -0.8054  0.3133  0.1083
   38MOL   O43544909   0.672   4.474   6.516  0.6801 -0.1896 -0.4888
   38MOL   C43644910   0.537   4.669   6.472  0.0584 -1.0578  0.4070
   38MOL   C43744911   0.596   4.758   6.366  0.1889  0.7238 -0.7144
   38MOL   C43844912   0.511   4.771   6.238 -0.0130 -0.0658 -0.2577
   38MOL   C43944913   0.559   4.882   6.152  0.5934 -0.0834  0.2862
   38MOL   C44044914   0.456   4.901   6.042 -0.4040 -0.5146  0.3570
   38MOL   C44144915   0.487   5.002   5.934 -0.7634 -0.1016  0.1579
   38MOL   C44244916   0.393   5.001   5.816  0.5055  0.4982 -0.2098
   38MOL   C44344917   0.447   5.096   5.712 -0.6564 -0.6518  0.4099
   38MOL   C44444918   0.379   5.087   5.579 -0.4351  0.5423  0.6735
   38MOL   O44544919   0.443   5.129   5.485  0.6037  0.6137  0.5338
   38MOL   H44644920   0.979   3.505   5.624 -1.5979  0.0439  0.7600
   38MOL   H44744921   0.963   3.573   5.777 -2.0019  0.0166 -1.6218
   38MOL   H44844922   1.072   3.730   5.544  1.4386 -0.9728  1.0610
   38MOL   H44944923   0.908   3.736   5.587 -0.6643 -0.6431  1.2869
   38MOL   H45044924   1.092   3.822   5.803  2.3629 -1.2895 -1.4010
   38MOL   H45144925   1.053   3.937   5.684 -1.2331 -0.6498 -2.5383
   38MOL   H45244926   0.793   3.869   5.741 -0.2884 -2.1414 -1.8331
   38MOL   H45344927   0.879   3.774   5.870  1.0895  1.2659  1.5245
   38MOL   H45444928   0.869   4.080   5.816 -0.1165 -0.0477  0.9025
   38MOL   H45544929   0.984   4.014   5.923 -0.0408  0.3691  1.0504
   38MOL   H45644930   0.792   3.941   6.076 -0.8129 -0.9716 -1.2033
   38MOL   H45744931   0.682   3.994   5.950  0.4878 -1.8851  0.6466
   38MOL   H45844932   0.759   4.221   5.981  2.7686  1.2620  0.4912
   38MOL   H45944933   0.888   4.157   6.103 -0.4230  1.0261  0.7283
   38MOL   H46044934   0.727   4.091   6.253  1.3197 -0.4018 -1.6139
   38MOL   H46144935   0.583   4.135   6.156 -0.0894  4.0539 -0.6776
   38MOL   H46244936   0.747   4.353   6.289 -0.5377  0.9519 -0.1517
   38MOL   H46344937   0.635   4.365   6.156 -0.9213  2.2725  1.9779
   38MOL   H46444938   0.461   4.252   6.294 -0.9359 -0.9755  1.7341
   38MOL   H46544939   0.565   4.269   6.433  2.3072 -2.0171 -1.3247
   38MOL   H46644940   0.559   4.708   6.572 -1.7469 -0.3488  0.5678
   38MOL   H46744941   0.429   4.663   6.457 -0.0782 -1.3217  1.4364
   38MOL   H46844942   0.696   4.726   6.339  0.1728 -1.5404  1.7109
   38MOL   H46944943   0.605   4.858   6.408 -1.0272  2.1460 -3.7060
   38MOL   H47044944   0.406   4.777   6.263 -0.7321 -2.3458 -2.5212
   38MOL   H47144945   0.516   4.674   6.187 -3.3792 -0.2634 -0.2967
   38MOL   H47244946   0.654   4.857   6.106 -0.8818 -2.4742 -1.6273
   38MOL   H47344947   0.574   4.971   6.212  3.1561 -1.5245  1.8496
   38MOL   H47444948   0.443   4.805   5.994 -0.5800 -1.9297  3.1370
   38MOL   H47544949   0.364   4.940   6.085 -0.4184  0.8112 -0.8385
   38MOL   H47644950   0.481   5.099   5.983 -0.3796  0.5252 -0.9963
   38MOL   H47744951   0.589   4.998   5.896 -0.9580  0.3082 -0.4175
   38MOL   H47844952   0.304   5.051   5.855 -0.9552  1.3728 -4.4300
   38MOL   H47944953   0.360   4.909   5.768 -2.4918  2.0078 -1.1475
   38MOL   H48044954   0.460   5.201   5.739  0.9379 -0.1520 -2.2061
   38MOL   H48144955   0.550   5.070   5.691 -0.6491 -1.4760  1.4143
   38MOL   O48244956   0.261   5.032   5.576  0.3854  0.4451 -0.1413
   38MOL   C48344957   0.190   5.021   5.452 -0.4829 -0.2779  0.6878
   38MOL   C48444958   0.055   4.956   5.488  0.0843  0.9182  0.2888
   38MOL   C48544959   7.702   4.987   5.378 -0.4005  0.3529 -0.0171
   38MOL   C48644960   7.574   4.908   5.369 -0.3128  0.0904  0.3605
   38MOL   C48744961   7.589   4.758   5.333  0.3966 -0.0694  0.7477
   38MOL   C48844962   7.454   4.693   5.321 -0.8270  0.1548  0.0112
   38MOL   C48944963   7.460   4.543   5.298  0.2819 -0.0623 -0.5187
   38MOL   C49044964   7.311   4.495   5.278  0.9015 -0.3051 -0.3847
   38MOL   C49144965   7.296   4.344   5.249 -0.9539 -0.0194 -0.0878
   38MOL   C49244966   7.153   4.315   5.200  0.0537 -0.2538 -0.1675
   38MOL   O49344967   7.122   4.178   5.245  0.0938 -0.2624 -0.2971
   38MOL   C49444968   6.994   4.138   5.247  0.8861 -0.4876  0.6708
   38MOL   O49544969   6.898   4.200   5.202 -0.6440  0.2957  0.4626
   38MOL   C49644970   6.973   4.007   5.317 -0.6443  0.4339  0.1101
   38MOL   C49744971   6.910   4.033   5.454 -0.1539 -0.4665 -0.6496
   38MOL   C49844972   6.870   3.906   5.530  0.4550 -0.1525 -0.0737
   38MOL   C49944973   6.833   3.917   5.680 -0.2404  0.0856  0.9925
   38MOL   C50044974   6.745   3.793   5.718  0.5955 -0.4267  0.1284
   38MOL   C50144975   6.701   3.791   5.865  0.1479 -0.8160  0.3392
   38MOL   C50244976   6.576   3.700   5.900 -0.5501 -0.8465 -0.1319
   38MOL   C50344977   6.435   3.762   5.884  0.9746  0.2384  0.1296
   38MOL   C50444978   6.402   3.798   5.739 -0.0157  0.0029  0.1196
   38MOL   O50544979   6.343   3.713   5.661  0.7386  0.0576  0.3328
   38MOL   H50644980   0.169   5.118   5.407 -0.6497 -0.3392  0.6340
   38MOL   H50744981   0.250   4.975   5.374 -0.9369  0.0623  0.1298
   38MOL   H50844982   0.068   4.848   5.477  2.8849  1.4580 -2.4043
   38MOL   H50944983   0.007   4.966   5.585  0.7907 -0.8021  0.8358
   38MOL   H51044984   7.683   5.094   5.385  0.9440  0.5869  0.1756
   38MOL   H51144985   7.750   4.980   5.280 -0.6908 -2.3744 -0.0094
   38MOL   H51244986   7.516   4.914   5.461  1.1331  1.5224  1.2129
   38MOL   H51344987   7.530   4.957   5.282 -1.1092  2.2511  1.9354
   38MOL   H51444988   7.647   4.698   5.402  0.0991 -0.6212  0.5204
   38MOL   H51544989   7.636   4.758   5.235  0.1794  1.8243  0.6072
   38MOL   H51644990   7.402   4.746   5.241 -0.1970 -0.1601 -0.6038
   38MOL   H51744991   7.394   4.707   5.411 -0.1848 -0.8742  0.6146
   38MOL   H51844992   7.499   4.482   5.379 -1.1868  1.7303  1.6049
   38MOL   H51944993   7.511   4.527   5.203  2.9964  1.9926  0.5010
   38MOL   H52044994   7.268   4.557   5.200  0.9812 -1.7244 -1.5612
   38MOL   H52144995   7.254   4.524   5.367  0.5071  1.5193 -1.2103
   38MOL   H52244996   7.363   4.304   5.173 -1.2640  0.1957 -0.4721
   38MOL   H52344997   7.331   4.288   5.336 -0.9048  0.4204  0.1778
   38MOL   H52444998   7.077   4.387   5.232  1.3525  1.3651 -0.6861
   38MOL   H52544999   7.149   4.320   5.091  1.0732 -0.5096 -0.2171
   38MOL   H52645000   7.069   3.956   5.322 -0.9819 -0.1620  0.6108
   38MOL   H52745001   6.905   3.963   5.245  0.7555 -0.2854 -0.7778
   38MOL   H52845002   6.816   4.086   5.438 -2.2013 -3.7707 -0.0803
   38MOL   H52945003   6.982   4.087   5.516  0.1580 -0.3484 -1.1129
   38MOL   H53045004   6.952   3.835   5.522 -0.0192 -0.5435 -1.9067
   38MOL   H53145005   6.789   3.857   5.475 -0.2936  1.0306 -0.0600
   38MOL   H53245006   6.774   4.007   5.695 -2.0504 -0.9734  0.4057
   38MOL   H53345007   6.925   3.929   5.738 -0.1527 -0.9605  1.0821
   38MOL   H53445008   6.653   3.793   5.659 -0.2957 -2.6022  1.4681
   38MOL   H53545009   6.787   3.694   5.701 -0.0730 -0.2254 -3.0370
   38MOL   H53645010   6.787   3.760   5.924  0.4512 -0.5930  0.0149
   38MOL   H53745011   6.686   3.893   5.900 -1.2146 -1.6337  2.2777
   38MOL   H53845012   6.591   3.651   5.996  1.0329  2.2934  1.2804
   38MOL   H53945013   6.588   3.623   5.823 -0.3419 -1.4988  0.5451
   38MOL   H54045014   6.362   3.690   5.921 -0.7670  1.4063 -1.0030
   38MOL   H54145015   6.420   3.852   5.943  2.2140 -0.3076  1.3118
   38MOL   O54245016   6.432   3.927   5.716 -0.1908 -0.2703  0.2751
   38MOL   C54345017   6.386   3.995   5.602  0.1956  0.5965  0.5538
   38MOL   C54445018   6.467   3.961   5.483 -0.2304 -0.4121 -0.3701
   38MOL   C54545019   6.450   4.050   5.371 -0.4868  0.6236  0.1778
   38MOL   C54645020   6.550   4.009   5.263 -0.0513  0.0294  0.4063
   38MOL   C54745021   6.538   4.097   5.139 -1.2037 -0.2299  0.0874
   38MOL   C54845022   6.400   4.095   5.070 -0.6831  0.3457 -0.6157
   38MOL   C54945023   6.396   4.203   4.957  0.7669 -0.5001 -0.7958
   38MOL   C55045024   6.494   4.189   4.852  1.1727  0.3232  0.1237
   38MOL   C55145025   6.484   4.299   4.744  1.1527  0.6133 -0.5509
   38MOL   C55245026   6.364   4.282   4.648 -0.7296  0.6742  0.3780
   38MOL   O55345027   6.370   4.158   4.585 -0.6943 -0.1318 -0.3349
   38MOL   C55445028   6.346   4.151   4.445 -0.1391  1.1388  0.2020
   38MOL   O55545029   6.324   4.246   4.363  0.4110 -0.3566 -0.3562
   38MOL   C55645030   6.350   3.999   4.400 -0.0121 -0.2017  0.1962
   38MOL   C55745031   6.316   3.979   4.250 -0.3143 -0.8728 -0.1766
   38MOL   C55845032   6.169   4.019   4.216  0.4308  0.1909 -0.2828
   38MOL   C55945033   6.059   3.928   4.270  0.5731  0.2341 -0.2372
   38MOL   C56045034   5.933   3.933   4.185  0.8604  0.9289 -0.0094
   38MOL   C56145035   5.828   3.844   4.240 -0.5539  0.3101 -1.0861
   38MOL   C56245036   5.878   3.705   4.259 -0.5042 -0.4945  0.1924
   38MOL   C56345037   5.780   3.589   4.244 -0.0587 -0.4864  0.1893
   38MOL   C56445038   5.662   3.582   4.345  0.2170 -0.0573 -0.2199
   38MOL   O56545039   5.666   3.622   4.457 -0.2744  0.1565 -0.2315
   38MOL   H56645040   6.280   3.977   5.582  0.7121 -2.3105  0.1304
   38MOL   H56745041   6.393   4.097   5.638 -0.6008 -0.0037  2.4455
   38MOL   H56845042   6.569   3.962   5.521 -0.4411  0.1932  0.1857
   38MOL   H56945043   6.440   3.859   5.458  0.0434 -0.7162  0.5907
   38MOL   H57045044   6.345   4.039   5.346 -0.3780  0.7931 -0.3676
   38MOL   H57145045   6.478   4.151   5.402  0.6801 -0.2394  2.0454
   38MOL   H57245046   6.651   4.002   5.303 -0.0348  2.3618  0.8238
   38MOL   H57345047   6.514   3.911   5.231  0.1944  0.5791 -1.5876
   38MOL   H57445048   6.621   4.070   5.074 -0.7103  4.3737 -1.3602
   38MOL   H57545049   6.557   4.198   5.174 -1.7842 -0.2994  0.6135
   38MOL   H57645050   6.315   4.105   5.136 -0.4664 -0.7420 -0.1647
   38MOL   H57745051   6.388   3.996   5.024 -1.1840  1.7736 -3.7119
   38MOL   H57845052   6.396   4.306   4.992  0.8646 -0.2326 -1.5716
   38MOL   H57945053   6.295   4.186   4.919  1.5159 -1.5375 -2.3834
   38MOL   H58045054   6.463   4.092   4.811  0.9375 -0.4557  2.0892
   38MOL   H58145055   6.595   4.179   4.891  0.6152  0.6381  1.7016
   38MOL   H58245056   6.477   4.396   4.794 -2.4290  1.4432 -2.5228
   38MOL   H58345057   6.580   4.300   4.693  0.2661  2.5656 -2.2523
   38MOL   H58445058   6.266   4.290   4.695 -0.8602  1.0745  0.0395
   38MOL   H58545059   6.361   4.365   4.578 -0.4916  0.8390  0.5603
   38MOL   H58645060   6.281   3.951   4.468  0.5569  0.2316  1.1052
   38MOL   H58745061   6.452   3.967   4.423 -0.8469 -1.3598  2.3480
   38MOL   H58845062   6.334   3.878   4.212  0.4234  0.2282 -2.8215
   38MOL   H58945063   6.381   4.038   4.186  1.7241 -1.9550  0.8308
   38MOL   H59045064   6.152   4.005   4.109 -1.1881 -3.7016  0.3901
   38MOL   H59145065   6.148   4.121   4.247 -0.0946 -0.5849  1.9865
   38MOL   H59245066   6.017   3.967   4.363 -2.2872 -1.1778 -0.8974
   38MOL   H59345067   6.098   3.828   4.287  0.0298  0.2289  0.9748
   38MOL   H59445068   5.881   4.028   4.173 -2.1640 -0.5260  1.0792
   38MOL   H59545069   5.969   3.903   4.087  1.6922 -2.1356  1.1701
   38MOL   H59645070   5.775   3.875   4.330  2.5457  0.6163  0.6930
   38MOL   H59745071   5.758   3.840   4.157  0.1961  0.6206 -1.7364
   38MOL   H59845072   5.931   3.692   4.354  1.4533 -0.4627 -0.8790
   38MOL   H59945073   5.959   3.695   4.187 -2.2794 -0.0386 -1.9036
   38MOL   H60045074   5.737   3.604   4.145 -0.1173 -1.4400  0.0664
   38MOL   H60145075   5.839   3.498   4.256 -0.3678 -0.4372  2.3626
   38MOL   O60245076   5.570   3.508   4.293 -0.0836  0.5562  0.5123
   38MOL   C60345077   5.454   3.472   4.373 -0.3213 -0.1412  0.5351
   38MOL   C60445078   5.348   3.420   4.274  0.8758  0.1496  0.7452
   38MOL   C60545079   5.297   3.530   4.180 -0.0939 -0.4505 -0.1854
   38MOL   C60645080   5.167   3.484   4.116 -1.1047 -0.0400 -0.5926
   38MOL   C60745081   5.116   3.582   4.015  0.2511  0.1229  0.4075
   38MOL   C60845082   4.986   3.525   3.956  0.0849  0.3491 -0.3380
   38MOL   C60945083   4.927   3.616   3.853  0.1912 -0.2646 -0.0508
   38MOL   C61045084   4.784   3.567   3.821  0.8298  0.2245  0.1517
   38MOL   C61145085   4.728   3.617   3.685 -0.0706 -0.1378 -0.3176
   38MOL   C61245086   4.588   3.545   3.655 -0.2568  0.0416 -0.7004
   38MOL   O61345087   4.590   3.406   3.613 -0.4065 -0.2834 -0.1880
   38MOL   C61445088   4.483   3.354   3.538  0.3055  0.1011 -0.2563
   38MOL   O61545089   4.396   3.430   3.498  0.8352  0.1928 -0.4607
   38MOL   C61645090   4.479   3.205   3.512  0.3806  0.3775 -0.6675
   38MOL   C61745091   4.441   3.122   3.638  0.4586  0.2451  0.3445
   38MOL   C61845092   4.471   2.978   3.624  0.2792  0.6372 -0.9513
   38MOL   C61945093   4.430   2.904   3.760 -0.0025 -0.6304  0.2588
   38MOL   C62045094   4.477   2.764   3.764  0.2237 -0.1324 -0.5521
   38MOL   C62145095   4.428   2.681   3.883 -0.1643  0.2388 -0.6548
   38MOL   C62245096   4.474   2.535   3.889  0.3618 -0.3491 -0.1812
   38MOL   C62345097   4.470   2.475   4.034 -0.0780  0.5380 -0.3379
   38MOL   C62445098   4.327   2.490   4.099 -0.1144 -0.1422  0.3098
   38MOL   O62545099   4.239   2.411   4.059 -0.2256  0.7279 -0.8989
   38MOL   H62645100   5.481   3.404   4.455 -0.7073 -1.4117 -0.3753
   38MOL   H62745101   5.407   3.552   4.430  0.4815  0.4767  0.3409
   38MOL   H62845102   5.397   3.342   4.215 -2.2795 -0.7930 -0.7543
   38MOL   H62945103   5.265   3.370   4.325  2.0354 -1.5545  1.0257
   38MOL   H63045104   5.284   3.630   4.219 -1.0615  0.0179 -1.6675
   38MOL   H63145105   5.373   3.562   4.108 -0.8752  2.1890  0.1411
   38MOL   H63245106   5.159   3.378   4.088  0.9264  0.1368 -1.9423
   38MOL   H63345107   5.100   3.484   4.202  1.0231 -0.0323  1.0836
   38MOL   H63445108   5.188   3.588   3.933 -0.5206 -0.7186 -0.3481
   38MOL   H63545109   5.108   3.676   4.069  0.3608 -0.5317  1.5848
   38MOL   H63645110   4.905   3.516   4.029 -0.9028  1.1699 -1.3134
   38MOL   H63745111   4.992   3.425   3.915 -0.0503 -0.9883  2.8115
   38MOL   H63845112   4.976   3.598   3.757 -3.1433  1.1317 -2.0886
   38MOL   H63945113   4.947   3.722   3.870 -1.6755  0.2282 -0.7975
   38MOL   H64045114   4.717   3.597   3.902 -1.8369 -0.0424 -1.9040
   38MOL   H64145115   4.786   3.459   3.830  2.2973  0.3614  1.7830
   38MOL   H64245116   4.717   3.725   3.691  0.9157 -0.0289 -0.3767
   38MOL   H64345117   4.804   3.583   3.615 -0.6625 -1.6807 -0.2290
   38MOL   H64445118   4.521   3.545   3.741  0.0613  0.5170 -0.4531
   38MOL   H64545119   4.528   3.609   3.590  1.1060 -0.8978 -2.9666
   38MOL   H64645120   4.572   3.173   3.466  1.0064 -1.5480  1.8295
   38MOL   H64745121   4.412   3.171   3.434 -0.6329 -2.3331  1.2725
   38MOL   H64845122   4.333   3.135   3.642  0.3060 -1.1406  0.8862
   38MOL   H64945123   4.486   3.166   3.727 -0.7752 -0.5685  1.3808
   38MOL   H65045124   4.578   2.963   3.611  0.8796  0.2300  3.6464
   38MOL   H65145125   4.422   2.940   3.534  0.3952 -0.1635 -0.6873
   38MOL   H65245126   4.324   2.903   3.782  0.0749  1.3302  0.8847
   38MOL   H65345127   4.476   2.946   3.850 -0.0348  0.2429 -0.1217
   38MOL   H65445128   4.445   2.714   3.672  1.1936  0.1658 -1.0470
   38MOL   H65545129   4.585   2.766   3.768  0.2912  0.6273 -2.4461
   38MOL   H65645130   4.457   2.737   3.972  1.1136 -0.0791 -0.8507
   38MOL   H65745131   4.319   2.683   3.886 -0.1678 -1.2525  0.8646
   38MOL   H65845132   4.571   2.526   3.840  1.5802  2.7288  1.5498
   38MOL   H65945133   4.408   2.478   3.824  1.1380 -1.5147  0.0329
   38MOL   H66045134   4.506   2.373   4.044  1.0526  0.9114 -0.4693
   38MOL   H66145135   4.543   2.527   4.096  0.9524 -0.1118 -0.9840
   38MOL   O66245136   4.303   2.606   4.162  0.0411  0.7558 -0.3600
   38MOL   C66345137   4.173   2.635   4.214  0.5811  0.4151  0.0581
   38MOL   C66445138   4.151   2.786   4.214  0.1031 -0.2586 -0.4235
   38MOL   C66545139   4.118   2.840   4.079 -0.0334 -0.8876  0.2313
   38MOL   C66645140   4.175   2.979   4.059 -0.4063 -0.1217  0.0564
   38MOL   C66745141   4.092   3.072   3.962 -0.3843  0.5620  0.0707
   38MOL   C66845142   4.158   3.203   3.916 -0.1198 -0.2967  1.2501
   38MOL   C66945143   4.213   3.294   4.032 -0.7512  0.1489  0.3326
   38MOL   C67045144   4.116   3.342   4.143 -0.4026  0.3250 -0.1995
   38MOL   C67145145   4.169   3.318   4.279  0.2991  0.2746  0.2479
   38MOL   C67245146   4.062   3.336   4.385  0.7501 -0.3803  0.3572
   38MOL   O67345147   4.117   3.349   4.515 -0.2726  0.2698  0.2531
   38MOL   C67445148   4.151   3.473   4.562  0.3145  0.3507  0.5762
   38MOL   O67545149   4.137   3.581   4.504 -0.4523  0.8117  0.6161
   38MOL   C67645150   4.211   3.449   4.698 -0.3572  0.5660 -0.3506
   38MOL   C67745151   4.343   3.526   4.724 -0.2669  0.3049  1.3114
   38MOL   C67845152   4.319   3.671   4.756  0.3438 -0.4651  0.2185
   38MOL   C67945153   4.439   3.755   4.776  0.5357  0.0435  0.4215
   38MOL   C68045154   4.407   3.899   4.818 -0.0257 -1.0307  0.3099
   38MOL   C68145155   4.353   3.918   4.963 -0.2012 -0.3657  0.3501
   38MOL   C68245156   4.334   4.066   4.995  0.2365  0.1869  0.1392
   38MOL   C68345157   4.468   4.144   4.998 -0.0198 -0.2343  0.1481
   38MOL   C68445158   4.554   4.107   5.108 -0.0121 -0.2945 -0.1834
   38MOL   O68545159   4.516   4.046   5.209 -0.3313 -0.0126  0.0235
   38MOL   H68645160   4.090   2.577   4.174  0.4847 -0.1678  1.0793
   38MOL   H68745161   4.182   2.592   4.314  1.5555  1.1163  0.2852
   38MOL   H68845162   4.067   2.806   4.280  1.1878 -0.6231  1.0806
   38MOL   H68945163   4.237   2.842   4.249 -2.8414  3.3840  1.2353
   38MOL   H69045164   4.163   2.776   4.003 -0.6249  0.2973 -1.1587
   38MOL   H69145165   4.010   2.838   4.063 -0.6275  1.2682  3.5998
   38MOL   H69245166   4.187   3.033   4.153  0.6928 -3.9082  2.1711
   38MOL   H69345167   4.277   2.962   4.026 -1.3558 -4.0905 -1.0968
   38MOL   H69445168   3.999   3.102   4.010 -0.8456 -0.0674 -0.4266
   38MOL   H69545169   4.049   3.012   3.883 -0.7240  0.3821  0.3878
   38MOL   H69645170   4.087   3.265   3.863  1.7055 -0.1769 -1.1226
   38MOL   H69745171   4.233   3.180   3.840 -1.3586  2.0252 -0.7074
   38MOL   H69845172   4.255   3.381   3.981  1.1604  1.4032  3.8605
   38MOL   H69945173   4.299   3.244   4.078  1.8506  3.5578 -0.6004
   38MOL   H70045174   4.019   3.298   4.124 -0.5178  0.7276 -0.5586
   38MOL   H70145175   4.093   3.448   4.134  0.0092  0.4557  0.2446
   38MOL   H70245176   4.218   3.221   4.290  0.6868  0.3258 -0.8949
   38MOL   H70345177   4.241   3.400   4.295  0.2497  0.0143  1.8920
   38MOL   H70445178   4.011   3.427   4.354  1.1470  0.2556  1.5319
   38MOL   H70545179   3.984   3.259   4.390  0.3904 -0.0153  0.4042
   38MOL   H70645180   4.226   3.342   4.713 -0.7906  0.3216 -1.6457
   38MOL   H70745181   4.136   3.472   4.773  1.7022  2.2463  1.2724
   38MOL   H70845182   4.409   3.516   4.637 -1.4897 -1.1170  0.5237
   38MOL   H70945183   4.393   3.472   4.804  1.1297 -0.7677 -0.2381
   38MOL   H71045184   4.244   3.685   4.834 -0.4784 -1.7427 -0.3269
   38MOL   H71145185   4.280   3.712   4.663 -1.5375 -0.7763  0.8423
   38MOL   H71245186   4.498   3.744   4.685  1.3924  1.5194  0.7943
   38MOL   H71345187   4.493   3.714   4.861  0.5557 -0.8664 -0.0163
   38MOL   H71445188   4.510   3.935   4.824 -0.6711  0.8182  0.4490
   38MOL   H71545189   4.355   3.958   4.743  1.6059  2.2381  1.6499
   38MOL   H71645190   4.255   3.872   4.972  0.0449 -0.4906  2.9003
   38MOL   H71745191   4.420   3.870   5.034 -2.1278 -0.0016  2.4714
   38MOL   H71845192   4.270   4.090   5.080  0.5077 -0.1459  0.4347
   38MOL   H71945193   4.280   4.116   4.914 -0.7748  0.1248  0.7693
   38MOL   H72045194   4.507   4.131   4.897 -1.4127  1.9486 -0.7389
   38MOL   H72145195   4.437   4.249   5.005  1.6930  0.0912  4.0043
   38MOL   O72245196   4.681   4.162   5.085  0.1094 -0.2216  0.8088
   38MOL   C72345197   4.790   4.120   5.169  0.2987  0.4520 -0.0925
   38MOL   C72445198   4.915   4.213   5.144  0.4316  0.4307  0.1494
   38MOL   C72545199   5.035   4.164   5.229  0.5107 -0.9863 -0.0146
   38MOL   C72645200   5.023   4.220   5.373  0.2795 -0.5961  0.1057
   38MOL   C72745201   5.147   4.188   5.455  0.0169 -0.5409 -0.1901
   38MOL   C72845202   5.165   4.291   5.572  0.3911  0.0497 -0.0968
   38MOL   C72945203   5.231   4.426   5.522 -0.3930 -0.2795  0.3801
   38MOL   C73045204   5.274   4.507   5.643  0.8272 -0.1799 -0.1915
   38MOL   C73145205   5.322   4.648   5.601  0.1100  0.5826  0.2481
   38MOL   C73245206   5.323   4.746   5.730  0.1455  1.1266 -0.1837
   38MOL   O73345207   5.419   4.714   5.824 -0.0775  0.3417 -0.4982
   38MOL   C73445208   5.544   4.766   5.811 -0.1497  0.5340 -0.1837
   38MOL   O73545209   5.590   4.829   5.714 -0.1170 -0.2092 -0.0808
   38MOL   C73645210   5.631   4.738   5.940 -0.1704 -0.0361  0.6780
   38MOL   C73745211   5.653   4.873   6.019 -0.2046 -0.0652 -0.3361
   38MOL   C73845212   5.748   4.858   6.140  0.3641 -0.1073  0.1100
   38MOL   C73945213   5.770   4.985   6.227 -0.4704 -0.3032 -0.2581
   38MOL   C74045214   5.873   4.972   6.334 -0.6309 -0.2344  0.2925
   38MOL   C74145215   5.900   5.097   6.419 -0.3386  0.4970 -0.2895
   38MOL   C74245216   5.981   5.070   6.548  0.0249 -0.1751 -0.7206
   38MOL   C74345217   5.981   5.183   6.650  0.4601  0.0406 -0.2624
   38MOL   C74445218   5.838   5.213   6.706 -0.2816  0.4755 -0.1819
   38MOL   O74545219   5.773   5.306   6.666 -0.4837  0.1049  0.2885
   38MOL   H74645220   4.758   4.126   5.273  1.2148 -1.6368  0.3337
   38MOL   H74745221   4.817   4.016   5.149  3.7461  1.5612 -1.5890
   38MOL   H74845222   4.948   4.197   5.042 -0.5868  0.2499 -0.1610
   38MOL   H74945223   4.899   4.317   5.170 -0.4879  0.0573  1.1556
   38MOL   H75045224   5.044   4.056   5.222  1.3811 -0.9403  0.2641
   38MOL   H75145225   5.127   4.208   5.188 -0.6784  0.6720 -0.9644
   38MOL   H75245226   5.007   4.328   5.373 -1.3154 -0.8274 -0.1793
   38MOL   H75345227   4.937   4.178   5.425  2.0642 -2.4975  1.6424
   38MOL   H75445228   5.231   4.196   5.386 -0.1279  1.0614 -0.1912
   38MOL   H75545229   5.153   4.082   5.483 -0.4473 -0.3377  0.6949
   38MOL   H75645230   5.224   4.238   5.647  2.5587  0.5992 -1.4000
   38MOL   H75745231   5.068   4.311   5.619 -1.1817  0.6504 -3.4811
   38MOL   H75845232   5.151   4.472   5.465  0.0041 -2.0993 -1.7424
   38MOL   H75945233   5.316   4.409   5.456 -0.3118  0.5603  0.2678
   38MOL   H76045234   5.352   4.462   5.704  0.9682  0.1312 -0.1390
   38MOL   H76145235   5.185   4.518   5.705  0.4810 -2.8732 -0.1356
   38MOL   H76245236   5.428   4.652   5.577 -0.0790 -0.8627 -0.9264
   38MOL   H76345237   5.264   4.698   5.523 -0.8820 -1.5547 -0.4584
   38MOL   H76445238   5.348   4.842   5.686  0.8698  0.2869 -1.6748
   38MOL   H76545239   5.229   4.760   5.783  0.0380  0.0115 -0.0674
   38MOL   H76645240   5.716   4.675   5.915  0.9395  1.5495  0.4004
   38MOL   H76745241   5.565   4.678   6.003  0.6696  0.2439  1.8444
   38MOL   H76845242   5.556   4.900   6.062  0.0068  1.2366 -0.6597
   38MOL   H76945243   5.685   4.945   5.944  0.0218  1.6672  1.3856
   38MOL   H77045244   5.841   4.816   6.102 -0.0766 -0.9410 -0.0626
   38MOL   H77145245   5.706   4.776   6.198 -1.3411 -0.7515 -1.9523
   38MOL   H77245246   5.671   5.012   6.265  0.8097  1.0351  2.2042
   38MOL   H77345247   5.797   5.069   6.164  1.3916 -0.7707 -0.1086
   38MOL   H77445248   5.855   4.886   6.398 -2.2854 -1.5617 -1.8719
   38MOL   H77545249   5.963   4.941   6.280 -0.1173  2.5455 -0.5082
   38MOL   H77645250   5.943   5.175   6.355  1.7249 -0.1999  0.1905
   38MOL   H77745251   5.801   5.133   6.443 -0.3889  1.9132 -2.5298
   38MOL   H77845252   6.082   5.044   6.517 -0.0131 -1.1181 -0.0477
   38MOL   H77945253   5.944   4.983   6.602  0.2450  0.4498  0.4434
   38MOL   H78045254   6.038   5.154   6.739  1.4452  1.0291 -0.5673
   38MOL   H78145255   6.028   5.275   6.617  0.3572 -0.3720 -1.5698
   38MOL   O78245256   5.791   5.107   6.774  0.1793 -0.0021  0.5320
   38MOL   C78345257   5.657   5.110   6.818 -0.1478  0.5375 -0.3005
   38MOL   C78445258   5.557   5.064   6.709  0.2613 -0.3816  0.4987
   38MOL   C78545259   5.582   4.922   6.653  0.0069  0.3136 -0.2807
   38MOL   C78645260   5.493   4.880   6.538 -0.0729 -0.1116 -0.2358
   38MOL   C78745261   5.521   4.734   6.484 -0.6766 -0.5434  0.2245
   38MOL   C78845262   5.433   4.686   6.371 -0.7108  0.1597  1.0685
   38MOL   C78945263   5.436   4.541   6.333  0.3580  0.6237 -1.1083
   38MOL   C79045264   5.308   4.490   6.271 -0.4923 -0.5232 -0.0945
   38MOL   C79145265   5.334   4.372   6.172 -0.4756 -0.1104  0.4545
   38MOL   C79245266   5.203   4.340   6.099  0.9238 -0.0583 -0.6457
   38MOL   O79345267   5.130   4.275   6.195  0.0666 -0.3670 -0.0290
   38MOL   C79445268   5.014   4.221   6.168  0.4160 -0.2635 -0.1161
   38MOL   O79545269   4.955   4.227   6.057 -0.0694  0.0721  0.0502
   38MOL   C79645270   4.949   4.155   6.299 -0.2407  1.3634  0.0296
   38MOL   C79745271   4.831   4.070   6.255  0.1253 -0.3529  0.1467
   38MOL   C79845272   4.874   3.920   6.237  0.6213  0.5808  0.0021
   38MOL   C79945273   4.756   3.836   6.177  0.2234  0.1788  0.0821
   38MOL   C80045274   4.758   3.687   6.211  0.6303 -0.3643 -0.1049
   38MOL   C80145275   4.648   3.603   6.141 -0.3931 -0.9206 -0.1950
   38MOL   C80245276   4.662   3.608   5.991 -0.0104  0.0818  0.0276
   38MOL   C80345277   4.598   3.495   5.911  0.2511  0.2203  0.1821
   38MOL   C80445278   4.638   3.354   5.951 -0.4637  0.2355  0.0804
   38MOL   O80545279   4.556   3.262   5.968  0.3103  0.5127 -0.8238
   38MOL   H80645280   5.644   5.039   6.901  1.2104 -0.2392 -0.7383
   38MOL   H80745281   5.635   5.210   6.854  1.0712  0.3977  0.8801
   38MOL   H80845282   5.451   5.061   6.738  0.0276 -0.9829 -0.4106
   38MOL   H80945283   5.548   5.142   6.634 -2.6361 -1.1863 -0.0741
   38MOL   H81045284   5.689   4.908   6.636  0.2609 -0.3737  1.7758
   38MOL   H81145285   5.557   4.851   6.732  2.1797  0.0327  0.2006
   38MOL   H81245286   5.388   4.881   6.568  0.6940 -1.0123  2.7308
   38MOL   H81345287   5.505   4.940   6.449 -0.8403 -0.7799 -0.7983
   38MOL   H81445288   5.517   4.662   6.566  3.6377  0.9220  1.8514
   38MOL   H81545289   5.624   4.726   6.451  0.2682 -2.6960  3.5447
   38MOL   H81645290   5.438   4.747   6.281  2.1030  0.8235  1.6315
   38MOL   H81745291   5.332   4.703   6.409 -0.5513 -0.1289  1.6281
   38MOL   H81845292   5.451   4.478   6.420  2.7318 -0.8748 -2.5322
   38MOL   H81945293   5.526   4.518   6.275  0.7626  1.0353 -0.6560
   38MOL   H82045294   5.274   4.580   6.220 -1.4798  1.2873  3.6473
   38MOL   H82145295   5.249   4.459   6.357 -1.0459 -1.4647 -0.7940
   38MOL   H82245296   5.401   4.398   6.090 -0.1840 -0.8838  0.4509
   38MOL   H82345297   5.369   4.286   6.228 -0.4268  0.6306  1.5859
   38MOL   H82445298   5.145   4.431   6.083  1.5292 -0.0581 -2.9992
   38MOL   H82545299   5.210   4.273   6.014 -0.5285 -1.6423  0.4430
   38MOL   H82645300   4.912   4.239   6.357  1.7331  1.6212  0.9762
   38MOL   H82745301   5.021   4.093   6.353 -0.4938 -0.3524 -1.5242
   38MOL   H82845302   4.775   4.109   6.170 -0.2593 -1.7685 -0.2771
   38MOL   H82945303   4.754   4.065   6.332 -1.3951 -0.5671 -1.3696
   38MOL   H83045304   4.902   3.878   6.333 -2.5746  0.9199  1.1664
   38MOL   H83145305   4.962   3.908   6.175  0.7409 -1.9508  0.6253
   38MOL   H83245306   4.745   3.859   6.071  1.0318  0.2333  0.0110
   38MOL   H83345307   4.664   3.878   6.219  0.8027  0.3626  1.1838
   38MOL   H83445308   4.847   3.632   6.180 -1.3914 -2.0479 -3.1321
   38MOL   H83545309   4.744   3.677   6.319 -2.2869  1.6163 -0.2455
   38MOL   H83645310   4.653   3.504   6.184 -1.0018 -0.5208  0.8168
   38MOL   H83745311   4.547   3.641   6.159 -0.0301 -0.0530  0.0335
   38MOL   H83845312   4.764   3.626   5.958 -0.0741  1.5505  0.6072
   38MOL   H83945313   4.624   3.703   5.954 -0.7627 -0.2028  0.0642
   38MOL   H84045314   4.492   3.510   5.892  0.8776  2.5795 -1.6184
   38MOL   H84145315   4.629   3.504   5.807 -0.0459 -1.0720 -0.0252
   38MOL   O84245316   4.769   3.333   5.950  0.2380 -0.5508  0.3420
   38MOL   C84345317   4.815   3.211   5.983 -0.1129  0.3973  0.3395
   38MOL   C84445318   4.842   3.126   5.855  0.2389  0.5686 -0.6159
   38MOL   C84545319   4.878   2.977   5.886 -0.0784  0.1513 -0.0605
   38MOL   C84645320   4.862   2.890   5.755 -0.6351 -0.3231 -0.2532
   38MOL   C84745321   4.833   2.739   5.777 -0.3774 -0.4907  0.1118
   38MOL   C84845322   4.826   2.668   5.647  0.3365  0.2659 -0.0274
   38MOL   C84945323   4.792   2.518   5.653 -0.7903 -0.7411 -0.5546
   38MOL   C85045324   4.816   2.453   5.522 -0.1215 -0.2665  0.0516
   38MOL   C85145325   4.819   2.296   5.532 -0.7270 -0.3360  0.0698
   38MOL   C85245326   4.857   2.218   5.403 -0.2707  0.6339 -0.4135
   38MOL   O85345327   4.883   2.083   5.440 -0.0961 -0.5188  0.1051
   38MOL   C85445328   4.980   2.006   5.386 -0.2393  1.1621  0.2746
   38MOL   O85545329   5.069   2.040   5.306  0.2877 -0.1063 -0.2747
   38MOL   C85645330   4.989   1.860   5.446 -0.2106 -0.2304 -0.3433
   38MOL   C85745331   5.074   1.759   5.353 -0.5864 -0.1780 -0.0408
   38MOL   C85845332   5.211   1.720   5.418 -0.3523  0.2250 -0.1956
   38MOL   C85945333   5.312   1.647   5.333 -0.0098  0.1555 -0.5324
   38MOL   C86045334   5.267   1.502   5.284 -0.8244 -0.0848 -0.2092
   38MOL   C86145335   5.244   1.402   5.403  0.1342 -0.4976  0.0595
   38MOL   C86245336   5.241   1.255   5.351 -0.8228  1.0101 -0.4943
   38MOL   C86345337   5.226   1.145   5.458 -0.4493  0.2414  0.5585
   38MOL   C86445338   5.097   1.155   5.539 -0.1420  0.7548  0.4596
   38MOL   O86545339   4.995   1.198   5.488  0.1753 -0.1293  0.2508
   38MOL   H86645340   4.906   3.234   6.039 -0.1784  1.4514  0.0235
   38MOL   H86745341   4.742   3.162   6.047  0.3064 -0.1953  0.3616
   38MOL   H86845342   4.745   3.125   5.805 -2.4597  0.8779  4.3483
   38MOL   H86945343   4.913   3.181   5.793  0.8487 -0.4416 -0.8240
   38MOL   H87045344   4.980   2.966   5.924 -0.5828 -0.4786  1.1346
   38MOL   H87145345   4.807   2.941   5.961 -1.2860  2.3621 -0.1192
   38MOL   H87245346   4.794   2.937   5.683  0.1651 -0.5448 -1.1692
   38MOL   H87345347   4.956   2.893   5.699  0.7099 -3.0165  1.7375
   38MOL   H87445348   4.740   2.727   5.833 -1.5848 -0.2446 -1.7978
   38MOL   H87545349   4.910   2.700   5.843 -0.4663 -0.1367  0.4256
   38MOL   H87645350   4.918   2.679   5.589 -1.8094  0.0118 -3.6459
   38MOL   H87745351   4.747   2.712   5.586 -0.3866 -1.4666 -0.3886
   38MOL   H87845352   4.690   2.508   5.691 -0.4480 -1.9345  0.0513
   38MOL   H87945353   4.847   2.473   5.735 -1.8138  3.0298  2.3793
   38MOL   H88045354   4.898   2.490   5.461 -0.1409 -2.0199 -1.0644
   38MOL   H88145355   4.739   2.481   5.449 -1.0928  1.3767  1.6338
   38MOL   H88245356   4.872   2.272   5.624  1.6348  0.8985 -0.9228
   38MOL   H88345357   4.720   2.253   5.550 -0.9385 -0.2723 -0.8949
   38MOL   H88445358   4.789   2.219   5.318  0.1266 -1.8298 -0.7797
   38MOL   H88545359   4.946   2.257   5.355 -0.6959 -1.0560 -2.6177
   38MOL   H88645360   4.887   1.825   5.459 -0.4037  0.3654 -0.2531
   38MOL   H88745361   5.047   1.881   5.537 -0.7843  0.5440 -0.1491
   38MOL   H88845362   5.099   1.804   5.257  1.0983  0.5416  0.7094
   38MOL   H88945363   5.019   1.671   5.321 -0.1008  0.2310 -2.0677
   38MOL   H89045364   5.188   1.674   5.515 -3.0529 -1.2247 -1.4789
   38MOL   H89145365   5.259   1.815   5.443 -1.7470  1.4684 -2.1605
   38MOL   H89245366   5.407   1.647   5.386  0.0303 -0.5645 -0.6021
   38MOL   H89345367   5.338   1.698   5.240 -0.5834  0.9276 -0.2754
   38MOL   H89445368   5.182   1.507   5.217 -1.0852  0.5191  0.1599
   38MOL   H89545369   5.350   1.466   5.224 -1.5926  0.6534 -1.7270
   38MOL   H89645370   5.328   1.411   5.472 -0.2082 -0.0832  0.4219
   38MOL   H89745371   5.154   1.424   5.459 -0.8774 -1.1590 -1.2831
   38MOL   H89845372   5.324   1.232   5.285 -0.4388  3.2874 -0.8408
   38MOL   H89945373   5.157   1.257   5.280 -3.4668 -0.3460  2.4783
   38MOL   H90045374   5.241   1.051   5.404 -2.4481  0.5851 -0.6321
   38MOL   H90145375   5.304   1.142   5.534  0.4843 -1.5230 -0.4358
   38MOL   O90245376   5.117   1.109   5.663 -0.4695  0.3426 -0.2371
   38MOL   C90345377   5.014   1.094   5.758  0.8842  0.5485 -0.3467
   38MOL   C90445378   5.000   0.954   5.814 -0.4509 -0.1235 -0.0250
   38MOL   C90545379   4.930   0.860   5.716 -0.2266 -0.2454  0.2832
   38MOL   C90645380   4.785   0.897   5.674 -0.3207 -0.1951 -0.0086
   38MOL   C90745381   4.721   0.800   5.574  0.8079 -0.7625  0.1049
   38MOL   C90845382   4.572   0.829   5.557 -0.1128  0.0133  0.0028
   38MOL   C90945383   4.492   0.713   5.486 -0.4366  0.8438  0.4985
   38MOL   C91045384   4.340   0.711   5.507 -0.5797  0.3247 -0.0374
   38MOL   C91145385   4.247   0.645   5.398 -0.4823 -0.3458 -0.2098
   38MOL   C91245386   4.259   0.489   5.400  0.1884  0.1487  0.3715
   38MOL   O91345387   4.380   0.445   5.340  0.0961  0.1093  0.4689
   38MOL   C91445388   4.469   0.364   5.406 -0.4382  0.0057  0.5600
   38MOL   O91545389   4.452   0.317   5.522 -0.0137  0.5862  0.0644
   38MOL   C91645390   4.598   0.338   5.327 -0.1673 -0.4408 -0.0325
   38MOL   C91745391   4.692   0.460   5.306 -0.2240  0.3320  0.6538
   38MOL   C91845392   4.671   0.558   5.193  0.4094  0.0609  0.1185
   38MOL   C91945393   4.769   0.673   5.173 -0.4038 -0.3576 -0.4901
   38MOL   C92045394   4.916   0.626   5.144  0.7770 -0.1426  0.4966
   38MOL   C92145395   5.016   0.734   5.117 -1.0194 -0.2297 -0.0883
   38MOL   C92245396   5.163   0.693   5.102 -0.4969  0.6757  0.2456
   38MOL   C92345397   5.219   0.631   5.233 -0.7892  0.1741 -0.7411
   38MOL   C92445398   5.234   0.732   5.347  0.4053 -0.0311 -0.3873
   38MOL   O92545399   5.266   0.850   5.317 -0.0521  0.1445 -1.2526
   38MOL   H92645400   5.037   1.155   5.845  2.6790 -1.3968  0.6024
   38MOL   H92745401   4.918   1.134   5.726 -0.2640 -0.2419  1.9762
   38MOL   H92845402   5.098   0.913   5.841 -1.3388 -1.5421  1.1264
   38MOL   H92945403   4.943   0.970   5.906 -1.5373  3.4919 -1.2448
   38MOL   H93045404   4.992   0.857   5.626  1.2437  4.1566  1.0161
   38MOL   H93145405   4.917   0.762   5.760  2.1806 -1.4479 -1.5463
   38MOL   H93245406   4.724   0.911   5.763  0.1302  0.5477  0.1860
   38MOL   H93345407   4.784   0.997   5.632  1.2054 -0.0275  0.3188
   38MOL   H93445408   4.733   0.698   5.608  2.7235 -0.9033 -0.8758
   38MOL   H93545409   4.782   0.804   5.483 -1.1345  0.5055 -1.1933
   38MOL   H93645410   4.551   0.926   5.511 -1.1164  0.5275  1.5087
   38MOL   H93745411   4.525   0.841   5.655  0.4634 -2.8094  0.6764
   38MOL   H93845412   4.535   0.617   5.514  0.1630  1.1815  0.7497
   38MOL   H93945413   4.517   0.724   5.381 -0.0294  0.3388  0.5407
   38MOL   H94045414   4.302   0.813   5.503 -1.3328  0.0015 -1.6528
   38MOL   H94145415   4.328   0.675   5.609 -1.7234 -1.0045 -0.6230
   38MOL   H94245416   4.140   0.652   5.418 -0.6122 -0.1260 -0.9660
   38MOL   H94345417   4.260   0.683   5.296  1.3457 -2.4065 -0.7720
   38MOL   H94445418   4.245   0.437   5.494  2.6361  0.0067  0.6789
   38MOL   H94545419   4.175   0.452   5.342 -0.3618  0.1533  1.1595
   38MOL   H94645420   4.577   0.305   5.225  1.3281  0.4784 -0.6551
   38MOL   H94745421   4.654   0.266   5.387 -1.0824 -2.3389 -1.3903
   38MOL   H94845422   4.786   0.406   5.318  0.3503  0.5274 -2.6162
   38MOL   H94945423   4.686   0.521   5.396  1.2108  1.7320 -0.1785
   38MOL   H95045424   4.576   0.608   5.209  0.0305 -0.0202 -1.7767
   38MOL   H95145425   4.652   0.499   5.104  1.6558  1.2556 -0.9620
   38MOL   H95245426   4.769   0.746   5.254  1.8001 -0.2003 -0.6073
   38MOL   H95345427   4.735   0.735   5.090 -1.3188  1.6287  1.3256
   38MOL   H95445428   4.961   0.565   5.223  0.8949 -0.1724  0.4070
   38MOL   H95545429   4.910   0.546   5.069 -1.1637 -0.9626  1.4846
   38MOL   H95645430   4.988   0.774   5.019  1.3614  0.9207 -0.3319
   38MOL   H95745431   5.008   0.816   5.188 -0.8275 -0.3195  0.0357
   38MOL   H95845432   5.217   0.781   5.067 -1.6297  0.9424 -0.8747
   38MOL   H95945433   5.167   0.628   5.015 -5.1842  0.5162 -0.0044
   38MOL   H96045434   5.163   0.549   5.278  0.5225 -0.8446 -0.9256
   38MOL   H96145435   5.320   0.591   5.220 -0.6687 -0.0703  0.8160
   38MOL   O96245436   5.217   0.686   5.477 -0.5702 -0.2777  0.3380
   38MOL   C96345437   5.245   0.774   5.587  0.3729 -0.0689  0.5683
   38MOL   C96445438   5.389   0.780   5.623 -0.8121 -0.0644 -0.3462
   38MOL   C96545439   5.402   0.856   5.755 -0.9151  0.4277 -0.2354
   38MOL   C96645440   5.549   0.870   5.816  0.2320 -0.2736  1.2945
   38MOL   C96745441   5.584   0.747   5.901  0.1284 -0.4362  0.0954
   38MOL   C96845442   5.537   0.751   6.047  0.2552 -0.0094  0.6484
   38MOL   C96945443   5.579   0.626   6.124 -0.2306  0.2904  0.8371
   38MOL   C97045444   5.530   0.630   6.274 -0.4635 -0.4587  0.0663
   38MOL   C97145445   5.584   0.504   6.345 -0.6400  0.1176  0.0312
   38MOL   C97245446   5.545   0.500   6.492 -0.3494  0.3314 -0.7770
   38MOL   O97345447   5.403   0.499   6.489 -0.1717  0.2952  0.3321
   38MOL   C97445448   5.324   0.592   6.553  0.7835 -0.6035 -0.7744
   38MOL   O97545449   5.368   0.688   6.612  0.4163 -1.2380 -0.3039
   38MOL   C97645450   5.174   0.543   6.542  0.0999 -0.1746 -0.2528
   38MOL   C97745451   5.073   0.581   6.654  0.4714  0.3662  0.5217
   38MOL   C97845452   4.922   0.548   6.618  0.6963 -0.5523 -0.3652
   38MOL   C97945453   4.830   0.564   6.742 -0.2033  0.0784 -0.9190
   38MOL   C98045454   4.698   0.489   6.742 -0.6183 -0.2214  0.1457
   38MOL   C98145455   4.628   0.496   6.876  0.8783  0.3572 -0.5669
   38MOL   C98245456   4.490   0.428   6.883 -0.0911 -1.0117 -0.3705
   38MOL   C98345457   4.498   0.283   6.937  0.5144 -0.4671 -0.1743
   38MOL   C98445458   4.381   0.243   7.023 -0.3073  0.3932 -0.0071
   38MOL   O98545459   4.396   0.221   7.139 -0.0290 -0.4181  0.3226
   38MOL   H98645460   5.223   0.877   5.560 -1.1338 -0.8476 -1.3701
   38MOL   H98745461   5.179   0.744   5.669  2.9181 -1.8198  2.0522
   38MOL   H98845462   5.427   0.678   5.632 -1.7233 -0.3332  0.5355
   38MOL   H98945463   5.453   0.832   5.552  0.2808 -0.5936  0.2503
   38MOL   H99045464   5.368   0.958   5.734  0.9974  1.1995  0.2646
   38MOL   H99145465   5.328   0.823   5.828  0.3129 -0.0193  0.8147
   38MOL   H99245466   5.625   0.875   5.738  0.0651  1.7797  1.2479
   38MOL   H99345467   5.561   0.961   5.873  3.3041 -0.1122  0.4553
   38MOL   H99445468   5.692   0.740   5.903  0.1901  0.2353 -0.5742
   38MOL   H99545469   5.553   0.658   5.846  0.3682 -1.5264  1.6895
   38MOL   H99645470   5.428   0.758   6.038  0.0549 -1.5383  1.7037
   38MOL   H99745471   5.571   0.847   6.085  1.9491 -0.2999 -0.1117
   38MOL   H99845472   5.687   0.622   6.112 -0.4609 -1.4390 -0.9102
   38MOL   H99945473   5.527   0.537   6.088 -0.9830  0.1908  2.1218
   38MOL     H145474   5.422   0.621   6.262 -0.5927  1.2675 -0.2321
   38MOL     H245475   5.561   0.718   6.330 -0.4522 -0.3884 -0.0486
   38MOL     H345476   5.545   0.420   6.288 -1.0510  0.7389 -0.6050
   38MOL     H445477   5.693   0.500   6.340 -0.4929 -0.8560  2.8398
   38MOL     H545478   5.578   0.408   6.541 -0.4492  0.3692 -0.6366
   38MOL     H645479   5.582   0.584   6.550 -2.0275  1.6574 -1.5939
   38MOL     H745480   5.189   0.435   6.538  2.1015 -0.0142  1.7644
   38MOL     H845481   5.141   0.572   6.442  1.0252  0.3834 -0.3993
   38MOL     H945482   5.078   0.689   6.670  0.9988  0.6915 -1.6860
   38MOL    H1045483   5.099   0.543   6.752 -1.1428 -1.9623  0.0804
   38MOL    H1145484   4.913   0.446   6.581  0.7847 -0.8274  0.3643
   38MOL    H1245485   4.874   0.611   6.543 -2.1507 -0.9833  1.0111
   38MOL    H1345486   4.809   0.670   6.759 -1.0417 -0.4649  1.5975
   38MOL    H1445487   4.877   0.539   6.837 -0.7282 -1.4633 -1.0628
   38MOL    H1545488   4.640   0.511   6.653  0.4081  1.6429 -0.1017
   38MOL    H1645489   4.717   0.385   6.717  0.2608  0.4499 -2.1596
   38MOL    H1745490   4.689   0.455   6.956 -0.0294  0.9631  0.4526
   38MOL    H1845491   4.628   0.601   6.904  1.0940  0.2352 -0.1021
   38MOL    H1945492   4.443   0.452   6.787  1.9070 -1.3833 -1.4850
   38MOL    H2045493   4.431   0.486   6.953  0.7792  1.4659 -1.6272
   38MOL    H2145494   4.493   0.225   6.845  1.5205  0.7568 -1.0152
   38MOL    H2245495   4.591   0.250   6.984  0.0512 -0.1497  0.9984
   38MOL    O2345496   4.262   0.243   6.964 -1.1962  0.5755  0.0347
   38MOL    C2445497   4.147   0.228   7.043  0.1289 -0.7614  0.7489
   38MOL    C2545498   4.034   0.303   6.971 -0.3135  0.6075  0.5586
   38MOL    C2645499   4.072   0.453   6.939 -0.3228 -0.3282  0.5834
   38MOL    C2745500   4.108   0.478   6.798  0.3268  0.1001  0.3962
   38MOL    C2845501   4.157   0.618   6.773  0.1999 -0.2991  0.0528
   38MOL    C2945502   4.036   0.716   6.760 -0.7254 -0.8017  0.4299
   38MOL    C3045503   4.055   0.862   6.710  0.1377 -0.7837  0.0226
   38MOL    C3145504   3.930   0.953   6.697 -0.6813  0.1068 -0.3359
   38MOL    C3245505   3.883   1.003   6.831  0.7497 -0.7844  0.3589
   38MOL    C3345506   3.738   1.047   6.810  0.2317  0.6440  0.0159
   38MOL    O3445507   3.693   1.114   6.921 -0.3910 -0.0173 -0.6077
   38MOL    C3545508   3.722   1.244   6.931  0.5176 -0.7343 -0.9483
   38MOL    O3645509   3.784   1.313   6.854 -0.1624 -0.1433 -0.8192
   38MOL    C3745510   3.661   1.313   7.056  1.1813 -0.1216 -0.4392
   38MOL    C3845511   3.714   1.255   7.192 -0.1022 -0.8369 -0.4093
   38MOL    C3945512   3.634   1.280   7.319  0.1554  0.5335 -0.0021
   38MOL    C4045513   3.633   1.432   7.354  0.2286  0.7414  0.2120
   38MOL    C4145514   3.539   1.467   7.468  0.0352  0.4136  0.3005
   38MOL    C4245515   3.394   1.489   7.412 -0.0167  0.5855 -0.4533
   38MOL    C4345516   3.306   1.540   7.516  0.2722 -0.5269  0.4141
   38MOL    C4445517   3.159   1.530   7.476 -0.7527  0.1418 -0.3288
   38MOL    C4545518   3.093   1.401   7.529  0.8499  0.2680 -0.6543
   38MOL    O4645519   3.100   1.296   7.461 -0.3057  0.7490  0.4093
   38MOL    H4745520   4.136   0.120   7.044 -0.3282 -0.7505 -1.1998
   38MOL    H4845521   4.165   0.266   7.143  2.3588 -1.9263  0.8110
   38MOL    H4945522   4.013   0.258   6.875  0.3960 -0.2045  0.7829
   38MOL    H5045523   3.946   0.296   7.035 -1.2020  0.0496 -0.7004
   38MOL    H5145524   3.981   0.508   6.965  0.8682  1.1106  1.8108
   38MOL    H5245525   4.142   0.490   7.013 -1.3914  2.7653  0.1216
   38MOL    H5345526   4.193   0.416   6.771  1.3851  2.1751 -1.2663
   38MOL    H5445527   4.035   0.448   6.723 -0.9990  0.6922  1.4296
   38MOL    H5545528   4.207   0.618   6.676  2.7340  1.5880  1.3192
   38MOL    H5645529   4.236   0.640   6.845 -0.7570 -1.4664  1.4909
   38MOL    H5745530   4.007   0.737   6.863 -2.8446  3.3129 -0.9182
   38MOL    H5845531   3.950   0.665   6.716  0.7973 -1.8655 -1.3759
   38MOL    H5945532   4.093   0.849   6.609 -0.3904  3.4577 -0.8165
   38MOL    H6045533   4.136   0.922   6.754 -0.5695 -0.5490  1.0114
   38MOL    H6145534   3.853   0.895   6.645 -2.4637  2.5089 -0.4467
   38MOL    H6245535   3.955   1.034   6.628  0.0714 -0.0815 -0.2905
   38MOL    H6345536   3.874   0.925   6.907 -1.6567 -0.7492  0.1497
   38MOL    H6445537   3.941   1.086   6.870  1.5687 -1.0313 -0.3039
   38MOL    H6545538   3.739   1.114   6.724  1.9925 -0.1361 -0.6054
   38MOL    H6645539   3.669   0.965   6.790 -1.0444  1.7922 -0.3912
   38MOL    H6745540   3.553   1.298   7.062  1.3713 -1.0637  1.0271
   38MOL    H6845541   3.689   1.418   7.056  2.0867 -0.3633 -0.6557
   38MOL    H6945542   3.816   1.295   7.199 -0.2616 -0.2211 -1.5399
   38MOL    H7045543   3.726   1.148   7.176  0.8841 -1.3662  3.3519
   38MOL    H7145544   3.663   1.228   7.410 -2.5480  0.2881  0.7689
   38MOL    H7245545   3.534   1.252   7.288 -0.0547 -0.0157  1.1355
   38MOL    H7345546   3.610   1.493   7.266  2.0015  1.0028 -0.0916
   38MOL    H7445547   3.734   1.459   7.383  0.9154  0.8051 -2.1296
   38MOL    H7545548   3.535   1.399   7.553 -1.2566  2.1256  1.6421
   38MOL    H7645549   3.574   1.558   7.516  3.1583 -0.4701 -0.2266
   38MOL    H7745550   3.397   1.567   7.336  0.8170  0.8806 -0.1206
   38MOL    H7845551   3.359   1.398   7.363 -0.8374  0.4109  0.4618
   38MOL    H7945552   3.331   1.646   7.522 -0.6326 -0.1467 -1.8756
   38MOL    H8045553   3.321   1.490   7.612 -0.5785  0.1793  0.9271
   38MOL    H8145554   3.111   1.614   7.526  3.1820 -0.5320  5.1175
   38MOL    H8245555   3.136   1.547   7.371  1.1415  2.9286 -0.3331
   38MOL    O8345556   3.037   1.416   7.657  0.7329  0.3328  0.1046
   38MOL    C8445557   2.970   1.304   7.710  0.1599 -0.0731 -0.9300
   38MOL    C8545558   2.981   1.317   0.111  0.4968  0.2609 -0.1589
   38MOL    C8645559   2.934   1.192   0.189 -0.6564  0.4596  0.0186
   38MOL    C8745560   3.041   1.077   0.174 -0.1162 -0.5613 -0.1857
   38MOL    C8845561   3.027   0.969   0.284  0.0163 -0.4231  0.0023
   38MOL    C8945562   3.086   0.839   0.236  0.1501 -1.0432  0.3947
   38MOL    C9045563   3.236   0.827   0.245 -0.6433  0.0087 -0.7227
   38MOL    C9145564   3.292   0.824   0.390 -0.2447  0.3628 -0.6552
   38MOL    C9245565   3.440   0.790   0.398  0.3425 -0.0141 -0.5664
   38MOL    C9345566   3.490   0.764   0.544  0.3817  0.2880 -0.9774
   38MOL    O9445567   3.628   0.748   0.526 -0.3297  0.5117 -0.0141
   38MOL    C9545568   3.719   0.801   0.612 -0.0772  0.2168 -0.2054
   38MOL    O9645569   3.696   0.862   0.718 -0.0756  0.3197  0.6366
   38MOL    C9745570   3.856   0.786   0.556 -1.2743 -0.2244  0.0718
   38MOL    C9845571   3.952   0.705   0.645 -0.2030  0.0519  0.1120
   38MOL    C9945572   4.028   0.781   0.758 -0.4495 -0.2772 -0.1349
   38MOL   C10045573   4.166   0.722   0.807 -0.2794  1.0102 -0.3038
   38MOL   C10145574   4.219   0.796   0.925 -0.7432 -0.0427  0.3782
   38MOL   C10245575   4.357   0.743   0.969 -0.5455 -0.1061 -1.0516
   38MOL   C10345576   4.413   0.825   1.086 -0.2345 -0.4727 -0.2261
   38MOL   C10445577   4.316   0.846   1.210 -0.3116  0.0033  0.0322
   38MOL   C10545578   4.288   0.717   1.289 -0.0065  0.5236  0.1787
   38MOL   O10645579   4.340   0.691   1.398 -0.5013  0.6114  0.6995
   38MOL   H10745580   2.864   1.310   7.685 -0.5526 -2.9950  1.0562
   38MOL   H10845581   3.009   1.212   7.666  1.7072 -0.7641  1.7679
   38MOL   H10945582   3.088   1.328   0.126  0.6889 -0.6389 -0.8534
   38MOL   H11045583   2.934   1.410   0.146  0.1671 -1.1402  3.4047
   38MOL   H11145584   2.916   1.210   0.295  2.8567  0.2382  0.7221
   38MOL   H11245585   2.842   1.170   0.135 -0.1904 -1.4186 -0.0360
   38MOL   H11345586   3.039   1.035   0.073  0.5183  0.2736 -0.5492
   38MOL   H11445587   3.142   1.112   0.194 -0.9110  0.0786  2.8384
   38MOL   H11545588   2.920   0.958   0.301 -0.3727  1.1297 -1.2664
   38MOL   H11645589   3.079   1.003   0.374 -0.6136  0.8313 -0.0873
   38MOL   H11745590   3.066   0.830   0.129 -1.3543 -3.2971  0.8265
   38MOL   H11845591   3.036   0.764   0.298 -0.2641 -1.3880 -0.3496
   38MOL   H11945592   3.283   0.916   0.202  1.4435 -1.5396 -1.6949
   38MOL   H12045593   3.274   0.737   0.198 -0.5475  1.5763 -3.7936
   38MOL   H12145594   3.236   0.741   0.434  1.0599  0.6818  1.6811
   38MOL   H12245595   3.274   0.906   0.459 -0.9933  0.9732 -1.5701
   38MOL   H12345596   3.457   0.694   0.348  0.4295  0.6969 -1.9141
   38MOL   H12445597   3.494   0.870   0.348 -1.7029  0.1572 -2.6046
   38MOL   H12545598   3.466   0.834   0.625 -2.6018 -2.1244  0.3367
   38MOL   H12645599   3.452   0.669   0.582 -0.6309  1.8512  2.0997
   38MOL   H12745600   3.901   0.885   0.546 -2.3156  0.3108  0.5825
   38MOL   H12845601   3.851   0.738   0.458 -2.4456  0.2275 -0.0930
   38MOL   H12945602   4.023   0.654   0.580  2.3193  2.1958  1.1032
   38MOL   H13045603   3.890   0.626   0.687 -0.3826 -0.2103 -0.6473
   38MOL   H13145604   3.956   0.794   0.838 -0.4738  0.2959 -0.2433
   38MOL   H13245605   4.057   0.880   0.722  1.6790 -0.4731  0.9781
   38MOL   H13345606   4.238   0.730   0.725  0.6971  2.2907  0.6495
   38MOL   H13445607   4.147   0.620   0.839 -1.0052  0.8414 -1.2734
   38MOL   H13545608   4.240   0.901   0.906  1.3942 -0.5621 -0.2241
   38MOL   H13645609   4.150   0.788   1.008  0.2150  2.0243  1.4038
   38MOL   H13745610   4.366   0.639   0.999 -2.8471 -0.0817 -0.2024
   38MOL   H13845611   4.431   0.743   0.889  0.5678 -1.6717 -0.0572
   38MOL   H13945612   4.434   0.930   1.066 -1.5192 -0.3760 -1.1801
   38MOL   H14045613   4.502   0.775   1.124  0.4637  2.2146  1.7358
   38MOL   H14145614   4.354   0.926   1.274 -1.4633  1.4924 -1.1092
   38MOL   H14245615   4.225   0.886   1.167 -1.2474 -0.3896  1.6168
   38MOL   O14345616   4.198   0.641   1.218 -0.5675  0.1088  0.6424
   38MOL   C14445617   4.146   0.531   1.292 -0.0319 -0.2218 -0.5888
   38MOL   C14545618   4.040   0.458   1.200  0.0279  0.1565 -0.7080
   38MOL   C14645619   3.905   0.526   1.195 -0.4585  0.4976 -0.1290
   38MOL   C14745620   3.817   0.470   1.081  0.0783  0.1370  0.2613
   38MOL   C14845621   3.684   0.538   1.063 -0.2260  0.0384  0.5741
   38MOL   C14945622   3.602   0.468   0.950 -0.2124 -0.0033 -0.3544
   38MOL   C15045623   3.462   0.535   0.927 -0.3716 -0.0926 -0.2719
   38MOL   C15145624   3.385   0.459   0.821 -0.8157 -0.3993 -0.3023
   38MOL   C15245625   3.238   0.490   0.821  0.2986 -0.5443 -0.4829
   38MOL   C15345626   3.156   0.411   0.713 -0.3675 -0.7706  0.6147
   38MOL   O15445627   3.021   0.442   0.744  0.0865 -0.4341 -0.4126
   38MOL   C15545628   2.961   0.544   0.688 -0.6477 -0.2697  0.4200
   38MOL   O15645629   3.013   0.629   0.617  0.0790 -0.3596 -0.0588
   38MOL   C15745630   2.819   0.551   0.730 -0.2152  0.2319  0.8415
   38MOL   C15845631   2.747   0.692   0.708 -0.3158  0.3201 -0.5783
   38MOL   C15945632   2.603   0.680   0.766 -0.5798  0.3226  0.9108
   38MOL   C16045633   2.528   0.804   0.741 -0.3843 -0.2916 -0.7666
   38MOL   C16145634   2.400   0.820   0.817  0.4383  0.2037  0.2411
   38MOL   C16245635   2.330   0.951   0.786 -0.0537 -0.2551  0.5115
   38MOL   C16345636   2.174   0.949   0.802  0.5652  0.0059 -0.1114
   38MOL   C16445637   2.093   1.012   0.683 -0.4955 -0.7233  0.6768
   38MOL   C16545638   2.124   1.160   0.650  0.2411 -0.4095 -0.3066
   38MOL   O16645639   2.191   1.236   0.732  0.5490  0.6996 -0.0742
   38MOL   H16745640   4.229   0.462   1.307  1.2162  1.2105 -0.7639
   38MOL   H16845641   4.105   0.556   1.390  0.6608  1.5662 -0.7417
   38MOL   H16945642   4.075   0.459   1.097 -0.0010  2.7438 -0.7183
   38MOL   H17045643   4.032   0.350   1.208  1.2244  0.0632 -0.6379
   38MOL   H17145644   3.854   0.515   1.290 -0.8606  0.4715 -0.3479
   38MOL   H17245645   3.921   0.630   1.163 -1.2932  0.4716 -0.6354
   38MOL   H17345646   3.880   0.476   0.993  1.0448 -1.0455  0.8625
   38MOL   H17445647   3.802   0.365   1.105  0.7500 -0.1078 -0.3893
   38MOL   H17545648   3.704   0.645   1.049  0.4995 -0.0101  1.1785
   38MOL   H17645649   3.620   0.525   1.150  0.1850  3.0087  1.3776
   38MOL   H17745650   3.591   0.366   0.985 -0.5085  0.4095  0.7810
   38MOL   H17845651   3.660   0.467   0.857  2.3478  0.3184  1.1869
   38MOL   H17945652   3.469   0.641   0.903  0.6821 -0.0743  0.0932
   38MOL   H18045653   3.414   0.531   1.025  0.7722 -1.3312  0.2416
   38MOL   H18145654   3.396   0.352   0.843 -0.7421 -0.7892 -2.1697
   38MOL   H18245655   3.431   0.493   0.728 -1.8232  0.3861 -0.5109
   38MOL   H18345656   3.194   0.485   0.921  0.0412  2.2871 -0.4074
   38MOL   H18445657   3.230   0.593   0.788 -0.9239 -1.5093 -3.3866
   38MOL   H18545658   3.181   0.435   0.609 -0.1725 -0.9774  0.6147
   38MOL   H18645659   3.171   0.303   0.711 -1.5209 -0.9251 -1.2746
   38MOL   H18745660   2.815   0.514   0.833 -1.1546  0.6661  0.9698
   38MOL   H18845661   2.775   0.477   0.663  1.7878  1.7935 -2.2810
   38MOL   H18945662   2.716   0.713   0.606 -2.1084  0.3004 -0.0666
   38MOL   H19045663   2.790   0.780   0.756 -0.6290  0.4147 -0.4715
   38MOL   H19145664   2.603   0.650   0.871 -2.0772  4.4433  2.1596
   38MOL   H19245665   2.552   0.594   0.723  0.0394 -0.1957  1.1950
   38MOL   H19345666   2.509   0.815   0.634  0.5204  1.0139 -0.8139
   38MOL   H19445667   2.579   0.898   0.764 -0.2998 -0.8083  1.1739
   38MOL   H19545668   2.328   0.740   0.796  0.2695  0.0239  1.4949
   38MOL   H19645669   2.415   0.819   0.925  0.6524  0.5792  0.2123
   38MOL   H19745670   2.376   1.035   0.838  0.1550 -1.4537  2.2848
   38MOL   H19845671   2.336   0.973   0.679 -0.3497  1.5935  0.8503
   38MOL   H19945672   2.140   0.996   0.895 -1.7870  1.4708 -1.6562
   38MOL   H20045673   2.152   0.842   0.800 -0.6047  0.1773  2.0581
   38MOL   H20145674   2.114   0.952   0.595  1.0805 -0.6489  0.9819
   38MOL   H20245675   1.985   0.997   0.692 -0.3687 -2.4798 -0.4921
   38MOL   H20345676   2.082   1.195   0.556  1.1311  0.5142 -0.3591
   39MOL     O145677   6.514   5.810   5.788  0.9571  0.2542  0.1235
   39MOL     C245678   6.404   5.890   5.828 -0.5145  0.6388 -0.2013
   39MOL     C345679   6.267   5.811   5.828 -0.5834  0.7735  0.5859
   39MOL     C445680   6.272   5.699   5.935 -0.7542  0.0062 -0.3565
   39MOL     C545681   6.152   5.608   5.938  0.3130 -0.1584  0.0328
   39MOL     C645682   6.138   5.530   6.073  0.5108  0.3259  0.0456
   39MOL     C745683   6.225   5.406   6.094 -0.3064 -0.3627 -0.1724
   39MOL     C845684   6.184   5.320   6.217 -0.4571 -0.0145 -0.5310
   39MOL     C945685   6.274   5.200   6.245 -0.1922  0.4651  0.5513
   39MOL    C1045686   6.264   5.096   6.132 -0.6532  0.4005 -0.1921
   39MOL    C1145687   6.352   4.979   6.172 -0.0828  0.4088 -0.2045
   39MOL    O1245688   6.486   5.031   6.198  0.1102  0.4669 -0.4124
   39MOL    C1345689   6.552   4.998   6.312  0.5019 -0.5671 -0.2915
   39MOL    O1445690   6.514   4.922   6.400  0.3897 -0.5629  0.1579
   39MOL    C1545691   6.681   5.072   6.311 -1.0708 -0.6778  0.0958
   39MOL    C1645692   6.754   5.093   6.448  0.2301  0.3379  0.7301
   39MOL    C1745693   6.873   5.197   6.450  1.0835  0.7734  0.2985
   39MOL    C1845694   6.985   5.159   6.352 -0.0446  0.1694  0.5185
   39MOL    C1945695   7.113   5.249   6.370  0.0531  0.5345 -0.5596
   39MOL    C2045696   7.187   5.275   6.238  1.0466 -0.0561 -0.3206
   39MOL    C2145697   7.313   5.355   6.248 -0.1782  0.3495  0.3940
   39MOL    C2245698   7.362   5.426   6.122  0.0693  0.3846 -0.0925
   39MOL    C2345699   7.395   5.341   5.998 -0.2567  0.4831  0.2617
   39MOL    O2445700   7.319   5.338   5.904  0.1824  0.8203 -0.0231
   39MOL    H2545701   6.432   5.928   5.926 -0.6822  0.0531  0.0701
   39MOL    H2645702   6.393   5.973   5.757 -1.1887 -0.6009 -1.5761
   39MOL    H2745703   6.190   5.884   5.853  0.8133  1.9033  1.6805
   39MOL    H2845704   6.238   5.772   5.730 -1.0463 -1.5149  1.5872
   39MOL    H2945705   6.363   5.640   5.917  0.7490  1.8628  0.9483
   39MOL    H3045706   6.286   5.750   6.030  0.9850 -0.0316 -0.5783
   39MOL    H3145707   6.051   5.649   5.927  0.9831  1.7051  0.6668
   39MOL    H3245708   6.140   5.534   5.859 -0.8281 -0.4504  0.4719
   39MOL    H3345709   6.035   5.493   6.076  0.6082 -0.0493 -1.3282
   39MOL    H3445710   6.159   5.593   6.160 -0.7101  1.0072 -0.1337
   39MOL    H3545711   6.327   5.443   6.104 -0.5922  0.0244  1.4611
   39MOL    H3645712   6.197   5.347   6.007 -1.7376  0.3665 -0.2221
   39MOL    H3745713   6.086   5.275   6.198 -0.1787 -1.1240  0.5830
   39MOL    H3845714   6.177   5.383   6.306  0.1819 -0.0560 -0.4503
   39MOL    H3945715   6.242   5.155   6.339  1.1390  0.6573  1.1098
   39MOL    H4045716   6.377   5.235   6.246  0.2186 -0.6202 -1.3334
   39MOL    H4145717   6.161   5.062   6.118 -0.8767  0.7535  0.5632
   39MOL    H4245718   6.290   5.145   6.038 -0.6837 -0.2600 -0.5491
   39MOL    H4345719   6.305   4.934   6.259  1.9923 -0.4613  0.5034
   39MOL    H4445720   6.357   4.898   6.098  4.0073 -2.2767  2.7582
   39MOL    H4545721   6.640   5.170   6.286 -0.9231 -0.7505 -0.4217
   39MOL    H4645722   6.754   5.051   6.234  0.8844  1.5199  1.2698
   39MOL    H4745723   6.801   4.997   6.470 -0.1859 -0.4064 -1.4471
   39MOL    H4845724   6.678   5.115   6.523  0.6049 -2.4875  2.0169
   39MOL    H4945725   6.919   5.189   6.548  0.8668  0.7851  0.4011
   39MOL    H5045726   6.829   5.294   6.425  0.2120  0.6821  1.4649
   39MOL    H5145727   6.962   5.152   6.246  1.5879  1.0730  0.0878
   39MOL    H5245728   7.014   5.057   6.376 -0.1692  0.3307  1.3639
   39MOL    H5345729   7.077   5.343   6.412 -0.0112  1.1256 -1.9096
   39MOL    H5445730   7.189   5.212   6.439  1.0905  2.4715 -0.6144
   39MOL    H5545731   7.200   5.175   6.196  0.0107 -0.8731  1.2562
   39MOL    H5645732   7.121   5.326   6.168  0.5369 -0.0232  0.1820
   39MOL    H5745733   7.388   5.287   6.289 -2.1158 -0.9727  1.8348
   39MOL    H5845734   7.295   5.439   6.315 -0.5504  1.1525 -0.6992
   39MOL    H5945735   7.289   5.495   6.079 -0.1546  1.6039  2.1663
   39MOL    H6045736   7.451   5.484   6.144 -1.0521  2.0457  0.1923
   39MOL    H6145737   6.584   5.821   5.850  1.2853 -2.8084  0.3461
   39MOL    O6245738   7.512   5.276   6.007 -0.2587 -0.3209  0.1308
   39MOL    C6345739   7.554   5.184   5.907 -0.7246 -0.7708  0.2165
   39MOL    C6445740   7.515   5.036   5.924 -0.5183 -0.7809 -0.3336
   39MOL    C6545741   7.575   4.950   5.808  0.0747 -0.3331 -0.5159
   39MOL    C6645742   7.525   4.798   5.820  0.3791 -0.4743 -0.1515
   39MOL    C6745743   7.547   4.730   5.684 -0.4781  0.5295  0.4727
   39MOL    C6845744   7.524   4.575   5.712  0.1402 -0.3884  0.4511
   39MOL    C6945745   7.654   4.499   5.705  0.1369  0.8112 -0.7124
   39MOL    C7045746   7.630   4.350   5.684 -0.3479 -0.5589 -0.0968
   39MOL    C7145747   7.751   4.269   5.710 -0.0732  0.8052 -0.8006
   39MOL    C7245748   7.729   4.122   5.662 -0.5424 -0.5273 -0.4566
   39MOL    O7345749   7.719   4.104   5.522 -0.1999 -0.5207 -0.4857
   39MOL    C7445750   7.728   3.983   5.468 -0.1132  0.7138 -0.4218
   39MOL    O7545751   7.739   3.876   5.522  0.5095 -0.4169 -0.4000
   39MOL    C7645752   7.730   3.994   5.312 -0.1636 -0.3585 -0.4058
   39MOL    C7745753   7.622   4.084   5.250 -0.3186  0.6047  0.5880
   39MOL    C7845754   7.475   4.031   5.275  0.3834  0.1861  0.1485
   39MOL    C7945755   7.470   3.881   5.235  0.0955 -0.0224 -0.3966
   39MOL    C8045756   7.326   3.819   5.222 -0.1243 -0.0731 -0.3548
   39MOL    C8145757   7.336   3.669   5.202 -0.1618 -0.2925  0.3120
   39MOL    C8245758   7.208   3.597   5.214 -0.1661 -0.6503  0.0063
   39MOL    C8345759   7.120   3.630   5.090  0.3858  0.1999 -0.3664
   39MOL    C8445760   7.147   3.535   4.979 -0.6434 -0.1011  0.3519
   39MOL    O8545761   7.244   3.456   4.971 -0.4184 -0.0798 -0.2229
   39MOL    H8645762   7.547   5.223   5.806 -1.5596 -1.1058  0.1451
   39MOL    H8745763   7.663   5.184   5.915 -0.6941  3.2160  0.5978
   39MOL    H8845764   7.544   4.983   6.014  0.5196 -1.9529 -1.3380
   39MOL    H8945765   7.407   5.022   5.917 -0.6228 -0.4860  0.6224
   39MOL    H9045766   7.558   5.002   5.714  0.3645 -0.0093 -0.3871
   39MOL    H9145767   7.683   4.934   5.807  0.2254  0.7090 -0.6497
   39MOL    H9245768   7.571   4.738   5.899 -1.9845 -4.1104 -1.4214
   39MOL    H9345769   7.426   4.798   5.864  0.5795 -0.5800  0.3037
   39MOL    H9445770   7.649   4.740   5.647 -0.6125  0.8463  0.1895
   39MOL    H9545771   7.471   4.765   5.614  0.0492  0.5892 -0.0760
   39MOL    H9645772   7.482   4.542   5.617  2.1994  0.4021 -0.7731
   39MOL    H9745773   7.456   4.553   5.794  0.5341 -0.6186  0.7204
   39MOL    H9845774   7.704   4.531   5.796  1.0576  0.6310 -1.1479
   39MOL    H9945775   7.718   4.531   5.622 -0.2840  2.0660 -0.5664
   39MOL   H10045776   7.602   4.342   5.579  1.4627  0.1611 -0.6637
   39MOL   H10145777   7.550   4.306   5.744 -1.0694 -0.1101 -0.7265
   39MOL   H10245778   0.088   4.308   5.670  0.3843  0.1965 -0.3468
   39MOL   H10345779   0.014   4.250   5.816  2.8472  0.2929 -1.3947
   39MOL   H10445780   0.061   4.065   5.690 -0.8977 -0.3656  0.9975
   39MOL   H10545781   7.640   4.076   5.705  0.2315  0.6058  2.4670
   39MOL   H10645782   7.725   3.893   5.271 -1.6317 -1.1963  1.7066
   39MOL   H10745783   0.073   4.032   5.290 -0.0796 -0.6120 -0.4670
   39MOL   H10845784   7.643   4.092   5.143 -0.3188 -0.1340  0.5263
   39MOL   H10945785   7.636   4.188   5.280 -0.7617  1.2688 -1.3643
   39MOL   H11045786   7.398   4.085   5.221 -0.1159 -2.7253 -2.2011
   39MOL   H11145787   7.446   4.051   5.378 -2.4999  0.9439 -0.7713
   39MOL   H11245788   7.535   3.819   5.297  0.0852  0.0221 -0.3401
   39MOL   H11345789   7.514   3.872   5.136  0.2797  1.3040 -0.4382
   39MOL   H11445790   7.264   3.848   5.307  0.3208  1.0765 -0.4184
   39MOL   H11545791   7.270   3.866   5.140  1.7156  1.8790 -0.5210
   39MOL   H11645792   7.387   3.649   5.108  1.4088  1.8226  0.6766
   39MOL   H11745793   7.403   3.625   5.276  0.2917  0.9301  0.6476
   39MOL   H11845794   7.150   3.640   5.296  1.0759 -1.5739  1.3930
   39MOL   H11945795   7.209   3.490   5.238 -0.4881 -0.9120 -1.1193
   39MOL   H12045796   7.015   3.624   5.116  0.7147 -1.1474  0.7041
   39MOL   H12145797   7.140   3.726   5.042  1.9348  0.4692  0.7621
   39MOL   O12245798   7.045   3.545   4.890  0.5382  0.2154  0.3006
   39MOL   C12345799   7.052   3.461   4.772  0.2519  0.3190 -0.1745
   39MOL   C12445800   7.086   3.544   4.647  0.3219  0.0849  1.1016
   39MOL   C12545801   7.155   3.466   4.537  0.3059 -0.1477 -0.1167
   39MOL   C12645802   7.298   3.425   4.579  0.1852 -0.4763 -0.2210
   39MOL   C12745803   7.384   3.360   4.474  0.0638  0.0567  0.5309
   39MOL   C12845804   7.354   3.215   4.445  0.5402  0.9215  0.3487
   39MOL   C12945805   7.471   3.151   4.373 -0.0165 -0.2971  0.2513
   39MOL   C13045806   7.436   3.016   4.305  0.1998 -0.0659  0.2560
   39MOL   C13145807   7.429   2.901   4.414  0.4851  0.4029 -0.7467
   39MOL   C13245808   7.429   2.768   4.342 -0.0513  0.0357 -0.2918
   39MOL   O13345809   7.432   2.673   4.443 -0.1976  0.4729 -0.1250
   39MOL   C13445810   7.428   2.545   4.411 -0.2974 -0.1286  0.5398
   39MOL   O13545811   7.428   2.510   4.292 -0.5777  0.0092  0.3343
   39MOL   C13645812   7.414   2.457   4.528  0.1493  0.6995 -0.2805
   39MOL   C13745813   7.275   2.451   4.583  0.4390 -0.2130  0.5578
   39MOL   C13845814   7.234   2.553   4.694  0.0329  0.7752  0.1633
   39MOL   C13945815   7.083   2.553   4.749 -0.5668  0.5983  0.2021
   39MOL   C14045816   7.063   2.648   4.875 -0.2399  0.3737  0.5138
   39MOL   C14145817   7.168   2.654   4.988 -0.0871  0.0517  0.5039
   39MOL   C14245818   7.184   2.523   5.060 -0.3423  0.4818  0.1817
   39MOL   C14345819   7.283   2.524   5.174 -0.1956  0.2644  0.0911
   39MOL   C14445820   7.297   2.388   5.242  0.2750 -0.4135  0.1614
   39MOL   O14545821   7.404   2.333   5.245  0.1636  0.1724 -0.2686
   39MOL   H14645822   7.108   3.370   4.793 -0.0190  0.1737 -0.0810
   39MOL   H14745823   6.959   3.407   4.752  0.6332  0.9521 -3.9864
   39MOL   H14845824   6.999   3.601   4.614  0.0502  0.8449  3.0621
   39MOL   H14945825   7.150   3.628   4.673  1.5263 -0.3847 -0.2716
   39MOL   H15045826   7.095   3.378   4.515 -0.4379  0.1787  0.6006
   39MOL   H15145827   7.155   3.528   4.448  0.7151 -0.0685 -0.0642
   39MOL   H15245828   7.359   3.511   4.607 -0.9980  1.2942 -2.9204
   39MOL   H15345829   7.291   3.358   4.665 -1.6320 -0.5652 -0.4155
   39MOL   H15445830   7.486   3.350   4.509  0.2512  0.5100  0.1100
   39MOL   H15545831   7.377   3.421   4.384 -0.4666  0.0943  0.5930
   39MOL   H15645832   7.266   3.201   4.383  2.7693 -2.2872 -2.2792
   39MOL   H15745833   7.330   3.151   4.530 -1.2943 -2.2296 -2.4434
   39MOL   H15845834   7.558   3.136   4.436  0.5136  3.7446  0.6061
   39MOL   H15945835   7.492   3.226   4.297  2.2117  0.2552  1.3849
   39MOL   H16045836   7.508   2.987   4.229 -2.4660 -1.4939 -1.8233
   39MOL   H16145837   7.341   3.029   4.253 -0.3720 -1.0654  1.0431
   39MOL   H16245838   7.520   2.910   4.473 -1.9174  0.2804  3.1256
   39MOL   H16345839   7.347   2.917   4.484  1.4433 -0.4641  0.5920
   39MOL   H16445840   7.344   2.757   4.274 -0.9894 -1.8954  1.1498
   39MOL   H16545841   7.522   2.752   4.287  1.0097 -0.2339  1.5577
   39MOL   H16645842   7.475   2.512   4.599  1.5295 -2.0782  0.7252
   39MOL   H16745843   7.454   2.359   4.503 -1.3490  0.0390 -0.1981
   39MOL   H16845844   7.250   2.357   4.633  0.4770 -0.3600  0.3013
   39MOL   H16945845   7.199   2.447   4.504 -0.0640  1.1036  0.9656
   39MOL   H17045846   7.270   2.653   4.671  1.0435  0.6626  1.2219
   39MOL   H17145847   7.297   2.536   4.781  2.4366 -1.1749 -1.9069
   39MOL   H17245848   7.039   2.456   4.774  0.1955  0.6680  1.8848
   39MOL   H17345849   7.041   2.597   4.659  2.2233  0.7891 -1.0562
   39MOL   H17445850   7.041   2.746   4.832  0.7867 -0.0792 -1.1001
   39MOL   H17545851   6.968   2.634   4.927 -0.2311  3.2048  1.4066
   39MOL   H17645852   7.266   2.678   4.946  0.0376 -1.4747 -0.1265
   39MOL   H17745853   7.137   2.727   5.062 -0.9616  0.4638 -0.2638
   39MOL   H17845854   7.221   2.465   4.975 -1.5089 -0.8175  0.5445
   39MOL   H17945855   7.085   2.490   5.088 -1.0163  1.4491 -1.0059
   39MOL   H18045856   7.382   2.550   5.137 -0.7830 -1.4432 -2.8626
   39MOL   H18145857   7.255   2.604   5.242  0.2573 -0.5386  1.2257
   39MOL   O18245858   7.182   2.340   5.288  0.7685 -0.2498 -0.0113
   39MOL   C18345859   7.192   2.234   5.380  0.1547 -0.3054  0.1362
   39MOL   C18445860   7.128   2.112   5.318  0.0462 -0.3011  0.3275
   39MOL   C18545861   7.102   1.997   5.408 -0.0695  0.2510  0.3562
   39MOL   C18645862   7.017   1.887   5.336  0.8817  0.2757  0.7581
   39MOL   C18745863   6.966   1.777   5.437 -0.0759 -0.3738 -0.2916
   39MOL   C18845864   6.874   1.681   5.381 -0.0533  0.9312 -0.1472
   39MOL   C18945865   6.731   1.736   5.342  0.1580 -0.0326 -0.8145
   39MOL   C19045866   6.644   1.620   5.288 -0.1437  0.0792 -0.7703
   39MOL   C19145867   6.637   1.494   5.376  0.1675  0.1922  0.2329
   39MOL   C19245868   6.534   1.391   5.314 -0.0143  0.6521  0.0935
   39MOL   O19345869   6.595   1.331   5.208  0.3721 -0.1783 -0.5148
   39MOL   C19445870   6.534   1.237   5.143  0.0712  0.3632  0.1176
   39MOL   O19545871   6.417   1.210   5.160 -0.5748 -0.9323  0.0578
   39MOL   C19645872   6.614   1.174   5.028  0.0037  0.1010 -1.1124
   39MOL   C19745873   6.601   1.221   4.879 -0.5438 -0.0521  0.3295
   39MOL   C19845874   6.568   1.369   4.861 -0.0519  0.6903 -1.0853
   39MOL   C19945875   6.683   1.458   4.904 -0.1233 -0.3368 -0.0505
   39MOL   C20045876   6.658   1.606   4.896 -0.5974  0.2005  0.0328
   39MOL   C20145877   6.782   1.692   4.909  0.0655 -0.2210  0.3464
   39MOL   C20245878   6.751   1.843   4.896 -0.1704 -0.2992  0.7271
   39MOL   C20345879   6.876   1.924   4.852  0.0228  0.5537 -0.2456
   39MOL   C20445880   6.886   2.064   4.910  0.1295 -0.3634  0.0597
   39MOL   O20545881   6.970   2.101   4.986 -0.2803 -0.8127 -0.1586
   39MOL   H20645882   7.294   2.197   5.389  0.6348  1.6834  3.7197
   39MOL   H20745883   7.151   2.270   5.474  1.8501  0.2462  0.6852
   39MOL   H20845884   7.042   2.138   5.256  1.2607 -0.1561 -1.3068
   39MOL   H20945885   7.194   2.081   5.238  0.0271 -0.6948  0.4661
   39MOL   H21045886   7.191   1.951   5.450 -0.2112  0.9976  1.4804
   39MOL   H21145887   7.030   2.024   5.484  1.4877 -1.3232  2.4304
   39MOL   H21245888   6.924   1.939   5.312  0.1255 -0.9420  1.0335
   39MOL   H21345889   7.060   1.855   5.240 -1.2488 -0.3688  0.0027
   39MOL   H21445890   6.938   1.815   5.535 -2.3829  2.0400 -1.8303
   39MOL   H21545891   7.060   1.723   5.455  1.6563  2.3702 -0.8373
   39MOL   H21645892   6.870   1.598   5.452 -0.1198 -0.3344 -1.5954
   39MOL   H21745893   6.919   1.655   5.285 -0.1886 -0.4890  0.1578
   39MOL   H21845894   6.742   1.813   5.266 -2.2400 -0.9867 -2.1606
   39MOL   H21945895   6.689   1.781   5.432 -0.2645 -0.1465 -0.9542
   39MOL   H22045896   6.687   1.588   5.194 -0.4637 -1.1962 -0.4845
   39MOL   H22145897   6.545   1.666   5.277 -1.2173 -1.8154  0.6969
   39MOL   H22245898   6.737   1.451   5.388  0.3772  0.7279  0.4061
   39MOL   H22345899   6.612   1.512   5.480  0.6173 -1.1422  0.5846
   39MOL   H22445900   6.512   1.317   5.391  0.2035 -0.9217 -1.3365
   39MOL   H22545901   6.444   1.438   5.276  0.7330  1.3713 -0.8112
   39MOL   H22645902   6.573   1.073   5.017 -2.3187  0.7798  0.8993
   39MOL   H22745903   6.715   1.169   5.069 -0.1344  1.3669 -0.6187
   39MOL   H22845904   6.509   1.179   4.838  0.4599 -1.8386 -0.1400
   39MOL   H22945905   6.683   1.191   4.814 -1.8744 -0.2898 -1.2593
   39MOL   H23045906   6.487   1.389   4.931 -0.6714 -1.2462 -1.2348
   39MOL   H23145907   6.545   1.401   4.759  0.0518  0.8369 -1.0641
   39MOL   H23245908   6.762   1.446   4.830 -0.7722 -0.5510 -0.7161
   39MOL   H23345909   6.730   1.435   5.000 -0.9244  0.8527  0.6365
   39MOL   H23445910   6.619   1.619   4.795  1.1690 -0.7983 -0.8102
   39MOL   H23545911   6.588   1.642   4.972  0.9360  0.9715  1.1282
   39MOL   H23645912   6.813   1.674   5.012 -0.2015  0.0586  0.4763
   39MOL   H23745913   6.861   1.662   4.840 -3.0102 -4.2878 -1.6156
   39MOL   H23845914   6.697   1.897   4.974  4.0262  1.9088  2.3245
   39MOL   H23945915   6.675   1.861   4.821 -0.5392 -0.6615  1.0101
   39MOL   H24045916   6.969   1.868   4.858  0.1643  0.5372 -2.1187
   39MOL   H24145917   6.876   1.930   4.743 -0.0664 -0.2150 -0.2927
   39MOL   O24245918   6.794   2.140   4.851 -0.4098  0.6662 -0.7432
   39MOL   C24345919   6.790   2.275   4.871  0.3925 -0.3753  0.9851
   39MOL   C24445920   6.665   2.323   4.793  0.1273 -0.0891  0.7418
   39MOL   C24545921   6.665   2.473   4.765 -0.4479  0.8030 -0.0369
   39MOL   C24645922   6.662   2.571   4.887 -0.4988  0.4480  0.3310
   39MOL   C24745923   6.662   2.715   4.837 -0.0122  0.1273  0.5070
   39MOL   C24845924   6.681   2.826   4.939 -0.7382  0.5428 -0.9422
   39MOL   C24945925   6.578   2.825   5.052 -0.2553 -0.3867 -0.5908
   39MOL   C25045926   6.581   2.945   5.147  0.4908  0.1400  0.0222
   39MOL   C25145927   6.476   2.932   5.258 -0.1339  0.3880  0.6582
   39MOL   C25245928   6.502   3.049   5.349  0.2870 -0.4026  0.1634
   39MOL   O25345929   6.450   3.178   5.295  0.4264  0.1678 -0.4609
   39MOL   C25445930   6.400   3.270   5.380  0.3002  0.4694 -0.5484
   39MOL   O25545931   6.383   3.253   5.502 -0.0284 -0.3051  0.4417
   39MOL   C25645932   6.368   3.406   5.310 -0.1799 -0.1702 -0.4052
   39MOL   C25745933   6.480   3.505   5.286  0.3620 -0.0321  0.2356
   39MOL   C25845934   6.564   3.526   5.409  0.5943 -0.4436 -0.1939
   39MOL   C25945935   6.684   3.614   5.377  0.9257  0.2908 -0.1726
   39MOL   C26045936   6.788   3.564   5.271 -0.0355  0.5287  0.0782
   39MOL   C26145937   6.872   3.438   5.300  0.0658 -0.4571 -0.2103
   39MOL   C26245938   6.945   3.445   5.440  0.2230  0.1653 -0.0356
   39MOL   C26345939   6.980   3.304   5.499 -0.3932  0.4086 -0.0442
   39MOL   C26445940   6.867   3.218   5.537  0.8991 -0.4281  0.2346
   39MOL   O26545941   6.842   3.110   5.485  0.1295  0.4961  0.1590
   39MOL   H26645942   6.776   2.309   4.973  2.8462 -0.1288  1.2734
   39MOL   H26745943   6.881   2.316   4.826  1.0425 -2.8098 -0.0573
   39MOL   H26845944   6.664   2.260   4.703  2.2074 -1.1788  1.4380
   39MOL   H26945945   6.574   2.308   4.851  1.8937 -1.9589  3.1496
   39MOL   H27045946   6.752   2.500   4.705 -0.6975  1.2372 -0.2051
   39MOL   H27145947   6.583   2.487   4.694 -0.3161 -2.2007 -0.8908
   39MOL   H27245948   6.582   2.543   4.955 -0.4107  0.0118  0.2541
   39MOL   H27345949   6.754   2.557   4.944 -1.4392  1.0546  2.0476
   39MOL   H27445950   6.575   2.739   4.775 -0.3931  0.8374  1.3019
   39MOL   H27545951   6.735   2.723   4.757 -0.8224  4.0523  0.0701
   39MOL   H27645952   6.695   2.919   4.884 -0.6989  1.5913  0.8061
   39MOL   H27745953   6.779   2.824   4.986 -0.4954  1.2649 -1.4031
   39MOL   H27845954   6.589   2.728   5.101  1.5080 -0.9297 -2.0486
   39MOL   H27945955   6.480   2.832   5.003 -0.2459  2.9358 -0.2288
   39MOL   H28045956   6.553   3.033   5.090 -0.8395  1.5042  2.6472
   39MOL   H28145957   6.681   2.969   5.183  0.4724 -0.7871  0.7282
   39MOL   H28245958   6.375   2.942   5.218 -0.1986 -1.2136  0.3921
   39MOL   H28345959   6.476   2.832   5.301  1.3253  0.0966  0.0138
   39MOL   H28445960   6.457   3.024   5.445  1.2539  1.1721  1.0354
   39MOL   H28545961   6.608   3.056   5.374  0.3357 -2.4197  0.6565
   39MOL   H28645962   6.298   3.450   5.382  0.7646  2.2471 -0.9401
   39MOL   H28745963   6.305   3.389   5.223 -0.1188 -0.0319 -0.4760
   39MOL   H28845964   6.435   3.592   5.239 -1.4920  0.1955  2.3656
   39MOL   H28945965   6.549   3.466   5.211  1.3219  1.7088  0.1959
   39MOL   H29045966   6.594   3.425   5.438 -0.8231 -0.7059  0.3942
   39MOL   H29145967   6.502   3.561   5.491  0.4336  0.5450 -0.7381
   39MOL   H29245968   6.731   3.644   5.470  0.1295  2.1597 -0.3402
   39MOL   H29345969   6.641   3.707   5.339  0.7522  0.5781  0.7155
   39MOL   H29445970   6.735   3.539   5.179  0.6511 -0.6020 -0.0222
   39MOL   H29545971   6.860   3.636   5.233  0.4499 -0.4659 -0.9142
   39MOL   H29645972   6.800   3.356   5.304  0.1495 -0.4518  2.3167
   39MOL   H29745973   6.935   3.407   5.217 -0.0004 -0.0322 -0.4205
   39MOL   H29845974   6.893   3.502   5.517  1.5476  0.7784  0.4166
   39MOL   H29945975   7.038   3.500   5.429  1.5166 -1.9764 -0.1091
   39MOL   H30045976   7.038   3.246   5.428  0.2826  0.3484  0.5545
   39MOL   H30145977   7.048   3.316   5.584  0.9481  0.4965 -1.1133
   39MOL   O30245978   6.794   3.274   5.639  0.6134 -0.6521 -0.2195
   39MOL   C30345979   6.692   3.200   5.691 -0.7886 -0.8127  0.4503
   39MOL   C30445980   6.625   3.309   5.782 -0.0084  0.4757 -0.6822
   39MOL   C30545981   6.498   3.255   5.856  0.2703 -0.3097 -0.1582
   39MOL   C30645982   6.438   3.348   5.959 -0.2513  0.2855  0.3588
   39MOL   C30745983   6.320   3.429   5.894  0.0733  0.1681 -0.1193
   39MOL   C30845984   6.215   3.351   5.808 -0.1498 -0.0173  0.0907
   39MOL   C30945985   6.100   3.443   5.768  0.7387 -0.1559 -0.4033
   39MOL   C31045986   5.981   3.361   5.693 -1.0445 -0.0908  0.2087
   39MOL   C31145987   6.023   3.319   5.552 -0.3591  1.0312 -0.5071
   39MOL   C31245988   5.914   3.264   5.454 -0.3371 -0.7317  0.0400
   39MOL   O31345989   5.880   3.141   5.506  0.7479  0.4971 -0.2160
   39MOL   C31445990   5.762   3.118   5.573  0.2987 -0.5007 -0.1263
   39MOL   O31545991   5.672   3.200   5.576  0.0441  0.2403  0.2400
   39MOL   C31645992   5.743   2.983   5.635 -0.1393 -0.0621  0.0272
   39MOL   C31745993   5.810   2.960   5.772 -0.4214  0.4925  0.0443
   39MOL   C31845994   5.810   2.800   5.797 -0.4193 -0.3840 -0.0293
   39MOL   C31945995   5.684   2.732   5.818 -0.7313 -0.1991  0.7498
   39MOL   C32045996   5.595   2.784   5.933  0.3295 -0.2641  0.3772
   39MOL   C32145997   5.637   2.770   6.079  0.4629 -0.0417  0.7720
   39MOL   C32245998   5.694   2.634   6.124 -0.1008 -0.0587  0.3072
   39MOL   C32345999   5.595   2.521   6.088  0.5009 -0.4430  0.6415
   39MOL   C32446000   5.466   2.537   6.180 -0.8049 -0.8888  0.1324
   39MOL   O32546001   5.366   2.584   6.139  0.3472 -0.3231  0.7068
   39MOL   H32646002   6.632   3.156   5.612 -0.3526 -2.2706  0.9216
   39MOL   H32746003   6.737   3.119   5.748  0.3815  0.4794  1.3949
   39MOL   H32846004   6.694   3.347   5.858  0.0099 -0.2690 -0.3249
   39MOL   H32946005   6.597   3.404   5.735 -1.3685  0.9288  0.9967
   39MOL   H33046006   6.428   3.219   5.780  0.4006  0.3741 -0.6053
   39MOL   H33146007   6.533   3.170   5.914  2.2556  0.7382  0.2146
   39MOL   H33246008   6.407   3.294   6.048 -1.5493 -2.0269 -1.4399
   39MOL   H33346009   6.521   3.413   5.985  1.8524 -0.2932 -4.3618
   39MOL   H33446010   6.372   3.494   5.824  0.1503  0.1876 -0.0428
   39MOL   H33546011   6.289   3.501   5.969  1.2452 -0.1639  0.6864
   39MOL   H33646012   6.182   3.262   5.861 -2.7099 -0.0425 -1.4316
   39MOL   H33746013   6.260   3.322   5.713  0.3725 -1.3485  0.7424
   39MOL   H33846014   6.128   3.528   5.707  1.7267 -0.0634  0.1666
   39MOL   H33946015   6.058   3.489   5.857  0.7482 -0.8454 -0.0389
   39MOL   H34046016   5.886   3.415   5.688 -0.8236  0.2030 -0.8787
   39MOL   H34146017   5.961   3.278   5.761  0.4351 -0.5533  0.0956
   39MOL   H34246018   6.062   3.408   5.503 -1.8552  1.6574 -0.6014
   39MOL   H34346019   6.101   3.245   5.571 -1.4729 -0.0678 -0.1015
   39MOL   H34446020   5.830   3.333   5.456  0.6690  0.5108  0.3733
   39MOL   H34546021   5.945   3.268   5.350  0.0630  0.5577  0.1965
   39MOL   H34646022   5.788   2.906   5.572  0.4965  0.2728  0.0659
   39MOL   H34746023   5.637   2.961   5.639 -0.2766  0.6217  0.2471
   39MOL   H34846024   5.762   3.010   5.856  1.0793 -0.0586  1.2503
   39MOL   H34946025   5.916   2.984   5.767 -0.4319  0.3792 -0.7665
   39MOL   H35046026   5.864   2.791   5.892 -1.4954  0.3491  0.6615
   39MOL   H35146027   5.870   2.737   5.731  0.1730  0.2157 -0.0641
   39MOL   H35246028   5.703   2.626   5.830  2.5685  0.1586 -0.4933
   39MOL   H35346029   5.629   2.729   5.724 -1.4795  0.4377  1.1630
   39MOL   H35446030   5.572   2.888   5.910 -0.7463 -0.1610  1.8218
   39MOL   H35546031   5.501   2.730   5.922  0.5226 -0.6946  0.7996
   39MOL   H35646032   5.712   2.844   6.109  2.3138 -2.2979  1.9240
   39MOL   H35746033   5.545   2.787   6.134  0.1394  1.9090 -0.3214
   39MOL   H35846034   5.730   2.646   6.226  1.3546  0.8778 -0.3034
   39MOL   H35946035   5.788   2.614   6.072  1.4750  3.4000  1.7378
   39MOL   H36046036   5.574   2.536   5.982  1.3415  3.0036  0.9297
   39MOL   H36146037   5.647   2.426   6.102  1.3865 -0.1498 -0.6516
   39MOL   O36246038   5.482   2.494   6.308 -0.6922  0.4127 -0.3051
   39MOL   C36346039   5.379   2.503   6.403 -0.3717  0.1770 -0.0915
   39MOL   C36446040   5.271   2.407   6.390  0.8916  0.8017  0.1046
   39MOL   C36546041   5.302   2.259   6.373 -0.3476  0.6154 -0.1150
   39MOL   C36646042   5.178   2.170   6.339  0.1389 -0.5890 -0.1208
   39MOL   C36746043   5.099   2.126   6.464 -0.4712  0.4135  0.6812
   39MOL   C36846044   5.000   2.002   6.453  0.1826 -0.0989  1.4783
   39MOL   C36946045   5.061   1.869   6.405 -0.9093 -0.7035 -0.0812
   39MOL   C37046046   4.955   1.751   6.383 -0.0966 -0.5837  0.1006
   39MOL   C37146047   4.839   1.740   6.489 -0.8304 -0.4025  0.2635
   39MOL   C37246048   4.737   1.629   6.462 -0.2649  0.2284  0.0544
   39MOL   O37346049   4.658   1.677   6.355  0.1585  0.7805  0.3247
   39MOL   C37446050   4.532   1.637   6.319 -0.6726 -0.2489  0.6145
   39MOL   O37546051   4.454   1.571   6.385 -0.4456 -0.0349 -0.0169
   39MOL   C37646052   4.494   1.697   6.179  0.0582  0.4633  0.1387
   39MOL   C37746053   4.472   1.852   6.181 -0.1076  1.1574 -0.0611
   39MOL   C37846054   4.603   1.933   6.166 -0.2061  0.0385  0.0113
   39MOL   C37946055   4.571   2.078   6.128  0.3743 -0.2088 -0.1823
   39MOL   C38046056   4.697   2.171   6.132 -0.6509 -0.1676  0.9315
   39MOL   C38146057   4.665   2.320   6.150  0.6316 -0.4190  0.4580
   39MOL   C38246058   4.750   2.414   6.064 -0.3912 -0.2626  0.7050
   39MOL   C38346059   4.887   2.457   6.123 -0.2697 -0.1773  0.0879
   39MOL   C38446060   4.884   2.535   6.249 -0.0301  0.0886  0.5293
   39MOL   O38546061   4.943   2.505   6.350  0.0054 -0.0864  0.4814
   39MOL   H38646062   5.423   2.488   6.502 -0.0371  0.2285 -0.2343
   39MOL   H38746063   5.345   2.607   6.408  1.1886  0.6663  0.7832
   39MOL   H38846064   5.203   2.428   6.473  0.8426  0.1018  0.2408
   39MOL   H38946065   5.193   2.430   6.318  1.7227 -0.2667 -1.1488
   39MOL   H39046066   5.372   2.257   6.290 -0.3897  0.4038 -0.1450
   39MOL   H39146067   5.350   2.221   6.463 -0.4194  0.1998 -0.2502
   39MOL   H39246068   5.114   2.214   6.262  0.1102  0.3597  0.4422
   39MOL   H39346069   5.217   2.083   6.285  0.1183  0.7284 -2.3144
   39MOL   H39446070   5.048   2.216   6.498  1.4639  1.8205 -0.0491
   39MOL   H39546071   5.175   2.095   6.536 -1.4466 -1.2362  1.0093
   39MOL   H39646072   4.931   2.026   6.373  1.8418 -1.0291 -0.2849
   39MOL   H39746073   4.954   2.001   6.552 -0.2913  0.1564  1.2613
   39MOL   H39846074   5.129   1.839   6.485  2.5646  2.7281 -1.6175
   39MOL   H39946075   5.115   1.892   6.314 -1.0350  1.1962  0.3031
   39MOL   H40046076   5.008   1.656   6.376  0.8447  0.0201 -1.1952
   39MOL   H40146077   4.913   1.765   6.284 -1.4888  0.4626  0.8315
   39MOL   H40246078   4.890   1.730   6.585 -0.2003 -2.9733 -0.2833
   39MOL   H40346079   4.791   1.837   6.486  0.0978  0.0155 -2.9988
   39MOL   H40446080   4.783   1.533   6.440 -1.5596 -0.5032  0.5065
   39MOL   H40546081   4.669   1.612   6.546  1.8940 -0.0543  1.7948
   39MOL   H40646082   4.399   1.663   6.139 -0.6061  1.8063  0.5681
   39MOL   H40746083   4.573   1.654   6.117  0.8463  1.6279  0.3095
   39MOL   H40846084   4.434   1.868   6.282  0.3358  1.0613  0.1251
   39MOL   H40946085   4.402   1.889   6.107  0.5010  1.7048 -0.3714
   39MOL   H41046086   4.656   1.898   6.078  1.9378  0.6407  1.0202
   39MOL   H41146087   4.660   1.925   6.259  0.6742 -1.3515 -0.6396
   39MOL   H41246088   4.511   2.117   6.210  0.0594  1.5832 -1.2348
   39MOL   H41346089   4.530   2.082   6.027  1.7575  0.1228 -0.7531
   39MOL   H41446090   4.775   2.151   6.206  0.9083  3.4329  0.3389
   39MOL   H41546091   4.748   2.154   6.037 -4.3957  1.8196 -1.5303
   39MOL   H41646092   4.560   2.336   6.126  0.6058 -0.1670  0.7359
   39MOL   H41746093   4.669   2.346   6.255  0.3986 -0.2265  0.4207
   39MOL   H41846094   4.685   2.501   6.063 -0.3708 -0.2482 -0.2223
   39MOL   H41946095   4.760   2.374   5.963  1.3437 -1.1274  1.2154
   39MOL   H42046096   4.948   2.370   6.144  1.2554  0.5338 -1.3058
   39MOL   H42146097   4.937   2.524   6.054 -1.0624  1.9712  1.5328
   39MOL   O42246098   4.812   2.652   6.240 -0.1513  0.5315  0.1644
   39MOL   C42346099   4.797   2.747   6.342 -0.7389  0.2967 -0.2221
   39MOL   C42446100   4.877   2.869   6.293 -0.0320 -0.2346  0.3285
   39MOL   C42546101   5.026   2.854   6.292 -0.3219 -0.5620  0.7343
   39MOL   C42646102   5.110   2.974   6.233 -0.3598  0.9264 -0.9451
   39MOL   C42746103   5.268   2.964   6.234 -0.4813  0.0166  0.5813
   39MOL   C42846104   5.331   3.101   6.223  0.2975 -0.1815 -0.4713
   39MOL   C42946105   5.481   3.099   6.205  0.8262 -0.2377 -0.1260
   39MOL   C43046106   5.543   3.124   6.064 -0.1434  0.2394 -0.8355
   39MOL   C43146107   5.539   3.272   6.017 -0.2376 -0.5296 -0.1163
   39MOL   C43246108   5.607   3.298   5.879  0.0353 -0.4272  0.7588
   39MOL   O43346109   5.572   3.424   5.825  0.3491  0.2585  0.0254
   39MOL   C43446110   5.640   3.536   5.861 -0.2745 -0.7982 -0.0152
   39MOL   O43546111   5.743   3.548   5.929  0.7336 -0.3323  0.1751
   39MOL   C43646112   5.596   3.668   5.793  0.3507  0.7585 -0.1585
   39MOL   C43746113   5.461   3.731   5.818  0.2849 -0.0382 -0.2174
   39MOL   C43846114   5.429   3.768   5.962  0.4686  0.3271  0.7981
   39MOL   C43946115   5.368   3.648   6.040 -0.2189 -0.6282 -0.8941
   39MOL   C44046116   5.216   3.641   6.026 -0.1374  0.3494 -0.3005
   39MOL   C44146117   5.154   3.512   6.095 -0.2220 -0.7211  0.1892
   39MOL   C44246118   5.127   3.538   6.245 -0.7484  0.0383 -0.9628
   39MOL   C44346119   5.036   3.428   6.296 -0.1641 -0.8722  0.3353
   39MOL   C44446120   5.041   3.404   6.443 -0.4521  0.2583 -0.2607
   39MOL   O44546121   4.959   3.455   6.518 -0.2752  0.4497 -0.0256
   39MOL   H44646122   4.692   2.773   6.359 -0.7639  1.2106 -1.7034
   39MOL   H44746123   4.840   2.706   6.433 -0.7039 -2.3221 -1.3641
   39MOL   H44846124   4.831   2.899   6.199  0.1186 -2.3905 -0.4600
   39MOL   H44946125   4.851   2.956   6.354  2.1783  0.9186 -0.3390
   39MOL   H45046126   5.062   2.828   6.392 -1.7303 -3.1786  0.5799
   39MOL   H45146127   5.043   2.772   6.223  2.0326  1.6526 -1.4562
   39MOL   H45246128   5.084   3.011   6.134  0.0241  2.6810 -0.4241
   39MOL   H45346129   5.073   3.056   6.295 -0.1383 -0.5129  1.1367
   39MOL   H45446130   5.306   2.894   6.159  3.9654 -0.9339  3.5483
   39MOL   H45546131   5.307   2.923   6.327 -0.0173 -1.4995 -0.2469
   39MOL   H45646132   5.317   3.152   6.318 -1.4871 -0.6622 -0.4547
   39MOL   H45746133   5.287   3.166   6.148  0.1494 -0.6953 -0.8304
   39MOL   H45846134   5.531   3.011   6.245  1.6403 -0.0458 -0.7016
   39MOL   H45946135   5.523   3.184   6.258 -1.7762 -1.1531  3.6324
   39MOL   H46046136   5.500   3.052   5.994  4.4672 -3.5952  0.0642
   39MOL   H46146137   5.648   3.095   6.057 -0.0878 -0.0327  0.7871
   39MOL   H46246138   5.433   3.299   6.019 -0.0330  0.2353  0.4024
   39MOL   H46346139   5.584   3.344   6.084  2.1532 -2.3127  0.2744
   39MOL   H46446140   5.715   3.283   5.891  0.1341  0.2459  0.7174
   39MOL   H46546141   5.579   3.226   5.802 -0.1311  0.4901 -0.0514
   39MOL   H46646142   5.617   3.651   5.688 -1.4499  2.4874 -0.8171
   39MOL   H46746143   5.657   3.752   5.828 -0.8274  0.8960  1.6626
   39MOL   H46846144   5.380   3.672   5.774 -0.8701  0.9315  0.5850
   39MOL   H46946145   5.471   3.824   5.763  0.3863 -0.2126 -0.4895
   39MOL   H47046146   5.356   3.848   5.957 -0.9824 -1.0243  0.2643
   39MOL   H47146147   5.512   3.812   6.019  1.3771 -2.7759  1.9502
   39MOL   H47246148   5.402   3.664   6.142 -0.9466 -0.3756 -0.6858
   39MOL   H47346149   5.418   3.559   6.001  0.0190 -0.8009 -0.2062
   39MOL   H47446150   5.173   3.728   6.074 -0.6312  0.0630 -0.2176
   39MOL   H47546151   5.169   3.648   5.928  1.0790  0.7211 -0.8753
   39MOL   H47646152   5.061   3.479   6.048 -0.3544 -1.8344  1.2186
   39MOL   H47746153   5.224   3.429   6.082  1.0579  0.7848 -3.0397
   39MOL   H47846154   5.073   3.631   6.266 -0.1244  0.0623  0.5798
   39MOL   H47946155   5.217   3.538   6.306 -2.0294  1.4582  1.0096
   39MOL   H48046156   4.934   3.452   6.267 -0.5570 -1.7841  0.9534
   39MOL   H48146157   5.064   3.335   6.247  2.1491  1.0577 -2.1999
   39MOL   O48246158   5.138   3.330   6.481 -0.2970 -0.3756 -0.4078
   39MOL   C48346159   5.185   3.328   6.615  0.3435  0.7706 -0.3145
   39MOL   C48446160   5.336   3.331   6.618  0.2325 -0.3948  0.7241
   39MOL   C48546161   5.392   3.428   6.511 -0.5303  0.1054 -0.2664
   39MOL   C48646162   5.541   3.456   6.538 -0.0018 -0.5801 -0.1168
   39MOL   C48746163   5.595   3.563   6.451 -0.1464 -0.3809  0.5078
   39MOL   C48846164   5.746   3.580   6.457  0.1615  0.1623 -0.1679
   39MOL   C48946165   5.791   3.717   6.417  0.5427  1.1245 -0.0500
   39MOL   C49046166   5.776   3.729   6.269 -0.5411 -0.2500  0.0771
   39MOL   C49146167   5.857   3.847   6.216 -0.9243  0.4170 -0.1982
   39MOL   C49246168   5.843   3.862   6.056  0.2509 -0.7058 -0.4028
   39MOL   O49346169   5.916   3.975   6.007  0.5059  0.4733  0.3116
   39MOL   C49446170   6.052   3.967   5.993 -0.5168 -0.4392  0.1330
   39MOL   O49546171   6.123   3.867   6.023 -0.1360  0.2992  0.1312
   39MOL   C49646172   6.108   4.104   5.944  0.0221 -0.7063 -0.3563
   39MOL   C49746173   6.244   4.141   5.998 -0.2497 -0.0884  0.3280
   39MOL   C49846174   6.259   4.151   6.155  0.1285  0.5107  0.7069
   39MOL   C49946175   6.410   4.169   6.192  0.1725 -0.6737 -0.3057
   39MOL   C50046176   6.484   4.034   6.203  0.6398 -0.5953  0.4111
   39MOL   C50146177   6.609   4.038   6.290 -0.4320 -0.4379  0.1680
   39MOL   C50246178   6.576   4.049   6.438  0.2664 -0.1103  0.5382
   39MOL   C50346179   6.697   4.068   6.526 -0.4177 -0.6878 -0.0054
   39MOL   C50446180   6.751   4.217   6.530 -0.1546 -0.7688 -0.4989
   39MOL   O50546181   6.875   4.234   6.521  0.1673 -0.1767 -0.0632
   39MOL   H50646182   5.146   3.410   6.674  0.9985  1.7444 -1.2204
   39MOL   H50746183   5.140   3.241   6.662 -1.2142  1.9437  0.3904
   39MOL   H50846184   5.382   3.365   6.711 -2.2353  0.9578  1.4879
   39MOL   H50946185   5.378   3.233   6.595 -0.4329 -0.1044 -1.8593
   39MOL   H51046186   5.387   3.393   6.408  1.2386 -3.8842  0.9308
   39MOL   H51146187   5.331   3.519   6.517  0.5828  0.7878  0.9343
   39MOL   H51246188   5.550   3.471   6.646 -2.5553 -0.6010  0.1333
   39MOL   H51346189   5.597   3.367   6.508 -2.4381 -1.1894 -3.0476
   39MOL   H51446190   5.553   3.658   6.486  0.7351 -0.3796  1.5752
   39MOL   H51546191   5.563   3.550   6.347  0.7168  1.9128 -0.0761
   39MOL   H51646192   5.798   3.495   6.411  0.0133  0.3066 -0.6022
   39MOL   H51746193   5.778   3.580   6.561 -1.0419  1.9464  0.2242
   39MOL   H51846194   5.899   3.722   6.433  0.9229 -1.9060 -1.3674
   39MOL   H51946195   5.736   3.800   6.462  1.4171  1.8703 -0.3279
   39MOL   H52046196   5.669   3.739   6.247 -0.7280  0.4602  1.2762
   39MOL   H52146197   5.813   3.639   6.219 -0.1943  0.0785 -0.2582
   39MOL   H52246198   5.821   3.940   6.260 -0.8179  1.2855 -1.8833
   39MOL   H52346199   5.962   3.825   6.237 -1.6072 -1.0357  1.8394
   39MOL   H52446200   5.871   3.769   6.007  0.6740  0.0948 -1.6945
   39MOL   H52546201   5.735   3.875   6.056  0.2220 -0.8878  0.5827
   39MOL   H52646202   6.043   4.190   5.953  1.4801  0.2278  1.8775
   39MOL   H52746203   6.120   4.098   5.836  2.2314  1.6459 -0.2793
   39MOL   H52846204   6.274   4.235   5.951 -0.8827  0.4652  1.0117
   39MOL   H52946205   6.310   4.070   5.949  1.5475  0.0910  2.3932
   39MOL   H53046206   6.206   4.068   6.202  0.2122  0.7679  1.2563
   39MOL   H53146207   6.208   4.239   6.193  0.1901  0.1327  1.6812
   39MOL   H53246208   6.410   4.217   6.290 -0.2052 -2.8816  0.8000
   39MOL   H53346209   6.451   4.244   6.124  0.5961  0.5701  1.2969
   39MOL   H53446210   6.413   3.965   6.247 -0.3915  0.5697  0.5803
   39MOL   H53546211   6.491   3.982   6.107 -3.8159 -1.5670  0.5087
   39MOL   H53646212   6.673   3.954   6.262 -3.5086 -2.1475 -2.0396
   39MOL   H53746213   6.654   4.132   6.256  1.6454 -1.8994 -1.2240
   39MOL   H53846214   6.538   3.955   6.478 -0.6195  0.6566  1.5490
   39MOL   H53946215   6.493   4.118   6.454 -1.8154 -2.4799  0.4106
   39MOL   H54046216   6.662   4.041   6.625  0.9170 -0.8315  0.4434
   39MOL   H54146217   6.780   4.001   6.502  1.2214  0.5814  1.8681
   39MOL   O54246218   6.658   4.311   6.546 -0.0382  0.1708 -0.1801
   39MOL   C54346219   6.690   4.445   6.550 -0.3641 -0.1278 -0.2875
   39MOL   C54446220   6.661   4.504   6.414 -0.8574  0.7077 -0.2554
   39MOL   C54546221   6.515   4.510   6.379  0.1240  0.0455 -0.7261
   39MOL   C54646222   6.497   4.575   6.236 -0.0201  0.1994 -1.0739
   39MOL   C54746223   6.347   4.571   6.195 -0.3950  0.0174  0.5324
   39MOL   C54846224   6.320   4.629   6.050  0.2484  0.4101  0.3241
   39MOL   C54946225   6.181   4.682   6.036  0.0411  0.8438  0.2578
   39MOL   C55046226   6.158   4.751   5.904 -0.3877 -0.3810 -0.2725
   39MOL   C55146227   6.011   4.778   5.874 -0.5566  0.1386 -0.3795
   39MOL   C55246228   5.993   4.801   5.722  0.2437  0.2643  0.8523
   39MOL   O55346229   6.046   4.930   5.712  0.5412 -0.4215 -0.6735
   39MOL   C55446230   5.987   5.021   5.623  0.5353 -0.2313 -0.0140
   39MOL   O55546231   5.907   4.995   5.536  0.4640  0.2440 -0.0446
   39MOL   C55646232   6.036   5.164   5.638 -0.2572  0.4051 -0.0134
   39MOL   C55746233   6.024   5.224   5.785  0.8551 -0.4034 -0.0484
   39MOL   C55846234   5.878   5.244   5.850  0.4030  0.2699 -0.1377
   39MOL   C55946235   5.802   5.352   5.769 -0.0643 -0.5453 -0.4748
   39MOL   C56046236   5.655   5.348   5.804  0.3078  0.8383  0.8198
   39MOL   C56146237   5.578   5.466   5.743  0.0658  0.2875  0.1342
   39MOL   C56246238   5.438   5.454   5.783 -0.0820  0.2014  0.2598
   39MOL   C56346239   5.355   5.519   5.673  0.1359  1.1495 -0.6153
   39MOL   C56446240   5.356   5.669   5.679 -0.0914 -0.1896  1.2586
   39MOL   O56546241   5.373   5.729   5.569 -0.4377  0.0396 -0.2212
   39MOL   H56646242   6.621   4.480   6.627  0.2479 -0.8858  0.6144
   39MOL   H56746243   6.794   4.468   6.576 -1.2345  2.0742  1.5188
   39MOL   H56846244   6.716   4.598   6.409 -0.7790  0.7493  1.3472
   39MOL   H56946245   6.702   4.443   6.333  1.0559  2.1921 -0.4284
   39MOL   H57046246   6.465   4.413   6.377 -1.1354  0.5632  2.5868
   39MOL   H57146247   6.461   4.565   6.456  1.7591 -0.7929  1.0509
   39MOL   H57246248   6.535   4.677   6.230  0.9478 -0.0613  0.4388
   39MOL   H57346249   6.563   4.521   6.168  0.9200  0.0060 -0.0237
   39MOL   H57446250   6.286   4.626   6.267 -0.9863  0.4576 -0.2991
   39MOL   H57546251   6.314   4.467   6.191 -0.9965  0.2608 -2.0215
   39MOL   H57646252   6.322   4.557   5.968 -2.2538  1.6682 -0.8848
   39MOL   H57746253   6.388   4.711   6.029  1.0673 -0.2179  0.5043
   39MOL   H57846254   6.166   4.753   6.117  0.8744  2.2745 -0.8127
   39MOL   H57946255   6.118   4.594   6.044  1.7175 -0.5158 -1.1375
   39MOL   H58046256   6.197   4.689   5.824  0.1249 -1.5393  0.8697
   39MOL   H58146257   6.209   4.847   5.915  1.4891 -1.5100  1.0669
   39MOL   H58246258   5.952   4.695   5.913  0.4286  1.7684  4.9570
   39MOL   H58346259   5.973   4.862   5.933 -2.5595 -1.6692  0.9583
   39MOL   H58446260   6.055   4.726   5.674 -0.0760  0.5887 -0.0719
   39MOL   H58546261   5.889   4.785   5.695  0.8982 -2.0022 -0.4793
   39MOL   H58646262   5.972   5.228   5.578 -0.6460  0.3154  0.3057
   39MOL   H58746263   6.137   5.164   5.597  0.1014  0.2716  0.8622
   39MOL   H58846264   6.089   5.311   5.781 -0.1841  0.3744 -0.2182
   39MOL   H58946265   6.075   5.151   5.849  2.0350  0.2255 -0.2650
   39MOL   H59046266   5.894   5.251   5.958 -0.8882 -0.7649  0.1308
   39MOL   H59146267   5.824   5.149   5.848  1.0710 -0.2333  2.6601
   39MOL   H59246268   5.820   5.346   5.662  0.7065  1.2068 -0.4625
   39MOL   H59346269   5.854   5.444   5.796  0.7398 -0.4993 -2.1530
   39MOL   H59446270   5.615   5.249   5.781  2.1795  0.2092  0.1553
   39MOL   H59546271   5.644   5.353   5.912 -2.7520 -0.2424  0.5931
   39MOL   H59646272   5.615   5.565   5.769 -0.7072  0.4411  0.6546
   39MOL   H59746273   5.582   5.457   5.635 -1.4548 -0.5606  0.1269
   39MOL   H59846274   5.411   5.495   5.880  0.1781  0.1437  0.3571
   39MOL   H59946275   5.398   5.354   5.795 -3.1892  1.3326 -0.2572
   39MOL   H60046276   5.375   5.477   5.575  1.5991  1.1117 -0.3134
   39MOL   H60146277   5.250   5.496   5.694  0.7283 -1.6511 -0.5589
   39MOL   O60246278   5.337   5.722   5.797 -0.1680 -0.1493  0.3012
   39MOL   C60346279   5.336   5.860   5.823 -0.0233 -0.3718 -0.4832
   39MOL   C60446280   5.384   5.886   5.968  0.2488 -0.6448 -0.7551
   39MOL   C60546281   5.277   5.845   6.076 -0.5773  0.6935  0.0776
   39MOL   C60646282   5.306   5.886   6.219  0.0778 -0.5537  0.0637
   39MOL   C60746283   5.392   5.777   6.291  0.6457 -0.6736 -0.6262
   39MOL   C60846284   5.441   5.841   6.425  0.3142  0.4910  0.4309
   39MOL   C60946285   5.536   5.752   6.509 -0.5048  0.5716 -0.6582
   39MOL   C61046286   5.475   5.629   6.571 -0.6341  0.2524 -1.0507
   39MOL   C61146287   5.565   5.572   6.690  0.8192 -0.3232  0.4355
   39MOL   C61246288   5.508   5.445   6.745 -0.5833 -0.4603 -0.3582
   39MOL   O61346289   5.393   5.460   6.823 -0.0985 -0.8149 -0.1851
   39MOL   C61446290   5.279   5.384   6.805 -0.7576 -0.5379 -0.7828
   39MOL   O61546291   5.266   5.302   6.712 -0.5603  0.2941  0.3317
   39MOL   C61646292   5.174   5.405   6.916  0.0752  0.2139  0.4496
   39MOL   C61746293   5.208   5.353   7.056 -0.0763 -0.6846 -0.5079
   39MOL   C61846294   5.205   5.201   7.081  0.2159  0.0550  0.1277
   39MOL   C61946295   5.202   5.154   7.230  0.5856 -0.4727  0.3070
   39MOL   C62046296   5.306   5.224   7.319  0.4259  0.1807  0.7253
   39MOL   C62146297   5.453   5.200   7.285 -0.0624  0.0977  0.4639
   39MOL   C62246298   5.541   5.263   7.397  0.3258  0.3507  0.3038
   39MOL   C62346299   5.538   5.412   7.411  0.3889 -0.1639  0.0915
   39MOL   C62446300   5.654   5.463   7.498 -0.1346  1.4260  0.1438
   39MOL   O62546301   5.772   5.423   7.488 -0.1397 -0.2276 -0.1324
   39MOL   H62646302   5.412   5.901   5.756 -2.1072  0.5196 -2.3656
   39MOL   H62746303   5.239   5.904   5.802 -0.6048 -2.3001 -2.0446
   39MOL   H62846304   5.467   5.821   5.996 -0.4560 -1.3012 -0.2209
   39MOL   H62946305   5.414   5.991   5.966 -1.7549 -0.0810 -1.6118
   39MOL   H63046306   5.178   5.887   6.056 -0.6031  1.5840  1.9947
   39MOL   H63146307   5.267   5.736   6.072 -2.6859  0.8368  0.7166
   39MOL   H63246308   5.342   5.989   6.222  1.8340 -1.1393 -0.3343
   39MOL   H63346309   5.213   5.895   6.275  0.9997 -0.0620  1.5608
   39MOL   H63446310   5.481   5.758   6.231  1.8563 -0.2306  1.0260
   39MOL   H63546311   5.338   5.685   6.313  1.4948 -0.7048  1.3729
   39MOL   H63646312   5.352   5.870   6.481 -0.0774 -1.7818  1.0428
   39MOL   H63746313   5.491   5.928   6.382 -0.3647  0.2695 -0.7990
   39MOL   H63846314   5.582   5.816   6.584 -0.5775  0.1714 -0.2723
   39MOL   H63946315   5.630   5.740   6.454 -0.4624  0.3334 -0.5335
   39MOL   H64046316   5.453   5.551   6.498 -1.1355 -0.7010  0.1126
   39MOL   H64146317   5.377   5.657   6.609  0.4190  1.1334  1.0920
   39MOL   H64246318   5.670   5.565   6.663 -0.0460 -1.9600 -2.7507
   39MOL   H64346319   5.567   5.649   6.767  0.4099  1.7472 -1.5721
   39MOL   H64446320   5.489   5.373   6.665  0.1760  1.6599 -2.4843
   39MOL   H64546321   5.573   5.395   6.817 -0.9067 -0.6334 -0.1828
   39MOL   H64646322   5.074   5.371   6.889  0.5662 -0.5718 -0.3985
   39MOL   H64746323   5.161   5.513   6.928  0.1399  0.0943  1.6709
   39MOL   H64846324   5.125   5.389   7.116  1.3433  0.5752  0.7450
   39MOL   H64946325   5.301   5.395   7.094  0.3427 -2.3720  0.4036
   39MOL   H65046326   5.299   5.170   7.035 -1.0888  0.8454 -3.1858
   39MOL   H65146327   5.127   5.154   7.022  1.4098 -0.7999 -0.7948
   39MOL   H65246328   5.216   5.048   7.250 -0.6061 -0.8891 -0.9569
   39MOL   H65346329   5.096   5.169   7.251  0.4163 -0.6289 -0.4296
   39MOL   H65446330   5.289   5.331   7.309 -0.2007 -0.0341 -0.7012
   39MOL   H65546331   5.279   5.190   7.419 -2.0897  0.6630  0.2487
   39MOL   H65646332   5.481   5.095   7.279  0.2088  0.1252  1.1174
   39MOL   H65746333   5.483   5.232   7.185  2.8494 -0.1163  1.2161
   39MOL   H65846334   5.644   5.240   7.372  0.5726  2.4746 -0.7605
   39MOL   H65946335   5.520   5.205   7.487 -1.5652 -0.1094 -0.3879
   39MOL   H66046336   5.538   5.455   7.311 -2.6714  1.5873  0.7737
   39MOL   H66146337   5.452   5.450   7.467  1.2126  0.7152  0.7897
   39MOL   O66246338   5.621   5.558   7.580 -0.8060 -0.6300 -0.4068
   39MOL   C66346339   5.703   5.604   7.683 -0.3087 -0.5289  0.1148
   39MOL   C66446340   5.636   5.715   0.005 -0.6176 -0.4112  0.2118
   39MOL   C66546341   5.536   5.658   0.111  0.2693  0.3323 -0.2412
   39MOL   C66646342   5.505   5.753   0.232 -0.7139  0.0357  0.6252
   39MOL   C66746343   5.396   5.701   0.323 -0.1003  0.1147 -0.7535
   39MOL   C66846344   5.354   5.794   0.434  0.5917  0.7484  0.3265
   39MOL   C66946345   5.234   5.757   0.519  0.2006  0.4365 -1.0029
   39MOL   C67046346   5.201   5.862   0.630  0.1141  0.0128  0.3828
   39MOL   C67146347   5.092   5.826   0.729  0.0101 -0.0071 -0.7115
   39MOL   C67246348   5.044   5.952   0.802  0.2028  0.2636 -0.1975
   39MOL   O67346349   4.938   5.917   0.880  0.5420 -0.2849 -0.2923
   39MOL   C67446350   4.822   5.972   0.847 -0.1133 -0.2325  0.3642
   39MOL   O67546351   4.805   6.051   0.753 -0.7510 -0.1829  0.0433
   39MOL   C67646352   4.693   5.925   0.925 -0.7154 -0.4932 -0.9001
   39MOL   C67746353   4.687   5.992   1.061  1.1067 -0.6147 -0.1207
   39MOL   C67846354   4.607   5.924   1.166  0.0367  0.0239  0.0551
   39MOL   C67946355   4.612   5.982   1.304  0.9590 -0.0557 -0.4371
   39MOL   C68046356   4.541   6.115   1.307  0.5777 -1.1486  0.1672
   39MOL   C68146357   4.405   6.133   1.236  0.2406  0.2921  1.0544
   39MOL   C68246358   4.279   6.074   1.296  0.9090  0.1843 -1.2223
   39MOL   C68346359   4.150   6.112   1.224 -0.1103  0.3932 -0.1943
   39MOL   C68446360   4.093   6.244   1.247 -0.3590 -0.5179  0.0260
   39MOL   O68546361   3.982   6.270   1.296  0.1690  0.1848 -0.5651
   39MOL   H68646362   5.726   5.522   7.751  1.7193  0.4329  0.6199
   39MOL   H68746363   5.797   5.643   7.643 -0.3020  0.2903  0.9181
   39MOL   H68846364   5.709   5.769   0.065  1.7330 -3.9491  0.6831
   39MOL   H68946365   5.581   5.773   7.687  3.0663 -0.0781 -2.3502
   39MOL   H69046366   5.442   5.631   0.063 -0.4864  0.7738  0.9688
   39MOL   H69146367   5.569   5.565   0.157 -0.3979  0.5936  0.8028
   39MOL   H69246368   5.595   5.772   0.290 -0.6345  3.3942 -0.4795
   39MOL   H69346369   5.482   5.856   0.206  1.6133  1.2480  3.0836
   39MOL   H69446370   5.432   5.615   0.378 -0.1837 -0.1749 -1.1457
   39MOL   H69546371   5.311   5.657   0.270 -0.6552  0.0275  0.2037
   39MOL   H69646372   5.339   5.881   0.370  0.9146  0.8684  0.4140
   39MOL   H69746373   5.447   5.815   0.487  2.1047  1.5275 -2.5102
   39MOL   H69846374   5.242   5.655   0.555  3.1459  0.8374 -0.3664
   39MOL   H69946375   5.148   5.754   0.452 -0.8984 -1.3758  0.4369
   39MOL   H70046376   5.182   5.963   0.595  0.7101  0.4164  1.1820
   39MOL   H70146377   5.286   5.890   0.693 -0.8785  3.6201  0.1856
   39MOL   H70246378   5.010   5.802   0.662 -0.4474 -0.3649 -0.0225
   39MOL   H70346379   5.134   5.747   0.790  0.6850 -0.0440 -1.2185
   39MOL   H70446380   5.120   5.987   0.872  0.5756 -0.9548  0.0073
   39MOL   H70546381   5.017   6.033   0.734  0.5680  1.7597  1.3998
   39MOL   H70646382   4.707   5.817   0.927 -0.1388 -0.4043  0.8402
   39MOL   H70746383   4.602   5.940   0.866  0.1467  0.6574 -1.9584
   39MOL   H70846384   4.640   6.089   1.046  1.0824 -0.6747 -0.4344
   39MOL   H70946385   4.785   6.006   1.107  1.1316  0.9349 -0.6057
   39MOL   H71046386   4.654   5.826   1.178 -1.8643 -0.9548 -0.3562
   39MOL   H71146387   4.501   5.908   1.149 -0.0312 -2.5513  2.4410
   39MOL   H71246388   4.714   5.995   1.341  1.1156 -1.1838 -0.4793
   39MOL   H71346389   4.559   5.921   1.377 -2.2035  2.5317 -0.4781
   39MOL   H71446390   4.541   6.148   1.410 -1.0223 -1.4467  0.2758
   39MOL   H71546391   4.609   6.179   1.250 -1.6336 -1.8972 -3.4647
   39MOL   H71646392   4.411   6.241   1.242 -3.2040  0.6313 -0.4166
   39MOL   H71746393   4.418   6.128   1.128  0.7409  2.1201  1.0103
   39MOL   H71846394   4.281   6.100   1.402 -0.6447 -0.9664 -0.9117
   39MOL   H71946395   4.284   5.966   1.286 -0.0895  0.1754 -1.6760
   39MOL   H72046396   4.163   6.092   1.118 -0.2480 -1.5707  0.1329
   39MOL   H72146397   4.081   6.033   1.255 -1.8091  1.4321 -1.2613
   39MOL   O72246398   4.174   6.341   1.187 -0.1492  0.7464 -0.2331
   39MOL   C72346399   4.123   6.467   1.180 -0.2845 -0.2019  0.3475
   39MOL   C72446400   4.219   6.564   1.115  0.0015 -0.5729 -0.1914
   39MOL   C72546401   4.235   6.543   0.970 -0.5184 -0.3685 -0.2002
   39MOL   C72646402   4.291   6.661   0.887 -0.9656 -0.3235  1.1998
   39MOL   C72746403   4.305   6.615   0.738 -0.1879  0.5968 -0.3457
   39MOL   C72846404   4.338   6.737   0.650 -0.1724 -0.4586 -0.6117
   39MOL   C72946405   4.363   6.698   0.496 -0.3900 -0.1510  0.5540
   39MOL   C73046406   4.370   6.831   0.411  0.3131 -0.3599  0.2011
   39MOL   C73146407   4.412   6.801   0.269  0.3781 -0.0675 -0.3940
   39MOL   C73246408   4.445   6.927   0.186 -0.4874  0.1872 -0.1856
   39MOL   O73346409   4.341   7.022   0.188 -0.2297 -0.1157  0.2869
   39MOL   C73446410   4.363   7.139   0.237 -0.5424 -0.6375 -0.7971
   39MOL   O73546411   4.467   7.170   0.300  0.1413  0.2696  0.5822
   39MOL   C73646412   4.255   7.233   0.220 -0.3148  0.3646 -0.1890
   39MOL   C73746413   4.297   7.370   0.171 -0.2741  0.1570 -0.0143
   39MOL   C73846414   4.192   7.451   0.097  0.1504 -0.5814 -0.1647
   39MOL   C73946415   4.058   7.459   0.166 -0.4207 -0.2631 -0.3250
   39MOL   C74046416   4.063   7.508   0.315  0.2105 -0.1810 -0.2244
   39MOL   C74146417   3.918   7.538   0.359 -0.4202 -0.5160  0.2843
   39MOL   C74246418   3.905   7.600   0.498 -0.3578  0.5736  0.8411
   39MOL   C74346419   3.765   7.663   0.522 -0.2866  0.1922  0.2347
   39MOL   C74446420   3.661   7.551   0.511  0.1155  0.1503  0.5970
   39MOL   O74546421   3.593   7.536   0.407  0.0850 -1.0718  0.0774
   39MOL   H74646422   4.029   6.466   1.124 -0.6927  1.3919  0.9873
   39MOL   H74746423   4.095   6.502   1.279  0.1038  0.8669  0.0849
   39MOL   H74846424   4.181   6.666   1.113  0.0223 -0.5585  0.2908
   39MOL   H74946425   4.312   6.555   1.171 -0.2403  0.4582  0.3822
   39MOL   H75046426   4.308   6.462   0.964  1.0973  1.0451  0.1895
   39MOL   H75146427   4.141   6.508   0.928 -0.8579 -0.7230  0.8331
   39MOL   H75246428   4.207   6.730   0.879 -0.0614  1.0360  2.9405
   39MOL   H75346429   4.384   6.708   0.920  0.1096 -0.4778 -1.4915
   39MOL   H75446430   4.210   6.570   0.710  0.0748 -0.0001 -0.2732
   39MOL   H75546431   4.382   6.538   0.738  0.4891  1.1360  4.3305
   39MOL   H75646432   4.430   6.786   0.683  0.2687 -1.0716 -0.9363
   39MOL   H75746433   4.259   6.810   0.668  1.9103  1.4669  1.0850
   39MOL   H75846434   4.271   6.649   0.466 -1.9854  1.9747  1.8510
   39MOL   H75946435   4.453   6.640   0.475 -1.0157 -0.7456 -0.5035
   39MOL   H76046436   4.446   6.896   0.455  0.0045 -0.1914  0.4877
   39MOL   H76146437   4.278   6.889   0.416  2.2959  2.8346  1.4380
   39MOL   H76246438   4.497   6.733   0.273  0.9497  0.6243 -0.7083
   39MOL   H76346439   4.330   6.746   0.223  0.1190 -1.1778  1.3307
   39MOL   H76446440   4.542   6.961   0.222 -0.7660 -0.7226  1.5173
   39MOL   H76546441   4.476   6.906   0.084  2.4651  2.5353  0.1562
   39MOL   H76646442   4.201   7.234   0.315 -0.2828 -3.3223 -0.0850
   39MOL   H76746443   4.188   7.191   0.146  0.4493 -0.5206 -0.3937
   39MOL   H76846444   4.390   7.364   0.115  1.3663  2.5565  2.3265
   39MOL   H76946445   4.323   7.431   0.258  0.3034  0.2287 -0.2371
   39MOL   H77046446   4.176   7.400   0.001 -0.6512  0.2603 -0.4844
   39MOL   H77146447   4.238   7.544   0.065 -0.7600 -0.1724 -0.2864
   39MOL   H77246448   4.026   7.355   0.161  1.4628 -0.8481 -0.7068
   39MOL   H77346449   3.996   7.523   0.104 -1.3049  1.0310  1.8264
   39MOL   H77446450   4.094   7.439   0.393 -3.7601 -1.1929  0.5842
   39MOL   H77546451   4.122   7.599   0.325 -0.0808  0.0110 -0.2158
   39MOL   H77646452   3.864   7.604   0.292  0.3551 -0.2328 -0.0702
   39MOL   H77746453   3.872   7.439   0.358  0.6340 -1.0083 -0.2655
   39MOL   H77846454   3.977   7.681   0.509  1.3783 -0.9962  1.3191
   39MOL   H77946455   3.940   7.543   0.584  2.2895  1.4209  0.3791
   39MOL   H78046456   3.760   7.698   0.625 -1.6641  2.1514 -0.4725
   39MOL   H78146457   3.749   7.747   0.454 -2.5594 -0.2166  0.2378
   39MOL   O78246458   3.664   7.470   0.615  0.3844 -0.3482  0.0226
   39MOL   C78346459   3.578   7.354   0.623 -0.0858  0.0263 -0.5712
   39MOL   C78446460   3.635   7.256   0.724  0.0457  0.1182  0.4386
   39MOL   C78546461   3.630   7.307   0.866 -0.4523  0.4221  0.2298
   39MOL   C78646462   3.763   7.323   0.936  0.5331  0.8176  0.6666
   39MOL   C78746463   3.842   7.437   0.876 -0.9230 -0.0395  0.1474
   39MOL   C78846464   3.957   7.485   0.956  0.1938 -0.0895 -0.7319
   39MOL   C78946465   4.035   7.596   0.892  0.3414 -0.5653 -0.2455
   39MOL   C79046466   4.178   7.627   0.955  0.4319  0.2167  0.1813
   39MOL   C79146467   4.289   7.514   0.944 -0.7322 -0.1099 -0.6112
   39MOL   C79246468   4.404   7.543   1.044  0.1024 -0.0567  0.0686
   39MOL   O79346469   4.465   7.668   1.004  0.6214  0.5967  0.1389
   39MOL   C79446470   4.468   0.018   1.087  1.2721 -0.0179 -0.5463
   39MOL   O79546471   4.381   0.032   1.179  0.6246 -0.1972  0.0955
   39MOL   C79646472   4.561   0.133   1.060 -0.6811  0.4415 -0.2553
   39MOL   C79746473   4.493   0.271   1.053  0.8313  0.0437  0.1220
   39MOL   C79846474   4.431   0.310   0.922  0.1042 -0.3592  0.6501
   39MOL   C79946475   4.308   0.227   0.892  0.7703  0.0713 -0.4873
   39MOL   C80046476   4.234   0.285   0.770  0.3016  0.0853 -0.3028
   39MOL   C80146477   4.109   0.209   0.733  0.3837  0.1187 -0.1698
   39MOL   C80246478   3.984   0.224   0.819 -0.6246  0.2963 -0.1533
   39MOL   C80346479   3.864   0.150   0.754  0.2292 -0.8844  0.3898
   39MOL   C80446480   3.740   0.153   0.845 -0.0620  0.1581 -0.1704
   39MOL   O80546481   3.631   0.178   0.798 -0.2252 -0.4409 -0.3983
   39MOL   H80646482   3.482   7.392   0.656 -1.2195 -1.3540 -2.2247
   39MOL   H80746483   3.557   7.312   0.525 -0.6649 -2.8193  0.7053
   39MOL   H80846484   3.577   7.164   0.716  0.9330 -0.3941 -0.2153
   39MOL   H80946485   3.738   7.237   0.695  0.8455  2.1584  1.7964
   39MOL   H81046486   3.583   7.404   0.884 -1.2794 -0.0549  0.6465
   39MOL   H81146487   3.579   7.241   0.936 -2.5176  1.6027 -0.1098
   39MOL   H81246488   3.741   7.343   1.041 -1.0112  0.0916  0.5075
   39MOL   H81346489   3.817   7.228   0.936  1.0014  1.0866  0.3057
   39MOL   H81446490   3.782   7.522   0.844  0.2741  1.9940  3.0094
   39MOL   H81546491   3.884   7.394   0.785 -3.0032 -0.5728 -0.5751
   39MOL   H81646492   4.034   7.411   0.980  1.3660  1.3440 -0.0294
   39MOL   H81746493   3.926   7.524   1.053 -0.8762  0.1028 -1.1452
   39MOL   H81846494   3.969   7.683   0.900 -2.0509 -1.9594 -3.6646
   39MOL   H81946495   4.040   7.586   0.784  3.2370 -1.3395 -0.0823
   39MOL   H82046496   4.153   7.652   1.058 -1.4772 -1.3918  0.1479
   39MOL   H82146497   4.228   7.710   0.906 -1.9101 -0.2719 -3.2148
   39MOL   H82246498   4.251   7.413   0.954  1.8545 -1.0729 -0.0739
   39MOL   H82346499   4.328   7.517   0.842 -3.0493 -1.8249 -1.5913
   39MOL   H82446500   4.356   7.547   1.142 -0.2330 -1.4410 -0.0286
   39MOL   H82546501   4.481   7.466   1.042  0.6892  0.3484  3.5549
   39MOL   H82646502   4.626   0.125   0.974 -1.2142  1.3068 -0.7430
   39MOL   H82746503   4.617   0.143   1.154 -3.8739  0.2185  1.7505
   39MOL   H82846504   4.565   0.351   1.068  1.8595 -0.7555 -0.5247
   39MOL   H82946505   4.425   0.271   1.138  0.1962 -1.3824 -0.3720
   39MOL   H83046506   4.506   0.283   0.847  0.3903  0.1534  0.7527
   39MOL   H83146507   4.403   0.415   0.928  3.4524  0.6654 -0.2325
   39MOL   H83246508   4.242   0.221   0.979  0.1866 -0.5725 -0.9682
   39MOL   H83346509   4.325   0.125   0.860  0.7273  0.1439 -0.7444
   39MOL   H83446510   4.212   0.389   0.795 -0.4887 -0.3232  0.7424
   39MOL   H83546511   4.300   0.277   0.683  0.1394  2.6323 -0.6939
   39MOL   H83646512   4.084   0.248   0.634 -0.3539  0.4652  0.1480
   39MOL   H83746513   4.135   0.106   0.710  0.6502  0.6440 -2.3227
   39MOL   H83846514   3.971   0.332   0.830  0.2170  0.0936  3.1427
   39MOL   H83946515   3.995   0.183   0.919  2.1032  4.3075  1.3364
   39MOL   H84046516   3.840   0.179   0.651  2.7051 -2.4287 -0.6636
   39MOL   H84146517   3.895   0.047   0.739  2.4264 -0.6153  2.7406
   39MOL   O84246518   3.765   0.106   0.967 -0.1376 -0.1525  0.5289
   39MOL   C84346519   3.668   0.084   1.063 -0.5372 -0.6238 -0.0392
   39MOL   C84446520   3.665   7.693   1.105  0.0944 -0.1582  0.0989
   39MOL   C84546521   3.566   7.701   1.220 -0.4046 -0.6913 -0.6580
   39MOL   C84646522   3.572   7.595   1.331 -0.0737  0.4652  0.1448
   39MOL   C84746523   3.456   7.603   1.434  0.6524 -0.0316 -0.2547
   39MOL   C84846524   3.453   7.480   1.524 -0.2718  0.4077 -0.0745
   39MOL   C84946525   3.380   7.494   1.651 -0.0538  0.0897  0.6272
   39MOL   C85046526   3.410   7.379   1.741  0.1462  0.1924 -0.2081
   39MOL   C85146527   3.326   7.375   1.874 -0.3778  0.3234 -0.7440
   39MOL   C85246528   3.343   7.256   1.973 -0.6049 -0.1736  0.0378
   39MOL   O85346529   3.251   7.282   2.082 -0.0718 -0.3236 -0.1938
   39MOL   C85446530   3.265   7.209   2.186  0.3015 -0.2746 -0.3078
   39MOL   O85546531   3.339   7.116   2.202  0.1257 -0.0037 -0.7514
   39MOL   C85646532   3.180   7.252   2.313 -0.3035  0.0363 -0.0128
   39MOL   C85746533   3.219   7.390   2.365  0.3997 -0.1420  0.3070
   39MOL   C85846534   3.131   7.439   2.478 -0.0395 -1.4614  0.0432
   39MOL   C85946535   3.151   7.583   2.520  0.0510  0.7301  0.1654
   39MOL   C86046536   3.037   7.618   2.615  0.1575 -0.8156  0.2215
   39MOL   C86146537   2.895   7.615   2.548 -0.7866 -0.4765  0.4552
   39MOL   C86246538   2.792   7.707   2.620  0.3443 -0.0761 -0.0040
   39MOL   C86346539   2.818   0.094   2.605  0.5354  0.0991  0.4769
   39MOL   C86446540   2.810   0.144   2.458  0.1483 -0.2858  0.2196
   39MOL   O86546541   2.709   0.192   2.402 -0.2426 -0.2792 -0.0752
   39MOL   H86646542   3.698   0.146   1.148  2.2210  0.0445 -1.4431
   39MOL   H86746543   3.570   0.120   1.032 -0.1291  1.4886  0.9777
   39MOL   H86846544   3.631   7.626   1.026  0.3730 -0.0463 -0.1196
   39MOL   H86946545   3.762   7.660   1.140 -0.0537  0.5414  1.1946
   39MOL   H87046546   3.551   0.042   1.267 -1.1795  0.3659 -3.0146
   39MOL   H87146547   3.469   7.697   1.171 -0.9156 -0.2281  0.3126
   39MOL   H87246548   3.564   7.495   1.289  2.3997  0.1339  0.3994
   39MOL   H87346549   3.673   7.588   1.372 -0.3045 -0.5141  0.5678
   39MOL   H87446550   3.359   7.611   1.384 -0.8221  2.6102  2.8257
   39MOL   H87546551   3.471   7.699   1.484 -1.2607  0.5073 -0.6770
   39MOL   H87646552   3.559   7.462   1.543  0.9927  4.0903 -3.0861
   39MOL   H87746553   3.425   7.389   1.471  1.5787 -0.9940  1.2504
   39MOL   H87846554   3.275   7.515   1.628  0.0831  0.1071  0.0237
   39MOL   H87946555   3.422   7.581   1.701  0.1882  0.4572 -0.1995
   39MOL   H88046556   3.516   7.369   1.766  0.3429  0.7420 -0.8206
   39MOL   H88146557   3.372   7.289   1.692  0.4729  1.0852 -2.1096
   39MOL   H88246558   3.356   7.459   1.936 -2.3936 -0.8789  1.9279
   39MOL   H88346559   3.221   7.391   1.851 -0.2300  1.5744 -0.5677
   39MOL   H88446560   3.328   7.159   1.926 -2.4112 -1.1640  2.5404
   39MOL   H88546561   3.444   7.255   2.014  0.0156  0.9793 -1.4118
   39MOL   H88646562   3.210   7.189   2.396  0.8119  0.5965  0.0233
   39MOL   H88746563   3.073   7.241   2.294 -0.3382 -2.2454  1.3535
   39MOL   H88846564   3.206   7.459   2.282 -2.3857  0.3019  1.0657
   39MOL   H88946565   3.326   7.395   2.382  0.0798  0.2509  2.2602
   39MOL   H89046566   3.137   7.366   2.559 -1.2861 -1.0013  0.5709
   39MOL   H89146567   3.032   7.426   2.433 -0.1026  2.5401 -1.1267
   39MOL   H89246568   3.159   7.638   2.426 -1.8568 -0.1576 -0.5447
   39MOL   H89346569   3.245   7.578   2.575 -0.0164  0.8106  0.2890
   39MOL   H89446570   3.035   7.558   2.706  0.3825 -1.3934 -0.1521
   39MOL   H89546571   3.057   7.723   2.636  1.5057 -0.6774 -1.5984
   39MOL   H89646572   2.888   7.627   2.440 -0.5434 -1.3896  0.3401
   39MOL   H89746573   2.856   7.515   2.564 -0.9001 -0.4562  0.2993
   39MOL   H89846574   2.785   7.680   2.726 -1.2693 -2.2017 -0.6126
   39MOL   H89946575   2.700   7.675   2.572 -0.2840  0.2656  0.9628
   39MOL   H90046576   2.741   0.147   2.662 -0.3463  0.7814 -1.3210
   39MOL   H90146577   2.914   0.115   2.653  0.2988  1.5704  0.3162
   39MOL   O90246578   2.932   0.161   2.409 -0.1705 -0.5131  0.1346
   39MOL   C90346579   2.942   0.192   2.267  0.2622 -0.0417  0.2318
   39MOL   C90446580   3.089   0.199   2.212  0.3526 -0.2130  0.4089
   39MOL   C90546581   3.087   0.244   2.064 -0.4078  0.1242  0.3693
   39MOL   C90646582   3.214   0.218   1.980 -0.2535  0.7194 -0.5493
   39MOL   C90746583   3.348   0.248   2.047  0.1890  0.1107 -0.2045
   39MOL   C90846584   3.460   0.210   1.951  0.1609 -0.5245 -0.1642
   39MOL   C90946585   3.518   0.319   1.863  0.0103  0.0142  0.0955
   39MOL   C91046586   3.635   0.283   1.774  0.2017  0.0141  0.3770
   39MOL   C91146587   3.726   0.388   1.722 -0.0440 -0.2763  0.3704
   39MOL   C91246588   3.648   0.502   1.659 -0.0211 -0.9380 -0.3663
   39MOL   O91346589   3.592   0.469   1.532 -0.0112  0.1073 -0.0097
   39MOL   C91446590   3.477   0.530   1.491 -0.1095  0.6492 -0.2215
   39MOL   O91546591   3.412   0.618   1.543 -0.3038 -0.0570  0.0204
   39MOL   C91646592   3.436   0.491   1.352  0.2050 -0.3201  0.2975
   39MOL   C91746593   3.282   0.460   1.349  0.2789 -0.3379 -0.1837
   39MOL   C91846594   3.245   0.325   1.409  0.0727  0.0556 -0.2896
   39MOL   C91946595   3.093   0.310   1.428  0.3555 -1.3597  0.1291
   39MOL   C92046596   3.058   0.200   1.528 -0.0105  0.0721  0.7038
   39MOL   C92146597   2.916   0.232   1.583 -0.7829  0.2060  0.5123
   39MOL   C92246598   2.855   0.123   1.674  0.6688  0.3081  0.1233
   39MOL   C92346599   2.710   0.146   1.726 -0.9377 -0.5588  0.2011
   39MOL   C92446600   2.655   0.072   1.845  0.3261  0.2336 -0.2123
   39MOL   O92546601   2.642   7.703   1.839  0.1547 -0.2705 -0.2445
   39MOL   H92646602   2.895   0.122   2.198  0.4278 -1.5427  1.5839
   39MOL   H92746603   2.902   0.292   2.253  0.9692  0.2267  0.0809
   39MOL   H92846604   3.146   0.262   2.280  1.5208  2.0568 -2.5520
   39MOL   H92946605   3.136   0.101   2.202  1.8118  0.2177  2.6613
   39MOL   H93046606   3.005   0.196   2.011 -0.5741 -1.5030  2.0646
   39MOL   H93146607   3.062   0.350   2.057 -1.1221 -0.0048  0.9231
   39MOL   H93246608   3.218   0.113   1.953 -0.3751  0.4154  0.5982
   39MOL   H93346609   3.205   0.261   1.880  4.0595  0.2417 -1.2476
   39MOL   H93446610   3.359   0.181   2.132  1.4108 -0.5781 -0.8953
   39MOL   H93546611   3.346   0.348   2.089 -0.2960 -0.1150  0.3203
   39MOL   H93646612   3.426   0.139   1.875  1.8105 -2.1094  0.5539
   39MOL   H93746613   3.544   0.170   2.008  0.2985  0.3294  0.2521
   39MOL   H93846614   3.548   0.407   1.919  0.3650  1.6261 -2.5143
   39MOL   H93946615   3.436   0.352   1.800 -1.5632 -2.2130  0.9174
   39MOL   H94046616   3.582   0.229   1.695 -0.6624 -0.0893  1.0222
   39MOL   H94146617   3.694   0.201   1.817 -1.2329 -1.0961  0.2651
   39MOL   H94246618   3.798   0.425   1.795  0.0553 -1.6697  0.9818
   39MOL   H94346619   3.786   0.343   1.643 -0.3723 -0.4020  0.1955
   39MOL   H94446620   3.571   0.540   1.726  1.1797  2.2896 -0.7652
   39MOL   H94546621   3.712   0.586   1.634 -0.2129 -0.8753 -0.6471
   39MOL   H94646622   3.496   0.404   1.327  0.8240  0.6104 -1.5626
   39MOL   H94746623   3.459   0.570   1.281  1.0829 -0.5896  0.2770
   39MOL   H94846624   3.239   0.477   1.249 -1.3995 -0.4727  0.4931
   39MOL   H94946625   3.233   0.534   1.413  1.4417 -0.9948  1.4671
   39MOL   H95046626   3.284   0.325   1.511 -0.1956 -1.1121 -0.1796
   39MOL   H95146627   3.280   0.237   1.353  1.0161  1.3375 -1.7738
   39MOL   H95246628   3.063   0.298   1.324 -0.2060  0.0907  0.1089
   39MOL   H95346629   3.063   0.409   1.462  1.2282 -1.7783  2.1632
   39MOL   H95446630   3.062   0.101   1.483  1.2748  1.0084 -1.2760
   39MOL   H95546631   3.132   0.209   1.608 -1.8423  0.0287  2.4582
   39MOL   H95646632   2.915   0.329   1.633  2.5416  0.7206 -0.3069
   39MOL   H95746633   2.843   0.232   1.501  0.6523  1.1285 -0.7764
   39MOL   H95846634   2.921   0.128   1.760  1.2663  0.8120 -0.3609
   39MOL   H95946635   2.862   0.025   1.627 -1.3432 -0.0587  0.5498
   39MOL   H96046636   2.699   0.250   1.756 -1.6784  0.0372 -2.0028
   39MOL   H96146637   2.633   0.135   1.649 -0.4165 -3.0666 -0.0041
   39MOL   O96246638   2.624   0.151   1.942 -0.4649 -0.1637 -0.2191
   39MOL   C96346639   2.553   0.091   2.051  0.2723 -0.0287 -0.1905
   39MOL   C96446640   2.404   0.101   2.040  0.1373 -0.2876  0.0235
   39MOL   C96546641   2.320   0.065   2.161 -1.1493  0.6799 -0.3839
   39MOL   C96646642   2.167   0.084   2.140 -0.2533  0.0821  0.2950
   39MOL   C96746643   2.112   7.739   2.033 -0.2464  0.0397 -0.1553
   39MOL   C96846644   1.965   7.751   1.999  0.2036 -0.8070  0.2737
   39MOL   C96946645   1.921   0.134   1.954 -0.2073  0.4695  0.0717
   39MOL   C97046646   1.970   0.191   1.820 -0.3413 -0.3026  0.1731
   39MOL   C97146647   1.858   0.264   1.742 -0.3847 -1.1387 -0.5670
   39MOL   C97246648   1.907   0.341   1.614  0.2174  0.4360  0.1092
   39MOL   O97346649   1.980   0.251   1.537  0.2896  0.3008 -0.0803
   39MOL   C97446650   2.117   0.261   1.537 -0.5102  0.5584 -0.6385
   39MOL   O97546651   2.176   0.343   1.611 -0.7724  0.4883 -0.3137
   39MOL   C97646652   2.184   0.149   1.455 -0.3145  0.6443  0.5300
   39MOL   C97746653   2.170   0.150   1.301  0.7422  0.2640 -0.3860
   39MOL   C97846654   2.280   0.248   1.240 -0.0317  0.9497 -0.4139
   39MOL   C97946655   2.271   0.266   1.089 -0.6488  0.0481  0.1905
   39MOL   C98046656   2.339   0.398   1.043 -0.4303 -0.5895  0.3603
   39MOL   C98146657   2.362   0.405   0.888  0.0856  0.2215  0.2024
   39MOL   C98246658   2.243   0.357   0.796 -0.8627  0.3049 -0.6743
   39MOL   C98346659   2.129   0.465   0.798  0.1493  1.2811 -0.0644
   39MOL   C98446660   2.028   0.453   0.692  0.6425  0.5251 -0.0922
   39MOL   O98546661   2.027   0.534   0.599 -0.1287 -0.3454 -0.0226
   39MOL   H98646662   2.584   7.746   2.073  0.2811  0.0599  0.2161
   39MOL   H98746663   2.588   0.145   2.139 -1.4817 -0.4012  0.7513
   39MOL   H98846664   2.372   0.199   2.006  1.3336  0.5370  1.2127
   39MOL   H98946665   2.386   0.031   1.959  2.2171 -0.2782 -0.4911
   39MOL   H99046666   2.344   7.721   2.196 -2.3004  0.2346 -0.8611
   39MOL   H99146667   2.347   0.133   2.242 -0.2482 -0.1767  0.0389
   39MOL   H99246668   2.112   0.071   2.233  0.0121  3.2829  0.9542
   39MOL   H99346669   2.139   0.182   2.102  0.9632  0.0940 -0.5995
   39MOL   H99446670   2.129   7.642   2.079  1.3023  0.8534  1.0660
   39MOL   H99546671   2.168   7.751   1.941  1.8589 -0.1448  1.0547
   39MOL   H99646672   1.905   7.718   2.083 -0.4715  0.0588  0.1370
   39MOL   H99746673   1.953   7.678   1.919 -0.3312 -0.1288 -0.2756
   39MOL   H99846674   1.954   0.206   2.029  0.9430 -0.2065  0.2272
   39MOL   H99946675   1.813   0.148   1.961 -0.1504  0.7421  0.4240
   39MOL     H146676   1.995   0.111   1.750 -1.0186 -0.3503 -0.0208
   39MOL     H246677   2.063   0.245   1.833 -0.6405  0.1297  0.5006
   39MOL     H346678   1.779   0.194   1.714  0.1232 -1.4486 -1.2382
   39MOL     H446679   1.802   0.333   1.805 -0.3708 -1.9145  0.3122
   39MOL     H546680   1.824   0.380   1.556  0.5296 -0.4146 -0.9239
   39MOL     H646681   1.965   0.432   1.632  1.4976 -0.9148  3.1395
   39MOL     H746682   2.136   0.059   1.494 -3.1018  2.1201  0.6737
   39MOL     H846683   2.285   0.127   1.490 -0.2091  0.1691 -0.0610
   39MOL     H946684   2.067   0.180   1.284  0.4571 -0.3386  0.2518
   39MOL    H1046685   2.184   0.055   1.250 -0.0599  0.0863 -0.2761
   39MOL    H1146686   2.375   0.210   1.276  0.6904  1.5484 -1.6353
   39MOL    H1246687   2.269   0.347   1.283 -4.3263  1.1958 -1.8394
   39MOL    H1346688   2.164   0.263   1.071 -0.8160  0.0381  1.1653
   39MOL    H1446689   2.323   0.185   1.037 -0.4803  0.5324 -0.4017
   39MOL    H1546690   2.286   0.487   1.077 -0.9773  1.1320 -4.5409
   39MOL    H1646691   2.438   0.402   1.086  0.1724 -0.0411 -1.0410
   39MOL    H1746692   2.395   0.507   0.869  0.7432  0.0326  0.3273
   39MOL    H1846693   2.449   0.341   0.872  0.8717  1.0144  1.2153
   39MOL    H1946694   2.199   0.262   0.828  0.3695  0.1081  0.4413
   39MOL    H2046695   2.291   0.350   0.698  0.4543  4.0698 -0.3540
   39MOL    H2146696   2.080   0.480   0.895 -1.3683  1.2559 -0.8203
   39MOL    H2246697   2.167   0.565   0.780 -2.7652  2.3853 -0.2379
   39MOL    O2346698   1.937   0.357   0.715  0.4986  0.0035  0.2490
   39MOL    C2446699   1.847   0.321   0.613 -0.3524 -0.4573 -0.9629
   39MOL    C2546700   1.757   0.204   0.650 -0.7104  0.4262 -0.3944
   39MOL    C2646701   1.644   0.193   0.542  0.3934  0.2880 -0.1092
   39MOL    C2746702   1.677   0.161   0.398 -0.5752  0.1452 -0.2932
   39MOL    C2846703   1.551   0.173   0.307  0.0590 -1.0287 -0.4353
   39MOL    C2946704   1.587   0.144   0.164  0.5550  0.1737 -0.2939
   39MOL    C3046705   1.468   0.167   0.073  0.1457 -0.0515 -0.7623
   39MOL    C3146706   1.332   0.106   0.118 -0.3204  0.1695 -0.0459
   39MOL    C3246707   1.245   0.069   7.753 -0.1086 -0.5762  0.3331
   39MOL    C3346708   1.292   7.695   7.680  0.3278  0.4204 -0.0749
   39MOL    O3446709   1.187   7.655   7.590  0.1865  0.1417 -0.8306
   39MOL    C3546710   1.159   7.526   7.582  0.2174 -0.8266 -0.2758
   39MOL    O3646711   1.233   7.437   7.618  0.7418  0.1274  0.1037
   39MOL    C3746712   1.025   7.497   7.511 -0.1047  0.0103  0.6574
   39MOL    C3846713   0.971   7.355   7.525  0.6775 -0.4336 -0.2449
   39MOL    C3946714   0.855   7.322   7.431  0.5226  0.3177  0.1834
   39MOL    C4046715   0.764   7.203   7.470 -0.6564  0.2741 -0.3873
   39MOL    C4146716   0.670   7.154   7.362 -0.0222  0.3963  0.0963
   39MOL    C4246717   0.566   7.050   7.412  0.3789  0.4916  0.8244
   39MOL    C4346718   0.445   7.052   7.326 -0.0312  0.0393 -0.4130
   39MOL    C4446719   0.459   6.999   7.184 -0.1435 -0.1166  0.2393
   39MOL    C4546720   0.485   6.847   7.169 -0.0754 -0.2765  0.0063
   39MOL    O4646721   0.584   6.802   7.112  0.0522 -1.1730  0.0819
   39MOL    H4746722   1.787   0.408   0.586  0.8884  0.2075 -1.6646
   39MOL    H4846723   1.912   0.302   0.528 -1.6074  0.7887 -2.2423
   39MOL    H4946724   1.817   0.114   0.659 -0.5283  0.5411 -0.4453
   39MOL    H5046725   1.718   0.227   0.749  0.1960  0.1570  0.0281
   39MOL    H5146726   1.586   0.109   0.579 -0.7678  1.3201  0.4514
   39MOL    H5246727   1.590   0.288   0.551  2.0619  1.2020  0.5385
   39MOL    H5346728   1.752   0.224   0.351  1.3101 -0.8215  1.3411
   39MOL    H5446729   1.731   0.067   0.391  0.8281  0.7894  1.6133
   39MOL    H5546730   1.511   0.274   0.322 -1.7710 -2.0782  2.2955
   39MOL    H5646731   1.477   0.104   0.346  2.6182 -3.7013 -0.1569
   39MOL    H5746732   1.635   0.046   0.158 -0.2237 -0.3067  1.2055
   39MOL    H5846733   1.654   0.222   0.127  1.7374  0.2162  1.8527
   39MOL    H5946734   1.488   0.135   7.728 -0.2698 -2.7786 -0.0243
   39MOL    H6046735   1.451   0.274   0.062 -0.3812  0.2909  2.6206
   39MOL    H6146736   1.274   0.177   0.177 -0.7384 -1.3679  1.4521
   39MOL    H6246737   1.339   0.025   0.191 -0.3928  1.8924  1.9323
   39MOL    H6346738   1.141   0.053   0.022 -0.0262 -1.9144 -0.0878
   39MOL    H6446739   1.249   0.155   7.686  3.2105 -0.0981  1.0567
   39MOL    H6546740   1.375   7.724   7.614 -0.6346  1.6922 -0.7446
   39MOL    H6646741   1.323   7.618   7.750  0.9806  0.0046 -0.8019
   39MOL    H6746742   1.033   7.526   7.407  1.9527  0.6391  0.9587
   39MOL    H6846743   0.948   7.566   7.545 -0.9232 -0.0553 -1.0279
   39MOL    H6946744   0.936   7.344   7.628 -0.9062 -0.8804 -0.8119
   39MOL    H7046745   1.043   7.276   7.503  0.1283 -1.3885  1.2682
   39MOL    H7146746   0.904   7.305   7.335  3.2831  0.3249  1.5337
   39MOL    H7246747   0.794   7.412   7.420  0.7636  0.3069 -1.3996
   39MOL    H7346748   0.712   7.230   7.562 -1.0988  0.0262 -0.5593
   39MOL    H7446749   0.826   7.119   7.502  0.0692  1.4602  1.3436
   39MOL    H7546750   0.625   7.242   7.317  3.1856  2.0340 -0.0790
   39MOL    H7646751   0.724   7.109   7.279  2.0264 -1.9524  2.5596
   39MOL    H7746752   0.604   6.947   7.412 -1.1102 -0.0707 -0.1500
   39MOL    H7846753   0.545   7.080   7.515 -2.0472 -1.5996  0.9665
   39MOL    H7946754   0.393   7.147   7.331 -0.8130 -0.4983  2.4558
   39MOL    H8046755   0.383   6.979   7.377  1.4432 -0.2491  1.0038
   39MOL    H8146756   0.366   7.016   7.130  0.6469  1.2526 -0.7120
   39MOL    H8246757   0.534   7.056   7.130 -2.1833  0.4790 -2.0537
   39MOL    O8346758   0.395   6.767   7.229  0.3140  0.7646 -0.0209
   39MOL    C8446759   0.403   6.629   7.224 -0.4689 -0.1967  0.4080
   39MOL    C8546760   0.437   6.561   7.357 -0.6132 -0.1863 -0.9830
   39MOL    C8646761   0.584   6.592   7.401  0.3035  0.0709 -0.6567
   39MOL    C8746762   0.634   6.526   7.534 -0.6097  0.3709  0.6371
   39MOL    C8846763   0.769   6.577   7.590 -0.1273 -0.0146  0.3031
   39MOL    C8946764   0.775   6.715   7.659 -0.6190  1.0379 -0.2104
   39MOL    C9046765   0.918   6.761   7.696  0.4442 -0.5165  0.3238
   39MOL    C9146766   0.928   6.885   0.031 -0.3377 -0.0611 -0.6147
   39MOL    C9246767   1.071   6.950   0.027  0.0937  0.2811 -0.3456
   39MOL    C9346768   1.086   7.079   0.108 -0.0578  0.4876 -0.2108
   39MOL    O9446769   1.218   7.123   0.071  0.1289 -0.1038 -0.2986
   39MOL    C9546770   1.271   7.241   0.125 -0.1870  0.4870  0.2588
   39MOL    O9646771   1.215   7.312   0.205 -0.0313 -0.8764 -0.5353
   39MOL    C9746772   1.414   7.277   0.079 -0.3606  0.3564  0.3831
   39MOL    C9846773   1.528   7.177   0.125  0.0585 -0.7342  0.2171
   39MOL    C9946774   1.543   7.150   0.275  0.2218 -0.1361 -0.1370
   39MOL   C10046775   1.680   7.090   0.300  0.0583 -0.2800 -0.1931
   39MOL   C10146776   1.727   7.074   0.445  0.3414  0.2360 -0.5199
   39MOL   C10246777   1.875   7.027   0.466 -0.4839 -0.6513 -0.2054
   39MOL   C10346778   1.900   6.981   0.611 -0.1994  0.1680  0.3043
   39MOL   C10446779   1.806   6.868   0.658  0.1006  0.8812 -0.1713
   39MOL   C10546780   1.864   6.781   0.766 -0.0447 -0.5330 -0.1535
   39MOL   O10646781   1.972   6.798   0.818 -0.2966  0.7699 -0.7797
   39MOL   H10746782   0.301   6.602   7.196 -0.6980  0.7852  0.2766
   39MOL   H10846783   0.450   6.584   7.137 -1.7001 -1.4188  0.3504
   39MOL   H10946784   0.378   6.598   7.440  0.7074 -1.4496  0.5408
   39MOL   H11046785   0.427   6.453   7.358 -2.1360 -0.0402  1.7228
   39MOL   H11146786   0.649   6.545   7.328  0.4020 -0.4755 -0.2312
   39MOL   H11246787   0.601   6.699   7.407  1.0642 -0.0991  0.3982
   39MOL   H11346788   0.559   6.529   7.612 -0.4685 -0.2170  0.8041
   39MOL   H11446789   0.641   6.420   7.511  0.0992  0.6016 -0.2722
   39MOL   H11546790   0.830   6.577   7.501  1.1993 -3.6024  1.1253
   39MOL   H11646791   0.811   6.510   7.665  0.2442 -0.8109 -0.6047
   39MOL   H11746792   0.711   6.714   7.747  0.6228 -4.5672  0.8683
   39MOL   H11846793   0.736   6.790   7.591  0.3333  1.0482 -0.7586
   39MOL   H11946794   0.978   6.781   7.607 -1.1064  1.3000 -0.3511
   39MOL   H12046795   0.968   6.673   7.735  0.1828 -1.2374 -0.9579
   39MOL   H12146796   0.884   6.870   0.129 -2.1385 -0.7866 -1.5024
   39MOL   H12246797   0.859   6.954   7.740  0.1691  1.6946  1.1499
   39MOL   H12346798   1.145   6.882   0.070 -2.6553 -1.0975  2.4005
   39MOL   H12446799   1.114   6.962   7.684  0.1123 -0.2074 -0.3997
   39MOL   H12546800   1.007   7.151   0.089 -0.5696  0.4001  1.5775
   39MOL   H12646801   1.075   7.035   0.207 -1.5389  1.5732  0.1237
   39MOL   H12746802   1.426   7.384   0.095  1.5573  0.5511 -1.9841
   39MOL   H12846803   1.424   7.278   7.727  1.8800  1.1514  0.5630
   39MOL   H12946804   1.616   7.183   0.061  0.5373 -1.3035  0.8136
   39MOL   H13046805   1.496   7.082   0.082  0.0824 -1.3154  1.4649
   39MOL   H13146806   1.460   7.090   0.311  0.9204 -1.8241 -1.2942
   39MOL   H13246807   1.545   7.252   0.314  0.9860  0.3953 -1.5195
   39MOL   H13346808   1.752   7.148   0.242  2.2520 -2.6155  0.0842
   39MOL   H13446809   1.674   6.986   0.266 -0.9721 -0.1116 -0.5535
   39MOL   H13546810   1.704   7.156   0.513  2.9119 -0.9749  1.9333
   39MOL   H13646811   1.658   6.996   0.476  1.2050 -1.1984 -2.1456
   39MOL   H13746812   1.903   6.950   0.395 -0.8588  0.2491 -1.3418
   39MOL   H13846813   1.944   7.108   0.443  0.1941 -1.1967 -0.1089
   39MOL   H13946814   1.896   7.065   0.681 -1.0099  0.3205  0.0791
   39MOL   H14046815   2.004   6.949   0.618 -0.6146 -1.7276 -1.6057
   39MOL   H14146816   1.718   6.921   0.695 -0.0481  0.7375 -0.3269
   39MOL   H14246817   1.763   6.801   0.585  1.1851  0.0393 -0.0558
   39MOL   O14346818   1.791   6.676   0.798  0.4938 -0.3351  0.2385
   39MOL   C14446819   1.825   6.596   0.910  0.2460 -0.2409  0.4668
   39MOL   C14546820   1.699   6.511   0.946  0.8130  0.2198 -0.0272
   39MOL   C14646821   1.736   6.403   1.044 -0.2534 -0.5121 -0.2381
   39MOL   C14746822   1.626   6.351   1.136  0.2440  0.1505 -0.0630
   39MOL   C14846823   1.675   6.230   1.224 -0.3924  0.4692 -0.1546
   39MOL   C14946824   1.808   6.246   1.301 -0.1162 -0.0681  0.7051
   39MOL   C15046825   1.811   6.347   1.416  0.0441  0.0615  0.4331
   39MOL   C15146826   1.947   6.356   1.478 -0.4072  0.2526 -0.0325
   39MOL   C15246827   1.970   6.474   1.579  0.0567 -0.3851  0.7031
   39MOL   C15346828   2.117   6.498   1.607  0.7172 -0.3996  0.9877
   39MOL   O15446829   2.163   6.376   1.662 -0.0686 -0.6272 -0.7656
   39MOL   C15546830   2.283   6.386   1.720  0.4199 -0.2281 -0.2293
   39MOL   O15646831   2.353   6.483   1.730  0.4534 -0.6446 -0.1054
   39MOL   C15746832   2.344   6.251   1.764 -0.3647 -0.0469  1.1170
   39MOL   C15846833   2.384   6.164   1.646  1.0717  0.3330  0.6314
   39MOL   C15946834   2.526   6.178   1.590  0.1554  0.6779  0.5589
   39MOL   C16046835   2.579   6.086   1.477  0.5251 -0.4353  0.4293
   39MOL   C16146836   2.722   6.116   1.439  0.3424  0.3678  0.6013
   39MOL   C16246837   2.734   6.053   1.297  0.6495  0.2646  0.5108
   39MOL   C16346838   2.883   6.047   1.256  0.1081  0.4070 -0.0166
   39MOL   C16446839   2.911   5.954   1.136  0.7588  0.2188 -0.2033
   39MOL   C16546840   2.854   6.004   1.006  0.4193  0.0549  0.0894
   39MOL   O16646841   2.846   6.120   0.966  0.6090  0.0348 -0.7293
   39MOL   H16746842   1.898   6.523   0.874  2.5748  2.0605  0.3609
   39MOL   H16846843   1.864   6.658   0.990 -1.1597  0.2861  0.7529
   39MOL   H16946844   1.642   6.591   0.994 -0.4700 -0.6415 -0.0978
   39MOL   H17046845   1.633   6.474   0.867  1.2322 -1.7702  0.5440
   39MOL   H17146846   1.791   6.326   0.990  0.6211 -1.6320  2.1546
   39MOL   H17246847   1.814   6.439   1.111 -0.4868 -1.4906  0.5778
   39MOL   H17346848   1.597   6.434   1.201  0.5259 -1.3379  1.9922
   39MOL   H17446849   1.542   6.308   1.081 -1.5748  0.7713  2.1574
   39MOL   H17546850   1.685   6.140   1.162  0.6767 -0.1503  0.8939
   39MOL   H17646851   1.598   6.210   1.298  0.5018  2.6198  1.4023
   39MOL   H17746852   1.883   6.256   1.222 -0.0901 -0.7765  0.6361
   39MOL   H17846853   1.825   6.144   1.335 -2.3517 -0.8775 -0.5266
   39MOL   H17946854   1.729   6.320   1.483 -1.7656  0.3910 -1.5866
   39MOL   H18046855   1.777   6.446   1.383  1.4048  0.4479  0.1620
   39MOL   H18146856   2.012   6.368   1.391  0.2281 -1.9251  0.1117
   39MOL   H18246857   1.977   6.267   1.534  0.8881  1.6287  1.5086
   39MOL   H18346858   1.927   6.563   1.535 -0.3139  0.1915  2.2023
   39MOL   H18446859   1.922   6.461   1.676 -0.6608 -1.6029  0.1928
   39MOL   H18546860   2.164   6.522   1.512 -0.5976 -1.2179  0.1044
   39MOL   H18646861   2.127   6.589   1.665  0.6505 -0.8784  1.7548
   39MOL   H18746862   2.269   6.205   1.828 -1.4555 -0.2007 -0.2500
   39MOL   H18846863   2.437   6.274   1.816  1.7554 -1.2195 -1.9807
   39MOL   H18946864   2.317   6.176   1.561  1.3494  2.2789  0.6770
   39MOL   H19046865   2.370   6.060   1.679  0.7740  0.6674  1.5940
   39MOL   H19146866   2.597   6.161   1.670  0.7966 -0.4894 -0.2395
   39MOL   H19246867   2.540   6.283   1.562  2.1871  0.1204 -0.5981
   39MOL   H19346868   2.511   6.094   1.392  2.0682  1.3356 -0.6605
   39MOL   H19446869   2.571   5.980   1.502 -0.9738 -0.8314 -1.5832
   39MOL   H19546870   2.734   6.225   1.434  1.6049  0.2116 -0.0271
   39MOL   H19646871   2.790   6.074   1.513  1.2367 -1.7479 -1.3717
   39MOL   H19746872   2.695   5.952   1.288 -0.1382  0.7592 -2.2000
   39MOL   H19846873   2.690   6.111   1.216  0.7908 -1.5118 -0.8742
   39MOL   H19946874   2.938   6.014   1.344  0.1155  0.1930 -0.1024
   39MOL   H20046875   2.928   6.145   1.240  0.8468  0.3657  1.7313
   39MOL   H20146876   3.015   5.944   1.106  0.4106  2.6456 -2.3429
   39MOL   H20246877   2.863   5.857   1.154  2.7936 -0.6929  0.4698
   39MOL   H20346878   2.825   5.922   0.941  0.6554  0.5629 -0.6589
   40MOL     O146879   6.485   4.730   7.201  0.1895  0.7509 -0.3607
   40MOL     C246880   6.446   4.830   7.279 -0.4062 -0.0963 -0.1723
   40MOL     C346881   6.325   4.790   7.374 -0.1217  0.1549 -0.1007
   40MOL     C446882   6.182   4.786   7.314 -0.3958  0.2683 -0.9308
   40MOL     C546883   6.083   4.700   7.402 -0.2471 -0.2616  0.0393
   40MOL     C646884   6.048   4.763   7.536  0.8756  0.8946 -0.4720
   40MOL     C746885   5.954   4.887   7.531  0.2193 -0.4746 -0.2678
   40MOL     C846886   5.923   4.948   7.671 -0.2422  0.1768 -0.0011
   40MOL     C946887   5.853   5.081   7.668 -0.0981  0.7569 -0.2715
   40MOL    C1046888   5.811   5.116   0.051 -0.1121 -1.0757 -0.3420
   40MOL    C1146889   5.743   5.258   0.056  0.4666  1.1052  0.5858
   40MOL    O1246890   5.605   5.246   0.013 -0.3405  0.5936 -0.0610
   40MOL    C1346891   5.503   5.225   0.097  0.4886  0.1684 -0.0464
   40MOL    O1446892   5.516   5.215   0.217 -0.1787  0.2225 -0.3328
   40MOL    C1546893   5.364   5.238   0.026 -1.3296  1.2205 -0.0672
   40MOL    C1646894   5.264   5.307   0.124  0.7553 -0.4556  0.4396
   40MOL    C1746895   5.130   5.324   0.060  0.4732  0.1014 -0.1583
   40MOL    C1846896   5.033   5.379   0.162  0.1464  0.5059  0.3760
   40MOL    C1946897   4.903   5.432   0.097  0.3713 -0.3204  0.4185
   40MOL    C2046898   4.783   5.446   0.185 -0.9812 -0.2249  0.1453
   40MOL    C2146899   4.651   5.483   0.120  0.3464 -0.0941  0.0721
   40MOL    C2246900   4.667   5.610   0.027  0.0513 -0.0296  0.0270
   40MOL    C2346901   4.543   5.689   7.738 -0.7288 -0.2469  0.1147
   40MOL    O2446902   4.511   5.684   7.623 -0.1364 -0.1695 -0.5773
   40MOL    H2546903   6.527   4.869   7.340 -2.1799  3.3436  0.0774
   40MOL    H2646904   6.421   4.917   7.219  0.1297  0.2599  0.1214
   40MOL    H2746905   6.353   4.697   7.423 -1.2567  0.8939  2.0223
   40MOL    H2846906   6.318   4.873   7.445  2.0187  0.7022 -0.5129
   40MOL    H2946907   6.142   4.886   7.303 -1.7742  0.0546  1.7483
   40MOL    H3046908   6.187   4.737   7.216 -3.5710 -1.1657 -0.4384
   40MOL    H3146909   5.990   4.680   7.348 -0.7706 -0.0918  0.8632
   40MOL    H3246910   6.119   4.599   7.423 -0.8693 -0.6914 -0.9064
   40MOL    H3346911   6.141   4.785   7.589 -1.2311  2.6833  2.6017
   40MOL    H3446912   6.005   4.690   7.604  2.4011 -0.0328 -0.4911
   40MOL    H3546913   5.857   4.865   7.487 -0.2896  0.9227  0.1293
   40MOL    H3646914   6.007   4.963   7.474  0.2932  0.2058  0.6967
   40MOL    H3746915   6.014   4.957   7.730 -0.6202  1.0912  0.4466
   40MOL    H3846916   5.857   4.871   7.709 -1.5075  0.5183 -1.4420
   40MOL    H3946917   5.760   5.075   7.612 -0.4167 -0.5894  0.3878
   40MOL    H4046918   5.913   5.157   7.619  0.2863  1.0493  0.6432
   40MOL    H4146919   5.733   5.055   0.097 -0.3793 -0.7114 -0.3031
   40MOL    H4246920   5.892   5.131   0.122  0.7235  1.8588 -1.8509
   40MOL    H4346921   5.743   5.297   0.158 -0.9288  0.2890  0.9103
   40MOL    H4446922   5.798   5.322   7.744 -0.8369  2.8904  1.1691
   40MOL    H4546923   5.325   5.140   7.755  1.0892  0.6023 -1.4485
   40MOL    H4646924   5.375   5.307   7.699  0.3316  1.3366  0.2409
   40MOL    H4746925   5.301   5.407   0.149 -0.0518 -0.1064  0.2570
   40MOL    H4846926   5.254   5.250   0.216  0.0105 -0.4214  0.3816
   40MOL    H4946927   5.088   5.227   0.035  4.3778 -1.7929  0.3459
   40MOL    H5046928   5.138   5.395   7.735  1.7913  0.4703  0.2703
   40MOL    H5146929   5.076   5.461   0.218 -1.1516  2.1287 -0.9669
   40MOL    H5246930   5.013   5.290   0.223 -0.0953  0.4305  0.1860
   40MOL    H5346931   4.928   5.523   0.042  2.4596 -1.1164  0.0173
   40MOL    H5446932   4.861   5.361   0.026 -3.5216  0.9217  1.3624
   40MOL    H5546933   4.757   5.357   0.242 -0.1203 -0.2721  0.4763
   40MOL    H5646934   4.804   5.515   0.267  3.0672 -0.7776 -0.3511
   40MOL    H5746935   4.579   5.507   0.199 -0.9920  1.0947 -1.4731
   40MOL    H5846936   4.624   5.399   0.057  2.9883 -0.4620 -0.5905
   40MOL    H5946937   4.727   5.687   0.076 -0.1876 -0.3131  0.7826
   40MOL    H6046938   4.719   5.582   7.693 -0.4568 -0.6649 -0.0699
   40MOL    H6146939   6.529   4.662   7.250  2.0982  0.8202 -1.9211
   40MOL    O6246940   4.488   5.767   0.081  0.4648 -0.0535  1.3684
   40MOL    C6346941   4.385   5.850   0.043 -0.5732  0.2130 -0.1753
   40MOL    C6446942   4.329   5.929   0.163  0.1590 -0.3190  0.7586
   40MOL    C6546943   4.224   5.846   0.245 -0.4723 -0.0135 -0.1508
   40MOL    C6646944   4.201   5.892   0.394  0.1542  0.3528  0.2803
   40MOL    C6746945   4.076   5.985   0.405  0.4466  0.2987 -0.4676
   40MOL    C6846946   4.089   6.123   0.339 -0.2193 -0.7457 -0.0307
   40MOL    C6946947   3.963   6.212   0.361  0.0589  0.5479  0.2071
   40MOL    C7046948   3.981   6.363   0.343 -0.5235  0.6285  0.7441
   40MOL    C7146949   4.033   6.434   0.474  0.6035 -0.4656  0.7562
   40MOL    C7246950   3.927   6.491   0.569  0.0087 -0.8900  0.4851
   40MOL    O7346951   3.849   6.386   0.614 -0.2405  0.3560 -0.2172
   40MOL    C7446952   3.885   6.298   0.710 -0.0487 -0.2402  0.5186
   40MOL    O7546953   3.996   6.282   0.754  0.1512 -0.4347  0.2137
   40MOL    C7646954   3.771   6.204   0.747 -0.5786  0.0565  0.2690
   40MOL    C7746955   3.697   6.227   0.881 -0.2867 -0.0285  0.3794
   40MOL    C7846956   3.783   6.207   1.003 -0.4515 -0.1673 -0.6087
   40MOL    C7946957   3.693   6.189   1.124 -0.2262 -0.9806  0.8524
   40MOL    C8046958   3.611   6.052   1.133 -0.1966 -1.1835  1.2680
   40MOL    C8146959   3.554   6.035   1.271 -0.4235  0.3757  0.0130
   40MOL    C8246960   3.460   5.911   1.280  0.1474 -0.2618 -0.1016
   40MOL    C8346961   3.388   5.888   1.421  0.2670  0.2412  0.7706
   40MOL    C8446962   3.271   5.980   1.441  0.6190 -0.1913  0.0754
   40MOL    O8546963   3.151   5.952   1.428  0.1852  0.7088  0.4044
   40MOL    H8646964   4.430   5.915   7.725  0.5704 -0.6505 -0.2577
   40MOL    H8746965   4.309   5.795   7.745 -0.7489  0.7251 -0.4488
   40MOL    H8846966   4.403   5.971   0.231  0.0566  0.8331  0.1868
   40MOL    H8946967   4.279   6.018   0.124  0.0228  0.0307  1.7267
   40MOL    H9046968   4.124   5.841   0.203 -0.3729 -0.4404 -0.3349
   40MOL    H9146969   4.254   5.742   0.254 -1.0463 -0.1171  0.6985
   40MOL    H9246970   4.183   5.808   0.462  0.3396  0.3784  0.3608
   40MOL    H9346971   4.293   5.932   0.436 -0.4473  1.4439  0.5824
   40MOL    H9446972   4.066   6.011   0.511  0.5549 -0.5967 -0.2276
   40MOL    H9546973   3.979   5.936   0.392 -0.2547  1.1932  1.2056
   40MOL    H9646974   4.113   6.109   0.234 -2.7919 -0.3962 -0.6763
   40MOL    H9746975   4.177   6.173   0.382 -0.5174 -1.3261  1.2788
   40MOL    H9846976   3.919   6.184   0.457  0.6053  1.0730  0.6173
   40MOL    H9946977   3.884   6.176   0.295 -0.7621  0.5742  1.1638
   40MOL   H10046978   3.894   6.418   0.307 -1.2811 -0.9960  0.0966
   40MOL   H10146979   4.063   6.379   0.273 -0.6208  1.1027  0.7324
   40MOL   H10246980   4.093   6.362   0.530  0.8224 -0.9904 -0.1292
   40MOL   H10346981   4.097   6.518   0.445 -0.4163  0.0257 -0.1048
   40MOL   H10446982   3.965   6.544   0.657 -1.3750 -2.3620  1.9919
   40MOL   H10546983   3.858   6.560   0.521  0.1211  1.8371  4.0024
   40MOL   H10646984   3.822   6.108   0.751  2.2063  1.5201  2.3593
   40MOL   H10746985   3.693   6.187   0.673  1.2691 -0.6586 -1.5741
   40MOL   H10846986   3.614   6.157   0.882 -0.8465  0.6160 -0.1772
   40MOL   H10946987   3.660   6.330   0.879  1.0206  0.4230 -1.9617
   40MOL   H11046988   3.857   6.286   1.012  0.4692 -0.9921 -0.8353
   40MOL   H11146989   3.852   6.123   1.000  1.3607  1.2476  0.4804
   40MOL   H11246990   3.620   6.269   1.125  1.2913  0.5275 -2.2102
   40MOL   H11346991   3.752   6.181   1.215  0.6966 -1.5012  0.2155
   40MOL   H11446992   3.541   6.059   1.050  0.9408 -0.8316  0.3144
   40MOL   H11546993   3.677   5.971   1.100  1.7872  1.4545 -1.6132
   40MOL   H11646994   3.631   6.022   1.346 -1.7356 -0.7717  1.1896
   40MOL   H11746995   3.507   6.130   1.295  1.8478  0.8007  2.9857
   40MOL   H11846996   3.522   5.827   1.251  1.8471  1.2526 -0.9750
   40MOL   H11946997   3.389   5.919   1.197  0.3217  1.8962 -0.0924
   40MOL   H12046998   3.371   5.781   1.437 -0.0944 -0.1662 -2.0169
   40MOL   H12146999   3.461   5.903   1.500 -0.0429 -0.9067  1.2936
   40MOL   O12247000   3.318   6.103   1.475 -0.0005 -0.1756  0.3222
   40MOL   C12347001   3.230   6.216   1.487 -0.1685 -0.3758 -0.0341
   40MOL   C12447002   3.292   6.302   1.596  0.4726 -0.3169  0.6003
   40MOL   C12547003   3.430   6.361   1.561  0.4645 -0.0529 -0.8104
   40MOL   C12647004   3.437   6.442   1.427 -0.3517  0.3776 -0.2381
   40MOL   C12747005   3.581   6.455   1.367 -0.4312  0.0014  0.2471
   40MOL   C12847006   3.596   6.536   1.239  0.0346 -0.4044 -0.9556
   40MOL   C12947007   3.743   6.583   1.202 -0.4925 -0.2739 -0.6156
   40MOL   C13047008   3.743   6.660   1.064  0.8692 -0.0043 -0.6533
   40MOL   C13147009   3.881   6.696   1.003 -0.4948 -0.5219  0.5382
   40MOL   C13247010   3.875   6.807   0.894  0.2781  0.2536 -0.4004
   40MOL   O13347011   3.813   6.750   0.778 -0.5442  0.4163  0.2495
   40MOL   C13447012   3.697   6.799   0.728  1.2429 -0.9320  0.3505
   40MOL   O13547013   3.641   6.903   0.766 -0.1157  0.1010  0.1971
   40MOL   C13647014   3.646   6.705   0.619  0.1540 -0.9310  0.0489
   40MOL   C13747015   3.499   6.720   0.588  0.5964 -0.3054  0.5085
   40MOL   C13847016   3.410   6.645   0.689 -0.2288  0.8263  0.0410
   40MOL   C13947017   3.410   6.492   0.667 -0.2652 -0.4796  0.0076
   40MOL   C14047018   3.340   6.430   0.785  0.3028 -0.6057 -0.5768
   40MOL   C14147019   3.330   6.269   0.778  0.1537 -0.4095 -0.1612
   40MOL   C14247020   3.273   6.205   0.905 -0.1138  0.0182 -0.2321
   40MOL   C14347021   3.225   6.060   0.898 -0.2860 -0.4089 -0.0395
   40MOL   C14447022   3.329   5.960   0.830 -0.1401 -0.0012  0.2068
   40MOL   O14547023   3.411   5.893   0.893  0.0592  0.0626 -0.1325
   40MOL   H14647024   3.221   6.282   1.401 -0.9452  0.9218  1.0270
   40MOL   H14747025   3.125   6.187   1.493 -0.2170 -0.1223  0.3344
   40MOL   H14847026   3.233   6.384   1.637 -1.5451 -0.8629 -1.0981
   40MOL   H14947027   3.301   6.235   1.682 -1.0279  0.0755  1.0816
   40MOL   H15047028   3.478   6.407   1.647  0.3855 -1.5108  0.0265
   40MOL   H15147029   3.499   6.281   1.533  0.2434 -0.0825 -1.2746
   40MOL   H15247030   3.386   6.391   1.346 -1.0995 -1.5363  1.3808
   40MOL   H15347031   3.388   6.538   1.442  1.1682  1.0779  0.3271
   40MOL   H15447032   3.640   6.364   1.354 -0.2562  0.2458 -0.7002
   40MOL   H15547033   3.639   6.510   1.442 -0.9634  1.9548 -0.7523
   40MOL   H15647034   3.546   6.626   1.274  2.6230  0.8665 -0.3839
   40MOL   H15747035   3.543   6.491   1.155 -0.4771 -1.3738 -0.1229
   40MOL   H15847036   3.803   6.494   1.182  0.8349  0.7457 -1.2158
   40MOL   H15947037   3.791   6.647   1.276 -0.0904 -1.6377  0.3353
   40MOL   H16047038   3.676   6.745   1.076  2.0090  0.7916  0.1219
   40MOL   H16147039   3.689   6.597   0.993  2.7515 -2.5958  0.1144
   40MOL   H16247040   3.941   6.715   1.092 -0.1441  1.2077 -0.0514
   40MOL   H16347041   3.913   6.603   0.955  3.0852 -0.5831  2.8246
   40MOL   H16447042   3.812   6.892   0.918 -1.5222 -1.1511 -0.0419
   40MOL   H16547043   3.979   6.831   0.870  0.5063  0.0033  0.3179
   40MOL   H16647044   3.667   6.601   0.642  1.4744 -1.0000 -1.4336
   40MOL   H16747045   3.699   6.736   0.529  0.0428 -0.9487 -0.0230
   40MOL   H16847046   3.480   6.675   0.490  0.8179  1.8755 -0.5659
   40MOL   H16947047   3.468   6.824   0.587  0.1026 -0.4554  0.0652
   40MOL   H17047048   3.306   6.667   0.664 -0.0152  0.0278 -1.6945
   40MOL   H17147049   3.428   6.670   0.793 -1.5820 -0.3597  0.5834
   40MOL   H17247050   3.508   6.452   0.643  0.4429  0.6138  1.0087
   40MOL   H17347051   3.352   6.474   0.576 -0.4171  0.9012 -0.1839
   40MOL   H17447052   3.391   6.449   0.879  1.5060 -0.7430 -1.1991
   40MOL   H17547053   3.239   6.467   0.804  0.6175 -0.6208  1.2409
   40MOL   H17647054   3.254   6.256   0.701 -1.4436  2.8353  0.8135
   40MOL   H17747055   3.426   6.223   0.753  0.3252 -1.8089  2.8528
   40MOL   H17847056   3.201   6.265   0.959 -0.2957  0.4652 -0.9716
   40MOL   H17947057   3.354   6.209   0.979 -1.2392 -1.2327  1.1119
   40MOL   H18047058   3.208   6.029   1.001  1.4725 -2.5063 -0.3425
   40MOL   H18147059   3.131   6.071   0.845 -0.9054  3.3302  1.7087
   40MOL   O18247060   3.312   5.954   0.695  0.0876 -0.0560 -0.1849
   40MOL   C18347061   3.400   5.875   0.621 -0.9395 -0.1534 -0.5125
   40MOL   C18447062   3.416   5.939   0.479  0.3539  0.2221  0.2097
   40MOL   C18547063   3.515   6.058   0.477 -0.1130  0.3783  0.3418
   40MOL   C18647064   3.539   6.122   0.340  0.5540  0.0665 -0.2588
   40MOL   C18747065   3.603   6.264   0.366 -0.5214  0.2706  0.5475
   40MOL   C18847066   3.626   6.339   0.239 -0.4850 -0.0273  1.3808
   40MOL   C18947067   3.494   6.363   0.163 -0.0783  1.2750  0.8392
   40MOL   C19047068   3.385   6.428   0.250  0.3093 -0.8031 -0.2156
   40MOL   C19147069   3.254   6.476   0.176  0.2883 -0.1548 -0.3723
   40MOL   C19247070   3.135   6.535   0.255  0.4065  0.2671 -0.1591
   40MOL   O19347071   3.187   6.657   0.328  0.2611  0.6584  0.1021
   40MOL   C19447072   3.133   6.697   0.436  0.1512  0.2944 -0.6798
   40MOL   O19547073   3.044   6.644   0.505 -0.4897 -0.9247  0.1821
   40MOL   C19647074   3.171   6.846   0.459  0.2031  0.3913  0.6585
   40MOL   C19747075   3.080   6.946   0.377  0.0372  0.0816 -0.3473
   40MOL   C19847076   3.104   7.092   0.408  0.5616 -0.1402  0.6526
   40MOL   C19947077   3.247   7.150   0.368 -0.5400 -0.6356  0.1417
   40MOL   C20047078   3.261   7.307   0.382 -0.5978 -0.7017 -0.1907
   40MOL   C20147079   3.222   7.380   0.511  0.0285 -0.1150 -0.2482
   40MOL   C20247080   3.179   7.524   0.495  0.1000 -0.8179 -0.5396
   40MOL   C20347081   3.142   7.593   0.628 -0.3523  0.6227  0.0203
   40MOL   C20447082   3.253   7.642   0.725  0.3415 -0.2578 -0.1423
   40MOL   O20547083   3.374   7.609   0.714  0.2844  0.6830 -0.3406
   40MOL   H20647084   3.499   5.876   0.668 -1.5458  1.5945  0.7783
   40MOL   H20747085   3.353   5.778   0.618 -0.9003 -0.1303 -2.2803
   40MOL   H20847086   3.474   5.872   0.415  0.6603 -0.3278  1.0457
   40MOL   H20947087   3.329   5.981   0.429 -1.0529 -0.9852  1.5739
   40MOL   H21047088   3.474   6.129   0.548  1.3308  0.5389  1.0370
   40MOL   H21147089   3.611   6.033   0.522  0.0054 -2.5040 -1.3890
   40MOL   H21247090   3.592   6.066   0.264  1.0498 -0.6878  0.6231
   40MOL   H21347091   3.438   6.134   0.301 -0.0876 -1.4535  0.8679
   40MOL   H21447092   3.693   6.250   0.426 -0.1990  2.4808  0.5895
   40MOL   H21547093   3.538   6.314   0.437 -1.2721  0.9484 -0.6074
   40MOL   H21647094   3.689   6.275   0.178 -0.9101  1.5400 -0.7309
   40MOL   H21747095   3.672   6.435   0.261 -0.1482  0.1396 -0.0282
   40MOL   H21847096   3.449   6.276   0.117 -0.8203  1.0450  1.9997
   40MOL   H21947097   3.522   6.433   0.084 -1.4307  0.2324 -0.5969
   40MOL   H22047098   3.426   6.518   0.296 -1.8693  0.4409 -0.6390
   40MOL   H22147099   3.363   6.364   0.335 -0.2086 -1.5529 -0.8992
   40MOL   H22247100   3.293   6.561   0.119 -0.5419  1.1822  1.0355
   40MOL   H22347101   3.223   6.391   0.115 -0.6751 -0.1179  0.0681
   40MOL   H22447102   3.047   6.549   0.192  1.3108 -0.4564 -1.6016
   40MOL   H22547103   3.122   6.457   0.330  1.8819 -0.2187 -0.3853
   40MOL   H22647104   3.277   6.857   0.440  0.8842 -3.3958  1.7709
   40MOL   H22747105   3.150   6.873   0.563 -2.3570  1.0694 -0.0001
   40MOL   H22847106   2.976   6.924   0.401  0.2946 -0.3090  0.4130
   40MOL   H22947107   3.093   6.923   0.271 -0.6798  0.3702 -0.4964
   40MOL   H23047108   3.085   7.112   0.513  2.1550  1.3669  0.6952
   40MOL   H23147109   3.028   7.148   0.354  3.3100  2.5643 -0.5994
   40MOL   H23247110   3.262   7.121   0.264 -2.2877  2.3142 -0.9884
   40MOL   H23347111   3.327   7.100   0.424 -0.6761  0.0607  0.9698
   40MOL   H23447112   3.357   7.340   0.344  0.9489 -2.5972  1.9689
   40MOL   H23547113   3.189   7.341   0.307 -1.2430 -1.5695  0.0263
   40MOL   H23647114   3.130   7.331   0.546 -0.6365  0.5977 -0.9791
   40MOL   H23747115   3.303   7.363   0.582 -1.5482 -0.8518  1.4224
   40MOL   H23847116   3.083   7.524   0.444  0.6398 -3.3920 -1.6586
   40MOL   H23947117   3.250   7.591   0.448  0.4104  0.1546  1.2628
   40MOL   H24047118   3.092   7.688   0.607 -2.0688 -0.2233  0.2025
   40MOL   H24147119   3.075   7.536   0.692  2.6244 -1.4950  1.3453
   40MOL   O24247120   3.214   7.739   0.797 -0.6272  0.3993 -0.2306
   40MOL   C24347121   3.304   0.048   0.885  0.3666  1.0210  0.4512
   40MOL   C24447122   3.215   0.133   0.972 -0.3674  0.6991 -0.2120
   40MOL   C24547123   3.117   0.059   1.068 -0.0225 -0.0883 -0.4270
   40MOL   C24647124   3.182   7.706   1.158  0.0545  0.3405  0.4565
   40MOL   C24747125   3.072   7.622   1.234 -0.4790  0.3588 -0.2541
   40MOL   C24847126   3.117   7.512   1.330  0.2221 -0.4563  0.7266
   40MOL   C24947127   3.013   7.408   1.368 -0.6689  0.2258 -0.3761
   40MOL   C25047128   2.921   7.452   1.479 -0.4597 -0.4786  0.4063
   40MOL   C25147129   2.969   7.435   1.620  0.0812  0.0480  0.5629
   40MOL   C25247130   2.860   7.471   1.723  0.4416  0.3709  0.6076
   40MOL   O25347131   2.914   7.473   1.848  0.1867  0.3617  0.2425
   40MOL   C25447132   2.983   7.584   1.892  1.2509  0.9800 -0.3580
   40MOL   O25547133   3.006   7.688   1.829  0.3423 -0.4149  0.0856
   40MOL   C25647134   3.032   7.567   2.038 -0.0603 -0.6653  0.0413
   40MOL   C25747135   2.920   7.559   2.143 -0.3762 -0.2097 -0.0822
   40MOL   C25847136   2.853   7.420   2.155  0.0578 -0.0881  0.0973
   40MOL   C25947137   2.768   7.401   2.282 -0.4082 -0.6975  0.6235
   40MOL   C26047138   2.650   7.496   2.290  0.2016  0.1687 -0.3706
   40MOL   C26147139   2.575   7.466   2.423  0.7682  0.3953  0.2808
   40MOL   C26247140   2.477   7.577   2.467  0.0755  0.4444  0.5111
   40MOL   C26347141   2.441   7.551   2.620 -0.6956  0.2587 -0.2427
   40MOL   C26447142   2.372   7.663   2.682 -0.1580 -0.3388 -0.0644
   40MOL   O26547143   2.256   7.649   2.711  0.5401  0.5687 -1.2242
   40MOL   H26647144   3.363   7.733   0.942  0.5807  0.0963 -0.8879
   40MOL   H26747145   3.369   0.117   0.832 -1.5125  3.4550  1.2437
   40MOL   H26847146   3.283   0.184   1.041 -1.0814 -0.1956  1.1606
   40MOL   H26947147   3.156   0.195   0.905 -1.1821  1.1615  0.9320
   40MOL   H27047148   3.075   0.130   1.140 -0.9567 -4.1902  3.3249
   40MOL   H27147149   3.040   0.006   1.013 -0.1698 -0.3512  0.0241
   40MOL   H27247150   3.237   7.637   1.094 -0.4866 -0.4286  0.8121
   40MOL   H27347151   3.238   0.003   1.235  0.9241  0.5037 -0.2882
   40MOL   H27447152   3.010   7.568   1.161 -0.5601 -0.4755  0.4251
   40MOL   H27547153   3.000   7.685   1.287 -0.3852  1.5589 -1.5230
   40MOL   H27647154   3.139   7.562   1.424  0.9303  0.9099 -0.1517
   40MOL   H27747155   3.207   7.469   1.287 -0.1642 -1.8835  1.3043
   40MOL   H27847156   3.071   7.322   1.401 -1.8513 -0.4079  0.0894
   40MOL   H27947157   2.959   7.387   1.276  0.4922  1.6130 -1.3803
   40MOL   H28047158   2.816   7.425   1.468 -1.0890  1.1405  2.1288
   40MOL   H28147159   2.900   7.557   1.454 -0.5333 -0.2790  1.3181
   40MOL   H28247160   2.983   7.327   1.628 -2.0877 -0.2265  0.8738
   40MOL   H28347161   3.060   7.491   1.643  0.3412  0.3520 -1.1284
   40MOL   H28447162   2.827   7.572   1.697  2.6782  1.2657  1.0928
   40MOL   H28547163   2.769   7.412   1.719  1.0872 -0.5609 -0.4403
   40MOL   H28647164   3.085   7.661   2.055 -1.3450 -0.1418  1.3008
   40MOL   H28747165   3.100   7.483   2.047 -1.1494 -1.4818  0.7597
   40MOL   H28847166   2.850   7.638   2.118 -0.2414  0.8600  2.7662
   40MOL   H28947167   2.957   7.584   2.242 -3.6730  0.3783  1.0503
   40MOL   H29047168   2.926   7.339   2.154  0.8106  0.5498  1.8005
   40MOL   H29147169   2.788   7.393   2.072  1.1363 -2.9141  0.1077
   40MOL   H29247170   2.833   7.405   2.370  0.1331  0.2018  0.1960
   40MOL   H29347171   2.730   7.299   2.290 -0.2634 -0.6880  1.4132
   40MOL   H29447172   2.691   7.596   2.303  0.7673 -0.4528  3.1753
   40MOL   H29547173   2.576   7.486   2.211 -1.8930 -2.7127  1.8068
   40MOL   H29647174   2.512   7.378   2.408 -0.4019  1.2262  0.2679
   40MOL   H29747175   2.649   7.449   2.502  0.7353 -1.1849 -0.0094
   40MOL   H29847176   2.395   7.584   2.395  1.3269  0.5705 -0.9464
   40MOL   H29947177   2.534   7.668   2.455 -1.3049  0.8469 -3.8727
   40MOL   H30047178   2.385   7.459   2.630  2.1236 -1.6937 -1.6666
   40MOL   H30147179   2.532   7.544   2.680 -0.1802  1.2865 -0.8883
   40MOL   O30247180   2.451   0.005   2.720 -0.1146  0.5100 -0.2639
   40MOL   C30347181   2.386   0.122   2.767 -0.3604 -0.4645  0.1994
   40MOL   C30447182   2.475   0.248   2.761 -0.0401  0.7829  0.1823
   40MOL   C30547183   2.594   0.258   2.872  0.0474 -0.4771  0.0361
   40MOL   C30647184   2.545   0.256   3.017  0.5876  0.0655  1.1207
   40MOL   C30747185   2.653   0.277   3.118 -0.8039  0.5788  0.5207
   40MOL   C30847186   2.608   0.271   3.264  0.5002 -0.4967  0.3795
   40MOL   C30947187   2.725   0.261   3.365 -0.5439  0.2660 -0.4398
   40MOL   C31047188   2.684   0.286   3.511  0.4103 -0.4156 -0.7898
   40MOL   C31147189   2.673   0.431   3.551  0.6705 -0.0615  0.5976
   40MOL   C31247190   2.681   0.461   3.696 -0.7893  0.4521 -0.1575
   40MOL   O31347191   2.592   0.394   3.785 -0.3785 -0.0025  0.2817
   40MOL   C31447192   2.469   0.444   3.798 -0.0793 -0.0432 -0.2671
   40MOL   O31547193   2.423   0.540   3.736 -0.5296  1.0096  0.0364
   40MOL   C31647194   2.391   0.376   3.910 -0.1330 -0.1361 -0.4889
   40MOL   C31747195   2.347   0.238   3.852  0.3038 -0.2864 -0.3376
   40MOL   C31847196   2.264   0.153   3.945 -0.1777  0.0063 -1.0127
   40MOL   C31947197   2.216   0.019   3.885 -0.2702  0.6266 -0.3992
   40MOL   C32047198   2.141   7.680   3.985 -0.5913 -0.0837  0.0750
   40MOL   C32147199   2.134   7.536   3.921 -0.6948  0.2811 -0.9154
   40MOL   C32247200   2.033   7.435   3.986  0.1211  0.2609 -0.2437
   40MOL   C32347201   2.020   7.306   3.900 -0.3057  0.5979 -0.2840
   40MOL   C32447202   2.143   7.214   3.912 -0.2864 -0.8723 -0.4064
   40MOL   O32547203   2.142   7.118   3.989  0.3672 -0.3783 -0.1003
   40MOL   H32647204   2.307   0.139   2.694 -1.1825 -2.8466  0.5148
   40MOL   H32747205   2.330   0.108   2.859 -2.3680  0.4777 -0.8354
   40MOL   H32847206   2.518   0.259   2.661  1.1645  0.4000  0.6404
   40MOL   H32947207   2.405   0.331   2.772 -0.1389  0.9619 -1.6592
   40MOL   H33047208   2.656   0.168   2.858 -2.2120 -1.9591 -0.6661
   40MOL   H33147209   2.666   0.339   2.858 -0.5170 -0.1919 -1.2617
   40MOL   H33247210   2.483   0.345   3.024  0.0647 -0.0352 -1.6288
   40MOL   H33347211   2.492   0.163   3.035 -0.8679  1.2811  3.2738
   40MOL   H33447212   2.706   0.372   3.110 -0.8651  0.4390 -1.9439
   40MOL   H33547213   2.722   0.201   3.081 -2.3434 -0.5079 -0.1923
   40MOL   H33647214   2.527   0.200   3.277  0.1352 -0.3018 -0.7498
   40MOL   H33747215   2.551   0.363   3.277 -0.0036 -0.5609 -1.2864
   40MOL   H33847216   2.803   0.333   3.341 -0.7675  0.4472 -0.6236
   40MOL   H33947217   2.764   0.160   3.353  1.6748  0.6720  2.5965
   40MOL   H34047218   2.758   0.236   3.575 -1.2950  2.5144  3.7210
   40MOL   H34147219   2.596   0.227   3.538  0.2504  0.1733 -0.0047
   40MOL   H34247220   2.744   0.497   3.502 -0.5609 -0.7094 -2.1488
   40MOL   H34347221   2.580   0.463   3.504  0.6097 -0.7025  0.2684
   40MOL   H34447222   2.776   0.419   3.729 -0.2558  1.1445 -0.8240
   40MOL   H34547223   2.686   0.568   3.716  0.8604  0.5922 -1.2930
   40MOL   H34647224   2.295   0.424   3.933  0.3968  0.2373  0.9990
   40MOL   H34747225   2.450   0.375   4.002 -1.6931  0.4273  0.5481
   40MOL   H34847226   2.425   0.171   3.815  0.2064 -0.0768 -0.9357
   40MOL   H34947227   2.282   0.268   3.770  0.3969  0.0193 -0.2996
   40MOL   H35047228   2.179   0.212   3.979  0.6028 -0.4196  1.8098
   40MOL   H35147229   2.325   0.137   4.034  1.0459 -0.9355 -1.9995
   40MOL   H35247230   2.314   7.739   3.855 -0.3833  1.2769 -1.6356
   40MOL   H35347231   2.162   0.031   3.791  0.2016  2.4796 -0.4639
   40MOL   H35447232   2.195   7.677   4.079  0.3278 -1.2793 -0.4699
   40MOL   H35547233   2.040   7.707   4.014  0.2246  1.2362  1.7622
   40MOL   H35647234   2.103   7.556   3.819 -0.0212 -0.3033 -1.2454
   40MOL   H35747235   2.232   7.488   3.916 -0.8789  0.0582 -2.9715
   40MOL   H35847236   1.933   7.479   3.991 -0.7691 -1.4695 -2.0865
   40MOL   H35947237   2.059   7.407   4.088  0.6844  0.3700 -0.3581
   40MOL   H36047238   1.935   7.249   3.938  0.3360  0.0193  0.2757
   40MOL   H36147239   1.996   7.337   3.799 -0.6927  2.3364  0.3213
   40MOL   O36247240   2.249   7.251   3.839 -0.4206 -0.3090 -0.1051
   40MOL   C36347241   2.362   7.173   3.855 -0.1062  0.4424 -0.3765
   40MOL   C36447242   2.480   7.225   3.771  0.4078 -0.4182 -0.2114
   40MOL   C36547243   2.600   7.136   3.778 -0.4691  0.2762  0.2687
   40MOL   C36647244   2.720   7.195   3.703  0.2183  0.4920  0.4320
   40MOL   C36747245   2.818   7.087   3.663 -0.2731  0.7126 -0.0196
   40MOL   C36847246   2.949   7.144   3.627  0.0467  0.1499 -0.3552
   40MOL   C36947247   2.941   7.234   3.494  0.3331 -0.6915 -0.4484
   40MOL   C37047248   3.080   7.269   3.446 -0.0793  0.2378  0.5577
   40MOL   C37147249   3.096   7.331   3.306  0.4220 -0.6639  0.8714
   40MOL   C37247250   3.099   7.484   3.304 -0.0763 -0.1352 -0.4210
   40MOL   O37347251   2.961   7.522   3.317  0.5459  0.7362 -0.4927
   40MOL   C37447252   2.907   7.620   3.234  0.7069  0.1190 -0.1803
   40MOL   O37547253   2.971   7.676   3.141 -0.1565  0.2042 -0.1677
   40MOL   C37647254   2.753   7.622   3.241 -0.1371 -0.3467  0.0783
   40MOL   C37747255   2.681   7.565   3.119  0.1259  0.5698 -0.1311
   40MOL   C37847256   2.533   7.552   3.151  0.3296  0.1385  0.3360
   40MOL   C37947257   2.448   7.476   3.047 -0.0652  0.4166 -0.3526
   40MOL   C38047258   2.309   7.453   3.100  0.2730  0.0594  0.2273
   40MOL   C38147259   2.210   7.422   2.988  0.0735  0.1262  0.5151
   40MOL   C38247260   2.075   7.365   3.035  0.1559 -0.1049  0.3120
   40MOL   C38347261   1.983   7.311   2.918  0.5370  0.2180  0.0212
   40MOL   C38447262   1.919   7.418   2.830  0.8011  0.1941 -0.3212
   40MOL   O38547263   1.987   7.474   2.747  0.0875  0.4947 -1.0063
   40MOL   H38647264   2.393   7.168   3.959  2.7533  0.8207 -1.1460
   40MOL   H38747265   2.350   7.070   3.823  1.9323  0.4788 -1.3559
   40MOL   H38847266   2.458   7.241   3.665 -2.9355 -1.3136  0.2788
   40MOL   H38947267   2.493   7.331   3.793  0.4819 -0.1256 -1.5701
   40MOL   H39047268   2.612   7.095   3.878 -0.7991 -1.1136 -0.2484
   40MOL   H39147269   2.583   7.045   3.720 -2.3589  0.8773 -0.1418
   40MOL   H39247270   2.682   7.242   3.613  1.4051 -1.0233 -0.9125
   40MOL   H39347271   2.764   7.268   3.770 -0.4669  0.6962  0.6572
   40MOL   H39447272   2.773   7.040   3.577  1.0857  1.0871 -0.9628
   40MOL   H39547273   2.835   7.007   3.735 -1.0805  0.2676 -0.3308
   40MOL   H39647274   3.020   7.062   3.618 -0.1012 -0.1966  1.4469
   40MOL   H39747275   2.993   7.192   3.714 -0.1035 -0.6455  0.1668
   40MOL   H39847276   2.893   7.331   3.507  0.6063 -0.5447 -0.5450
   40MOL   H39947277   2.883   7.190   3.413  2.7481 -0.2359 -2.5003
   40MOL   H40047278   3.139   7.177   3.443 -1.0365 -0.4904  2.5484
   40MOL   H40147279   3.133   7.334   3.515  1.0995  0.3972 -0.4892
   40MOL   H40247280   3.187   7.290   3.262  0.3904 -1.1715  1.2688
   40MOL   H40347281   3.021   7.305   3.231  1.3186 -1.0324  0.0810
   40MOL   H40447282   3.159   7.510   3.392 -3.7831 -1.1157  2.5507
   40MOL   H40547283   3.141   7.522   3.211 -0.8381  0.6696 -0.4373
   40MOL   H40647284   2.719   7.722   3.267  0.6587 -0.6252  2.3218
   40MOL   H40747285   2.723   7.556   3.322  0.5394 -2.2599 -1.1725
   40MOL   H40847286   2.719   7.465   3.102 -0.8255  0.3321 -0.9106
   40MOL   H40947287   2.699   7.625   3.030 -0.9535  1.9896  0.5735
   40MOL   H41047288   2.485   7.649   3.167 -0.6192 -0.0506 -1.2351
   40MOL   H41147289   2.524   7.498   3.245 -0.9229 -2.0526 -0.9768
   40MOL   H41247290   2.498   7.381   3.026 -0.1319 -0.2398  2.2476
   40MOL   H41347291   2.456   7.528   2.951 -0.3449 -0.2527 -0.7461
   40MOL   H41447292   2.306   7.374   3.175 -0.1485 -0.3675 -0.2394
   40MOL   H41547293   2.281   7.546   3.151  1.4345 -0.6495  2.2127
   40MOL   H41647294   2.201   7.501   2.912  3.3190 -1.2513 -1.4072
   40MOL   H41747295   2.255   7.344   2.926 -0.7708 -1.1144  1.4595
   40MOL   H41847296   2.017   7.441   3.087  0.3567 -0.6875  1.4165
   40MOL   H41947297   2.088   7.281   3.104  0.5475 -1.6811 -1.6226
   40MOL   H42047298   2.057   7.269   2.850 -0.1438  0.3299 -0.7976
   40MOL   H42147299   1.907   7.245   2.960  1.0499  0.1218  0.8113
   40MOL   O42247300   1.791   7.440   2.860  0.8756  0.1062 -0.5484
   40MOL   C42347301   1.710   7.542   2.804 -1.2668 -1.3518  0.1980
   40MOL   C42447302   1.656   7.498   2.668  0.6952 -0.0426 -0.2984
   40MOL   C42547303   1.584   7.357   2.673  0.3414  0.0211  0.5945
   40MOL   C42647304   1.504   7.335   2.542 -0.0272 -0.4651  0.4047
   40MOL   C42747305   1.434   7.192   2.523  0.1038  0.4518 -0.1792
   40MOL   C42847306   1.372   7.168   2.383 -0.3731  0.5962  0.0541
   40MOL   C42947307   1.231   7.228   2.359 -0.1557  0.3885  0.9513
   40MOL   C43047308   1.159   7.169   2.242  0.5973 -0.2572  0.2822
   40MOL   C43147309   1.088   7.031   2.261 -0.6377  0.5710  0.0747
   40MOL   C43247310   0.969   7.003   2.171  0.4061  1.0352 -0.3020
   40MOL   O43347311   0.901   6.898   2.240  0.3250 -0.8652 -0.2779
   40MOL   C43447312   0.817   6.808   2.178 -0.0626  0.8871  0.0132
   40MOL   O43547313   0.771   6.809   2.064 -0.4575  0.3628 -0.0338
   40MOL   C43647314   0.774   6.694   2.282 -0.4113  0.6074  0.7776
   40MOL   C43747315   0.669   6.734   2.386 -0.3936 -0.3068  0.9183
   40MOL   C43847316   0.682   6.651   2.518  0.4135  0.8979  0.1264
   40MOL   C43947317   0.645   6.500   2.497 -0.3179 -0.4455 -0.1672
   40MOL   C44047318   0.649   6.420   2.625 -0.4823 -0.2431 -0.1826
   40MOL   C44147319   0.777   6.370   2.674 -0.1878 -0.1520  0.2689
   40MOL   C44247320   0.769   6.270   2.793 -0.7616  0.1325  1.1478
   40MOL   C44347321   0.911   6.228   2.843  0.0220  0.0629  0.2812
   40MOL   C44447322   0.902   6.148   2.972 -0.7541 -0.6617  0.5421
   40MOL   O44547323   0.813   6.061   2.984  0.1262 -0.6789 -0.5467
   40MOL   H44647324   1.637   7.579   2.876  0.2174  2.1252  0.0345
   40MOL   H44747325   1.775   7.627   2.782 -1.6249 -1.1877 -0.2456
   40MOL   H44847326   1.590   7.574   2.624 -0.3508 -0.4676  0.5044
   40MOL   H44947327   1.744   7.485   2.605  2.2692  1.3741  1.5418
   40MOL   H45047328   1.667   7.287   2.668  1.8593  1.7998  0.1689
   40MOL   H45147329   1.520   7.344   2.760 -0.5365  1.6547  0.2039
   40MOL   H45247330   1.429   7.411   2.523 -1.2307 -1.7959 -0.2802
   40MOL   H45347331   1.580   7.355   2.467 -0.8217  1.3657  0.0743
   40MOL   H45447332   1.359   7.185   2.601 -0.5512  0.1238 -0.8395
   40MOL   H45547333   1.511   7.115   2.531  0.2543  0.5052 -1.0482
   40MOL   H45647334   1.354   7.061   2.372 -0.5597  0.8070 -1.6918
   40MOL   H45747335   1.446   7.193   2.307 -2.4728  0.8331 -1.9464
   40MOL   H45847336   1.249   7.334   2.340  0.5058  0.3827  1.5376
   40MOL   H45947337   1.173   7.233   2.451  0.4903 -0.3791  1.4081
   40MOL   H46047338   1.229   7.167   2.158  0.6716 -1.1218  0.3560
   40MOL   H46147339   1.088   7.247   2.216  1.2483  1.2348  2.8696
   40MOL   H46247340   1.163   6.955   2.239  1.2937  2.0782  1.2185
   40MOL   H46347341   1.052   7.020   2.363 -2.3444  1.6464 -0.3920
   40MOL   H46447342   0.920   7.100   2.160 -1.3121  0.1317 -0.7967
   40MOL   H46547343   1.000   6.964   2.074  1.3162  0.7222  0.1111
   40MOL   H46647344   0.859   6.668   2.345 -2.0514  0.1849  2.8517
   40MOL   H46747345   0.754   6.601   2.230 -0.8099 -0.2353  2.4036
   40MOL   H46847346   0.569   6.717   2.346 -0.0387 -0.0976 -0.0890
   40MOL   H46947347   0.666   6.842   2.402 -2.4785 -0.1581 -0.3279
   40MOL   H47047348   0.618   6.688   2.599 -0.0156  0.3136  0.0509
   40MOL   H47147349   0.783   6.662   2.558  0.5252 -1.3247  0.4841
   40MOL   H47247350   0.721   6.463   2.428 -0.9732 -0.5877 -0.8223
   40MOL   H47347351   0.545   6.492   2.453 -1.8101  2.4156  2.4691
   40MOL   H47447352   0.596   6.480   2.700  0.6216  0.7305 -0.1663
   40MOL   H47547353   0.581   6.338   2.604  0.4722 -0.5680 -2.0477
   40MOL   H47647354   0.817   6.313   2.591 -0.3737  0.8706 -0.5299
   40MOL   H47747355   0.846   6.451   2.697 -0.1860 -0.4128  1.2302
   40MOL   H47847356   0.684   6.203   2.783  0.0540 -0.6986 -0.4343
   40MOL   H47947357   0.740   6.330   2.879 -2.6759 -0.6787  1.0855
   40MOL   H48047358   0.969   6.168   2.772  0.9985  0.8806  0.3857
   40MOL   H48147359   0.969   6.317   2.868  0.6209  0.0723 -1.0480
   40MOL   O48247360   1.001   6.175   3.057  0.1578 -0.2908 -0.5991
   40MOL   C48347361   1.004   6.107   3.183  0.5271 -0.7641  0.1345
   40MOL   C48447362   1.135   6.132   3.251 -0.4490 -0.4344 -0.3829
   40MOL   C48547363   1.261   6.075   3.192 -0.0932  0.4765 -0.2924
   40MOL   C48647364   1.387   6.117   3.268 -0.4290  0.7125 -0.5431
   40MOL   C48747365   1.514   6.031   3.252 -0.1839 -0.2111  0.2306
   40MOL   C48847366   1.648   6.102   3.294  0.6019  0.2273 -0.1171
   40MOL   C48947367   1.779   6.039   3.244 -0.9021  0.2925 -0.0435
   40MOL   C49047368   1.817   6.067   3.099  0.0132 -0.3272  0.0225
   40MOL   C49147369   1.943   5.982   3.059 -0.9681 -0.0020  0.4488
   40MOL   C49247370   2.063   5.994   3.156 -0.0978 -0.3989  0.1831
   40MOL   O49347371   2.056   5.895   3.271 -0.2151  0.2534 -0.2820
   40MOL   C49447372   2.174   5.856   3.318 -0.2753 -0.4666  0.2351
   40MOL   O49547373   2.285   5.894   3.290 -0.2956  0.4871 -0.0569
   40MOL   C49647374   2.154   5.732   3.414 -0.3950  0.4502 -0.1634
   40MOL   C49747375   2.250   5.729   3.532 -0.0074 -0.3516  0.1381
   40MOL   C49847376   2.402   5.710   3.504 -0.2954  0.4645  0.5011
   40MOL   C49947377   2.478   5.684   3.639  0.4996 -0.1483  0.2287
   40MOL   C50047378   2.510   5.806   3.732 -0.0659 -0.2691 -0.3424
   40MOL   C50147379   2.610   5.768   3.843  0.5700 -0.0589  0.0953
   40MOL   C50247380   2.634   5.886   3.942  0.2416 -0.1414  0.1960
   40MOL   C50347381   2.729   5.855   4.058 -0.5084  0.2103 -0.0583
   40MOL   C50447382   2.754   5.973   4.156 -0.0519  0.7304  0.3742
   40MOL   O50547383   2.835   5.966   4.247 -0.5751  0.1700 -0.0879
   40MOL   H50647384   0.931   6.166   3.238 -0.3760 -1.7550 -0.0038
   40MOL   H50747385   0.977   6.002   3.178 -0.7132 -0.3895 -1.3153
   40MOL   H50847386   1.141   6.240   3.256 -0.7807 -0.3767 -1.1442
   40MOL   H50947387   1.136   6.104   3.357  3.0567  0.2891 -0.1652
   40MOL   H51047388   1.263   5.966   3.192 -1.6983  0.3446  3.9175
   40MOL   H51147389   1.250   6.101   3.087 -0.0933  0.0329 -0.4024
   40MOL   H51247390   1.406   6.221   3.241  0.7419  0.1456 -1.9597
   40MOL   H51347391   1.366   6.119   3.375  3.8774 -0.0700  0.3996
   40MOL   H51447392   1.516   6.002   3.147  1.1156  1.0291 -0.1011
   40MOL   H51547393   1.509   5.941   3.313  1.4117  0.8271  1.9865
   40MOL   H51647394   1.647   6.108   3.403 -2.7526 -0.7093 -0.0492
   40MOL   H51747395   1.640   6.206   3.264  1.1686  0.3738  0.2284
   40MOL   H51847396   1.780   5.931   3.254  0.6377  0.2677 -0.4043
   40MOL   H51947397   1.860   6.069   3.311 -1.2345 -0.6228  0.7771
   40MOL   H52047398   1.837   6.173   3.091 -2.4132  0.1785  0.2658
   40MOL   H52147399   1.737   6.046   3.027  0.0190 -0.4109  0.0408
   40MOL   H52247400   1.917   5.876   3.062 -1.4769  0.1558  2.4262
   40MOL   H52347401   1.957   6.016   2.956 -2.1279  1.0684  0.6359
   40MOL   H52447402   2.159   5.985   3.106  0.0434 -0.5872  0.4838
   40MOL   H52547403   2.066   6.099   3.188 -1.8238 -0.1502 -0.4303
   40MOL   H52647404   2.176   5.643   3.354 -1.3648 -0.2162  0.4446
   40MOL   H52747405   2.048   5.736   3.438 -0.5869 -0.5888 -0.7839
   40MOL   H52847406   2.205   5.654   3.597 -0.3684 -0.2597 -0.0071
   40MOL   H52947407   2.239   5.825   3.582 -0.9985  0.0737 -0.8935
   40MOL   H53047408   2.450   5.788   3.445  1.1377 -0.5811  0.2572
   40MOL   H53147409   2.405   5.620   3.442 -0.4801  0.9671 -0.2490
   40MOL   H53247410   2.574   5.644   3.606 -1.1614 -3.8125 -0.4212
   40MOL   H53347411   2.438   5.597   3.690  2.2823 -1.4621 -0.5853
   40MOL   H53447412   2.549   5.888   3.671 -0.7955  0.2388 -0.1282
   40MOL   H53547413   2.416   5.833   3.779 -0.2886 -0.8013 -0.4866
   40MOL   H53647414   2.565   5.686   3.900 -1.9093 -0.9699 -2.9958
   40MOL   H53747415   2.697   5.720   3.799  0.7358  1.6357 -1.4991
   40MOL   H53847416   2.533   5.898   3.983  1.1304 -2.4355  3.2521
   40MOL   H53947417   2.652   5.977   3.885  1.1497 -1.6033 -1.9280
   40MOL   H54047418   2.705   5.764   4.113 -1.5313  0.9599  0.7683
   40MOL   H54147419   2.828   5.833   4.017 -0.4465  1.0496 -0.3797
   40MOL   O54247420   2.675   6.078   4.129  0.1687 -0.3140 -0.0205
   40MOL   C54347421   2.692   6.195   4.198 -0.0951  0.1304 -0.1961
   40MOL   C54447422   2.556   6.271   4.195 -0.3135 -0.4018 -0.3483
   40MOL   C54547423   2.547   6.402   4.282 -0.1884 -0.3574 -0.2522
   40MOL   C54647424   2.541   6.388   4.430  0.3462 -0.2436  0.4914
   40MOL   C54747425   2.539   6.524   4.504  0.1677  0.2765  0.6145
   40MOL   C54847426   2.471   6.518   4.644 -0.8674  0.3266  0.1264
   40MOL   C54947427   2.318   6.507   4.632  0.3388 -0.2339 -0.0340
   40MOL   C55047428   2.248   6.534   4.763 -0.1764 -0.8055  0.4497
   40MOL   C55147429   2.090   6.539   4.766  0.5447 -0.0288 -0.3631
   40MOL   C55247430   2.033   6.579   4.907 -0.7118  0.5882  0.4292
   40MOL   O55347431   1.890   6.545   4.906  0.5033 -0.4107 -0.6811
   40MOL   C55447432   1.786   6.623   4.961 -0.1832 -0.2859 -0.3411
   40MOL   O55547433   1.813   6.714   5.041  0.0724  0.0942 -0.0659
   40MOL   C55647434   1.643   6.591   4.914 -0.2800  0.1169  0.5841
   40MOL   C55747435   1.606   6.448   4.883  0.0154 -0.0277  0.1961
   40MOL   C55847436   1.620   6.343   5.001  0.8154  0.0204  0.3213
   40MOL   C55947437   1.534   6.223   4.973  0.2291 -0.0644  0.5326
   40MOL   C56047438   1.555   6.121   5.086 -0.2777 -0.0541  0.3441
   40MOL   C56147439   1.469   5.994   5.068  0.0074  0.0627  0.7931
   40MOL   C56247440   1.492   5.914   4.932 -0.6630 -0.8356  0.4403
   40MOL   C56347441   1.416   5.780   4.915 -0.4559  0.4928 -0.7448
   40MOL   C56447442   1.279   5.782   4.852 -0.2619  0.7151 -0.3253
   40MOL   O56547443   1.265   5.731   4.746  1.0239 -0.0364  0.0123
   40MOL   H56647444   2.715   6.181   4.304  0.9843 -0.8726 -0.5482
   40MOL   H56747445   2.781   6.247   4.165  1.8876 -1.5390  2.3036
   40MOL   H56847446   2.529   6.305   4.095  0.2068 -0.3126 -0.4554
   40MOL   H56947447   2.471   6.210   4.226 -0.5761 -0.2457 -0.7611
   40MOL   H57047448   2.628   6.468   4.250  1.8314 -2.7925 -0.3342
   40MOL   H57147449   2.454   6.451   4.254  0.6751  0.3513 -1.9896
   40MOL   H57247450   2.446   6.337   4.449 -0.3424  0.0189 -2.0977
   40MOL   H57347451   2.613   6.315   4.467 -1.2848 -1.3537  1.5475
   40MOL   H57447452   2.500   6.611   4.451  0.8429  0.1526 -0.0903
   40MOL   H57547453   2.644   6.551   4.509  0.0996  1.0243 -1.4708
   40MOL   H57647454   2.484   6.613   4.695 -0.0538  0.2772  0.0064
   40MOL   H57747455   2.509   6.436   4.705  2.6662  1.8392  0.0232
   40MOL   H57847456   2.301   6.404   4.600 -0.5259  0.0854 -0.6385
   40MOL   H57947457   2.296   6.569   4.545  1.4078 -0.0244 -0.1615
   40MOL   H58047458   2.271   6.636   4.795 -0.2348 -0.5951 -0.1799
   40MOL   H58147459   2.289   6.465   4.837 -0.6953  0.5117  1.9990
   40MOL   H58247460   2.044   6.608   4.694  0.0753  1.6700  1.5369
   40MOL   H58347461   2.054   6.439   4.742 -0.8400  0.7046 -1.4034
   40MOL   H58447462   2.092   6.529   4.984  0.1519  0.3029 -0.3918
   40MOL   H58547463   2.058   6.684   4.922  0.1905  0.4918 -0.3191
   40MOL   H58647464   1.624   6.659   4.831  1.1075  0.5507  0.5926
   40MOL   H58747465   1.582   6.625   4.998  0.7810  0.1330  1.3622
   40MOL   H58847466   1.658   6.425   4.790  1.1437 -3.9486  1.7086
   40MOL   H58947467   1.500   6.454   4.858  0.5656 -1.3166 -2.6319
   40MOL   H59047468   1.584   6.383   5.095 -1.2101 -1.2409  0.1119
   40MOL   H59147469   1.725   6.314   4.998  0.5673 -0.8194 -0.4641
   40MOL   H59247470   1.568   6.179   4.879  2.6097  1.5494  0.5897
   40MOL   H59347471   1.428   6.248   4.979  0.7212  2.1998  0.3282
   40MOL   H59447472   1.659   6.088   5.094  0.7760  2.5075 -1.8160
   40MOL   H59547473   1.529   6.169   5.180 -0.2870  1.3731 -0.3800
   40MOL   H59647474   1.500   5.929   5.150 -0.2431 -0.3944  0.5332
   40MOL   H59747475   1.361   6.009   5.077 -0.3746 -2.5217  1.1129
   40MOL   H59847476   1.600   5.903   4.927 -0.4114  1.0420  1.1775
   40MOL   H59947477   1.481   5.980   4.847 -0.6455  1.1210  1.9171
   40MOL   H60047478   1.474   5.735   4.834 -0.0991  1.4767 -1.0520
   40MOL   H60147479   1.423   5.725   5.008 -0.7573 -1.0179 -1.5939
   40MOL   O60247480   1.181   5.828   4.930  0.1896 -0.0022 -0.0126
   40MOL   C60347481   1.068   5.887   4.859  0.0396  0.8954  0.2255
   40MOL   C60447482   1.072   6.041   4.854  0.1876 -0.0180 -0.0380
   40MOL   C60547483   1.167   6.094   4.748  0.2662 -0.0581 -0.0647
   40MOL   C60647484   1.161   6.244   4.728 -0.2856  0.1985  0.3300
   40MOL   C60747485   1.271   6.314   4.640  0.1743  0.1096 -0.0395
   40MOL   C60847486   1.256   6.464   4.636  0.8889 -0.4288 -0.4948
   40MOL   C60947487   1.344   6.529   4.530  0.3754  0.2275 -0.0142
   40MOL   C61047488   1.335   6.685   4.514  0.0399 -0.0710  0.3689
   40MOL   C61147489   1.401   6.736   4.385 -0.5748  0.1729 -0.7927
   40MOL   C61247490   1.560   6.762   4.387  0.1926 -0.3649 -0.0105
   40MOL   O61347491   1.631   6.643   4.412  0.0485 -0.9511  0.5172
   40MOL   C61447492   1.732   6.640   4.508  0.0762  0.8132  0.0005
   40MOL   O61547493   1.780   6.737   4.566 -0.4994  0.5332 -0.2845
   40MOL   C61647494   1.797   6.503   4.529  0.1036  0.6158  0.5723
   40MOL   C61747495   1.913   6.484   4.431 -0.0305  0.3215  0.0799
   40MOL   C61847496   1.975   6.340   4.448 -0.5084 -0.6785 -0.3558
   40MOL   C61947497   2.099   6.316   4.354  0.5403  0.5001  0.0047
   40MOL   C62047498   2.073   6.295   4.201  0.3624  0.3566 -0.6686
   40MOL   C62147499   2.191   6.305   4.106  0.0278 -0.5565 -0.5403
   40MOL   C62247500   2.161   6.295   3.954 -0.1787  0.0400 -0.3249
   40MOL   C62347501   2.160   6.423   3.873  0.3820 -0.6969 -0.1668
   40MOL   C62447502   2.053   6.525   3.917  0.1492  0.4715  0.2179
   40MOL   O62547503   1.934   6.492   3.945  0.2677  0.3488  0.0636
   40MOL   H62647504   1.057   5.855   4.755 -1.7193  3.0816 -0.2810
   40MOL   H62747505   0.973   5.859   4.903 -0.4639  2.3537  0.0868
   40MOL   H62847506   0.977   6.091   4.836  1.0905  1.0146 -2.1107
   40MOL   H62947507   1.113   6.068   4.952  0.2972 -2.5872  0.6459
   40MOL   H63047508   1.269   6.078   4.784 -0.1358 -0.1716  1.0595
   40MOL   H63147509   1.164   6.044   4.652 -0.0433  0.5387 -0.3637
   40MOL   H63247510   1.062   6.280   4.700 -0.4646 -1.9106 -1.9155
   40MOL   H63347511   1.170   6.280   4.830  0.4071 -0.4853  0.5082
   40MOL   H63447512   1.249   6.270   4.543  0.7421 -0.0257 -0.1075
   40MOL   H63547513   1.371   6.285   4.671  0.2528  0.7142  0.2750
   40MOL   H63647514   1.274   6.499   4.738  1.5158 -2.2548  0.0470
   40MOL   H63747515   1.153   6.483   4.607  1.2246  0.5291 -1.0673
   40MOL   H63847516   1.327   6.475   4.437 -0.7047  0.3668  0.0965
   40MOL   H63947517   1.450   6.510   4.546  0.1934 -0.1247  0.7517
   40MOL   H64047518   1.374   6.741   4.598 -0.5892 -0.6271  1.0358
   40MOL   H64147519   1.228   6.705   4.508  0.1559  0.8858  1.4289
   40MOL   H64247520   1.379   6.661   4.310  1.1193 -0.7185 -0.4431
   40MOL   H64347521   1.359   6.831   4.355 -1.0948  1.4474  3.5841
   40MOL   H64447522   1.584   6.780   4.282 -1.8231 -0.0166 -0.4340
   40MOL   H64547523   1.607   6.842   4.444 -0.9216 -0.1454  0.6199
   40MOL   H64647524   1.726   6.421   4.519  0.6944  0.3932 -2.1454
   40MOL   H64747525   1.843   6.496   4.627 -0.4534 -2.7365  0.6467
   40MOL   H64847526   1.994   6.549   4.466 -0.2640 -1.0209  3.2594
   40MOL   H64947527   1.875   6.504   4.331 -2.0407 -1.3031  0.4902
   40MOL   H65047528   1.908   6.258   4.419 -0.0603 -1.3128  0.3668
   40MOL   H65147529   2.015   6.334   4.549  0.7150  2.5417 -0.6094
   40MOL   H65247530   2.140   6.226   4.401  0.2224 -0.1967 -1.0371
   40MOL   H65347531   2.172   6.395   4.372  0.4010  0.7695 -0.5997
   40MOL   H65447532   2.021   6.204   4.171  3.3527 -1.6892  0.2133
   40MOL   H65547533   1.994   6.361   4.164 -0.2501 -0.4421 -0.7878
   40MOL   H65647534   2.243   6.400   4.116 -1.7548  0.4616 -0.7812
   40MOL   H65747535   2.259   6.227   4.140 -1.7697 -3.4900 -3.4027
   40MOL   H65847536   2.066   6.242   3.959  0.7854 -1.4444  4.1910
   40MOL   H65947537   2.242   6.236   3.911 -0.5959 -1.1134  0.4510
   40MOL   H66047538   2.253   6.480   3.874  0.2217 -0.3805 -2.2716
   40MOL   H66147539   2.142   6.394   3.770  0.4294 -3.1028  0.4893
   40MOL   O66247540   2.106   6.646   3.918  0.0018 -0.6752  0.2943
   40MOL   C66347541   2.035   6.745   3.992 -0.4135 -0.3940  0.0639
   40MOL   C66447542   2.044   6.718   4.143 -0.8338 -0.1231 -0.2378
   40MOL   C66547543   1.939   6.800   4.222 -0.2994  0.7902  0.3350
   40MOL   C66647544   1.959   6.952   4.208 -0.2055 -0.8779  0.1650
   40MOL   C66747545   1.845   7.032   4.267  0.2048 -0.1840  0.6344
   40MOL   C66847546   1.829   7.184   4.225 -0.2386 -0.3367  0.0718
   40MOL   C66947547   1.697   7.237   4.289 -0.4786 -0.2603  0.0064
   40MOL   C67047548   1.688   7.388   4.256  0.5373  0.0706  0.0707
   40MOL   C67147549   1.657   7.435   4.121  0.2470 -0.1402  0.0059
   40MOL   C67247550   1.506   7.452   4.103  0.1477 -0.0386 -0.0560
   40MOL   O67347551   1.454   7.571   4.164 -0.3542  0.0239 -0.8818
   40MOL   C67447552   1.329   7.610   4.138  0.2321  0.4752  0.1176
   40MOL   O67547553   1.247   7.551   4.061 -0.4434 -0.0833 -0.3323
   40MOL   C67647554   1.281   7.728   4.212 -0.6061  0.1467  0.0230
   40MOL   C67747555   1.139   0.027   4.175  0.7811 -0.2612 -0.4254
   40MOL   C67847556   1.096   0.149   4.259 -0.5615 -0.1228 -0.1918
   40MOL   C67947557   0.958   0.203   4.233  0.3633  0.2553  0.0009
   40MOL   C68047558   0.908   0.310   4.341 -0.3879 -0.4754 -0.0099
   40MOL   C68147559   0.776   0.372   4.306  0.0435 -0.6927 -0.2403
   40MOL   C68247560   0.654   0.284   4.331 -0.5120  0.4731  0.5022
   40MOL   C68347561   0.521   0.356   4.319 -0.5267  0.4680  0.6318
   40MOL   C68447562   0.488   0.405   4.174 -0.4365  0.2117  0.6970
   40MOL   O68547563   0.484   0.524   4.147  0.2368  0.4840 -0.5899
   40MOL   H68647564   2.095   6.834   3.970 -1.6133  0.5098  0.3452
   40MOL   H68747565   1.936   6.765   3.951 -0.7286 -1.7892  0.1488
   40MOL   H68847566   2.033   6.614   4.175 -2.0041  0.1661  0.3017
   40MOL   H68947567   2.141   6.757   4.173 -0.1533 -1.8404 -0.1117
   40MOL   H69047568   1.848   6.770   4.169  0.2682 -1.8376  0.7690
   40MOL   H69147569   1.944   6.774   4.328  3.3364  1.6437  0.4390
   40MOL   H69247570   2.055   6.991   4.242 -0.1174 -1.3727  0.4937
   40MOL   H69347571   1.963   6.980   4.103 -0.7525  3.5027  1.1915
   40MOL   H69447572   1.859   7.022   4.374  0.8356  0.3379  0.6064
   40MOL   H69547573   1.746   6.993   4.244  0.5897 -0.6117 -0.3833
   40MOL   H69647574   1.816   7.189   4.117  1.5978 -0.4484 -0.1553
   40MOL   H69747575   1.914   7.245   4.254  0.3112 -2.4186  3.0598
   40MOL   H69847576   1.695   7.228   4.398 -1.7212  1.1600  0.1077
   40MOL   H69947577   1.611   7.182   4.250 -0.0327 -1.2031  0.3204
   40MOL   H70047578   1.785   7.428   4.285  0.4541  1.1072 -1.0310
   40MOL   H70147579   1.614   7.438   4.320 -1.2607  1.4557 -2.9966
   40MOL   H70247580   1.714   7.525   4.102  0.2587 -0.3006 -0.7325
   40MOL   H70347581   1.690   7.359   4.050  1.7753  0.5714 -0.0556
   40MOL   H70447582   1.502   7.453   3.994 -1.5452  0.4216 -0.0145
   40MOL   H70547583   1.468   7.360   4.148 -1.4518  1.2171  1.2411
   40MOL   H70647584   1.357   0.049   4.208  0.7731 -1.1834  0.0852
   40MOL   H70747585   1.271   7.697   4.316  1.3674  0.4009  0.3058
   40MOL   H70847586   1.061   7.707   4.175  0.6004 -0.0760 -0.1186
   40MOL   H70947587   1.147   0.067   4.074 -0.4219 -1.2577 -0.9433
   40MOL   H71047588   1.173   0.226   4.254  0.9285 -1.5505  0.2666
   40MOL   H71147589   1.102   0.113   4.362 -2.5277 -1.5401 -0.5430
   40MOL   H71247590   0.883   0.123   4.232 -0.5935  1.1140  1.4249
   40MOL   H71347591   0.942   0.236   4.131 -2.8243 -0.2858  0.2552
   40MOL   H71447592   0.903   0.270   4.442 -2.9872 -0.0301  0.0717
   40MOL   H71547593   0.990   0.383   4.341 -1.1218  0.3587  1.3306
   40MOL   H71647594   0.748   0.455   4.372 -0.1949 -0.2820 -0.8580
   40MOL   H71747595   0.775   0.418   4.208 -1.4106 -1.5344 -0.6381
   40MOL   H71847596   0.671   0.232   4.425  0.2639 -0.6026 -0.2255
   40MOL   H71947597   0.651   0.204   4.258 -0.9588  1.5743 -0.7049
   40MOL   H72047598   0.437   0.293   4.348  1.6068 -2.6239  0.3368
   40MOL   H72147599   0.522   0.445   4.381 -4.6482 -0.0705  1.5806
   40MOL   O72247600   0.461   0.296   4.091 -0.0611  0.0683  0.1375
   40MOL   C72347601   0.418   0.332   3.960 -0.7071  0.1360  0.3407
   40MOL   C72447602   0.527   0.392   3.871 -0.1654  0.4603  0.6334
   40MOL   C72547603   0.649   0.306   3.855 -0.9651  0.3296  0.4551
   40MOL   C72647604   0.774   0.370   3.785 -0.3966 -0.2204 -0.2999
   40MOL   C72747605   0.840   0.484   3.850  0.0520 -0.9237 -0.1055
   40MOL   C72847606   0.981   0.502   3.792  0.0559 -1.3947 -0.4702
   40MOL   C72947607   1.078   0.388   3.819  0.6476 -0.2429  0.4242
   40MOL   C73047608   1.220   0.414   3.764 -0.3096  0.1930 -0.9385
   40MOL   C73147609   1.214   0.482   3.626  0.2203 -0.6044 -0.2257
   40MOL   C73247610   1.354   0.490   3.569 -0.6857 -0.0870  0.0713
   40MOL   O73347611   1.395   0.363   3.515  0.6214 -0.2238  0.1820
   40MOL   C73447612   1.524   0.338   3.506  0.1652  0.3331  0.1759
   40MOL   O73547613   1.609   0.406   3.564  0.2596  0.1206  0.2080
   40MOL   C73647614   1.553   0.222   3.414 -0.5498  0.6238 -0.0303
   40MOL   C73747615   1.587   0.272   3.274 -0.5079 -0.2284  0.3055
   40MOL   C73847616   1.677   0.391   3.268  0.1116 -0.5822 -0.0750
   40MOL   C73947617   1.694   0.445   3.119 -0.2277 -0.1056  0.3871
   40MOL   C74047618   1.719   0.594   3.087  0.0744 -0.3549  0.3885
   40MOL   C74147619   1.864   0.638   3.102  0.3013  0.3677  0.2134
   40MOL   C74247620   1.875   0.786   3.085  0.0149  0.0613 -0.0178
   40MOL   C74347621   2.021   0.838   3.062 -0.6065 -0.8120 -0.4715
   40MOL   C74447622   2.090   0.785   2.936 -0.8180  0.1154 -0.7478
   40MOL   O74547623   2.156   0.689   2.947 -0.1761  0.6103 -0.9300
   40MOL   H74647624   0.380   0.237   3.922  0.0552 -0.5989  1.3769
   40MOL   H74747625   0.333   0.399   3.953 -0.0555  1.1245  1.8170
   40MOL   H74847626   0.487   0.422   3.774  2.4130 -1.4173 -1.0842
   40MOL   H74947627   0.561   0.482   3.920  2.6300  1.8477 -3.5653
   40MOL   H75047628   0.696   0.282   3.950 -0.7264 -0.7789  0.0604
   40MOL   H75147629   0.625   0.216   3.798  0.2215  0.8743 -0.9209
   40MOL   H75247630   0.838   0.282   3.791 -0.9416 -0.5908  0.2809
   40MOL   H75347631   0.754   0.389   3.680 -0.4866 -1.8263 -0.5873
   40MOL   H75447632   0.842   0.472   3.958  0.9455 -0.2155 -0.0447
   40MOL   H75547633   0.784   0.575   3.831 -0.3684 -1.1198  0.1939
   40MOL   H75647634   1.022   0.586   3.849 -0.5105 -2.7921  2.0517
   40MOL   H75747635   0.967   0.520   3.686 -0.4421 -1.3320 -0.3966
   40MOL   H75847636   1.042   0.288   3.796 -1.3477  0.3920  0.6403
   40MOL   H75947637   1.075   0.385   3.928 -2.9905 -1.5544  0.3561
   40MOL   H76047638   1.273   0.320   3.744 -1.5407 -0.6564 -0.2627
   40MOL   H76147639   1.266   0.472   3.844  2.4292 -2.5583 -0.4048
   40MOL   H76247640   1.152   0.432   3.552  0.1480 -1.3134  0.3172
   40MOL   H76347641   1.173   0.583   3.638 -0.0725 -0.8087  0.5032
   40MOL   H76447642   1.343   0.563   3.489  2.3213 -1.6458 -1.8359
   40MOL   H76547643   1.417   0.538   3.643 -1.9900  1.2352  0.3466
   40MOL   H76647644   1.474   0.147   3.421  1.3766 -1.2220  2.9486
   40MOL   H76747645   1.650   0.191   3.453  0.0549  1.6912 -0.6596
   40MOL   H76847646   1.493   0.303   3.227 -0.0302  0.5301 -0.1476
   40MOL   H76947647   1.610   0.181   3.219 -2.4235 -0.8243  0.4187
   40MOL   H77047648   1.765   0.362   3.326  2.3809  1.9518 -2.1285
   40MOL   H77147649   1.631   0.470   3.328  1.2368  0.6698 -0.8169
   40MOL   H77247650   1.610   0.420   3.054  0.6588 -0.0429 -0.7963
   40MOL   H77347651   1.776   0.389   3.074  0.6690  1.9755 -0.6587
   40MOL   H77447652   1.697   0.614   2.982 -1.2388 -0.6719  0.5929
   40MOL   H77547653   1.645   0.652   3.143  1.1079  2.2591 -0.8789
   40MOL   H77647654   1.903   0.612   3.201  0.1437  2.5304  0.8699
   40MOL   H77747655   1.920   0.586   3.025 -2.0684 -0.5571 -0.9320
   40MOL   H77847656   1.858   0.840   3.178  2.0202  0.7259  0.0012
   40MOL   H77947657   1.816   0.826   3.002 -1.9019 -3.3620 -0.3783
   40MOL   H78047658   2.029   0.945   3.080 -4.0676 -0.4802 -0.6358
   40MOL   H78147659   2.080   0.798   3.145  1.9442 -0.4588 -2.0687
   40MOL   O78247660   2.082   0.864   2.828 -0.1417  0.2683  0.6356
   40MOL   C78347661   2.161   0.828   2.721  0.1900  0.1089  0.0025
   40MOL   C78447662   2.209   0.954   2.652 -0.2795  0.7740  0.0580
   40MOL   C78547663   2.291   0.939   2.520 -0.2210  0.3475 -0.4817
   40MOL   C78647664   2.203   0.890   2.406 -0.0608 -0.2744 -0.2561
   40MOL   C78747665   2.290   0.872   2.278  0.3683  0.7806 -0.0586
   40MOL   C78847666   2.223   0.793   2.167 -0.0853  0.3422  0.3798
   40MOL   C78947667   2.299   0.772   2.038  0.7865 -0.2355 -0.3818
   40MOL   C79047668   2.209   0.707   1.931  0.2757 -0.6099 -0.6356
   40MOL   C79147669   2.259   0.695   1.788 -0.5434  0.2870  0.2468
   40MOL   C79247670   2.363   0.580   1.775 -0.0567 -0.3289  0.2913
   40MOL   O79347671   2.403   0.573   1.640 -0.5440 -0.3251  0.3688
   40MOL   C79447672   2.462   0.468   1.601  0.3754  1.1625 -0.3718
   40MOL   O79547673   2.489   0.375   1.676  0.0077  0.6032  0.7208
   40MOL   C79647674   2.504   0.464   1.452  1.0666  1.5154  1.0411
   40MOL   C79747675   2.605   0.565   1.410  0.1188 -0.5339  0.1011
   40MOL   C79847676   2.669   0.543   1.273 -0.0406  0.2684 -0.3054
   40MOL   C79947677   2.782   0.637   1.242  0.5224  0.0332  0.7795
   40MOL   C80047678   2.850   0.622   1.103 -0.0433  0.0794  0.0509
   40MOL   C80147679   2.990   0.675   1.111 -0.1303 -0.0527 -0.3025
   40MOL   C80247680   3.016   0.826   1.107 -0.5397 -0.9541  0.3575
   40MOL   C80347681   2.972   0.895   0.971 -0.5337 -0.1805 -0.4329
   40MOL   C80447682   2.995   1.041   0.965  0.3024 -0.1405 -0.5709
   40MOL   O80547683   3.012   1.098   0.854 -0.0422  0.4855 -0.1449
   40MOL   H80647684   2.254   0.776   2.743  0.4858  1.4204  1.9822
   40MOL   H80747685   2.106   0.776   2.643 -0.3611 -1.1412  1.1942
   40MOL   H80847686   2.116   1.002   2.623  0.0360  1.3661  0.0228
   40MOL   H80947687   2.250   1.029   2.719 -0.2512  1.3729 -0.6277
   40MOL   H81047688   2.321   1.040   2.492 -1.3020  1.4487  2.1652
   40MOL   H81147689   2.373   0.868   2.532 -2.5096 -2.2865  0.0112
   40MOL   H81247690   2.146   0.803   2.437  1.5960 -0.7936  1.3874
   40MOL   H81347691   2.134   0.972   2.387  2.4383  1.9952  0.1620
   40MOL   H81447692   2.385   0.833   2.314 -0.4727  1.1929  2.7289
   40MOL   H81547693   2.325   0.970   2.246 -1.3494  1.2732 -0.5129
   40MOL   H81647694   2.133   0.850   2.144  0.0011  0.3906  0.1584
   40MOL   H81747695   2.180   0.702   2.208 -2.6719  0.2332 -2.3626
   40MOL   H81847696   2.379   0.701   2.055 -0.4820 -1.5040  0.3799
   40MOL   H81947697   2.325   0.873   2.007 -3.3783  0.6775 -1.2513
   40MOL   H82047698   2.126   0.776   1.919 -0.1472 -0.9119  0.5054
   40MOL   H82147699   2.166   0.617   1.975  0.9650  0.2522  1.9110
   40MOL   H82247700   2.186   0.692   1.708 -0.2295  1.3344 -0.0801
   40MOL   H82347701   2.307   0.789   1.759  0.4174 -0.8019 -1.7767
   40MOL   H82447702   2.438   0.610   1.848 -0.3721  0.7198  0.1916
   40MOL   H82547703   2.330   0.481   1.808 -0.5291 -0.3150 -0.1245
   40MOL   H82647704   2.417   0.448   1.388  1.0713  2.6830  0.7368
   40MOL   H82747705   2.545   0.363   1.441 -2.6375 -0.0516  0.8697
   40MOL   H82847706   2.688   0.567   1.480 -0.3146  0.8181  0.5849
   40MOL   H82947707   2.553   0.660   1.399  0.9265  0.1202  1.7866
   40MOL   H83047708   2.592   0.552   1.196  1.3867  2.7893 -1.5264
   40MOL   H83147709   2.702   0.441   1.255 -0.0285  0.5588 -2.0499
   40MOL   H83247710   2.857   0.628   1.321  1.1027  4.7224  0.9067
   40MOL   H83347711   2.744   0.739   1.244  1.0827  0.2641  4.4961
   40MOL   H83447712   2.863   0.516   1.083  0.8618  0.4474 -1.3947
   40MOL   H83547713   2.799   0.668   1.018  2.7647  1.2432 -1.0714
   40MOL   H83647714   3.047   0.640   1.198  3.1576  1.2669 -1.8736
   40MOL   H83747715   3.046   0.639   1.025  2.2282  0.8593  0.8246
   40MOL   H83847716   3.123   0.830   1.125 -0.4984  0.3876 -0.1113
   40MOL   H83947717   2.966   0.873   1.191 -0.3310  1.1978 -0.6876
   40MOL   H84047718   3.034   0.842   0.898 -0.9352 -0.8907 -0.2676
   40MOL   H84147719   2.865   0.885   0.951 -0.4549 -2.0130 -0.0129
   40MOL   O84247720   2.982   1.099   1.092  0.1684  0.0345 -0.0839
   40MOL   C84347721   2.980   1.236   1.110 -0.0327 -0.8878 -0.5682
   40MOL   C84447722   3.067   1.269   1.227 -0.4536 -0.5360 -0.1200
   40MOL   C84547723   3.210   1.228   1.192 -0.0413 -0.2800  0.3049
   40MOL   C84647724   3.312   1.284   1.287  0.0579  0.2168  0.0366
   40MOL   C84747725   3.452   1.223   1.285  0.0738 -0.3603 -0.8097
   40MOL   C84847726   3.547   1.323   1.355  0.2639 -0.5628  0.8420
   40MOL   C84947727   3.697   1.280   1.336  0.0938 -0.2121 -0.0061
   40MOL   C85047728   3.797   1.376   1.401  0.4099 -0.5515 -0.1082
   40MOL   C85147729   3.941   1.330   1.364  0.1988  0.0231  0.0360
   40MOL   C85247730   4.035   1.409   1.450 -0.0769 -1.4886  0.5764
   40MOL   O85347731   4.031   1.541   1.408  0.5369  0.5403 -0.5307
   40MOL   C85447732   4.117   1.584   1.309 -0.2095 -0.2186 -0.9439
   40MOL   O85547733   4.205   1.522   1.255 -0.1155  0.4299  0.4042
   40MOL   C85647734   4.098   1.727   1.273 -0.1096  0.2763  0.4121
   40MOL   C85747735   4.015   1.743   1.146  0.0140  0.6303  0.0151
   40MOL   C85847736   3.880   1.665   1.139  0.4457  0.3070  0.1397
   40MOL   C85947737   3.800   1.705   1.014 -0.1002  0.0799 -0.2161
   40MOL   C86047738   3.667   1.631   0.983  0.2037  0.5503 -0.0725
   40MOL   C86147739   3.551   1.685   1.066  0.5244  0.0546  0.8336
   40MOL   C86247740   3.423   1.634   0.999  0.6094  0.3505 -1.3518
   40MOL   C86347741   3.294   1.674   1.072  0.3689  0.3995  0.0705
   40MOL   C86447742   3.164   1.648   0.994  0.3571 -0.0257  0.6006
   40MOL   O86547743   3.097   1.546   1.021  0.2875  0.1623  0.0215
   40MOL   H86647744   3.019   1.289   1.023  0.3976 -1.3006 -0.6292
   40MOL   H86747745   2.882   1.280   1.125  0.1813 -0.5280 -0.2414
   40MOL   H86847746   3.056   1.375   1.246  1.9149 -0.5667  1.5951
   40MOL   H86947747   3.029   1.220   1.316 -1.6206 -1.9276 -1.3494
   40MOL   H87047748   3.217   1.120   1.183 -1.3493 -0.2062 -1.8907
   40MOL   H87147749   3.230   1.268   1.092 -2.2995 -0.4014 -0.2128
   40MOL   H87247750   3.312   1.392   1.270  0.9290  0.9400  4.0838
   40MOL   H87347751   3.262   1.267   1.382 -0.6496  0.1540 -0.3481
   40MOL   H87447752   3.479   1.210   1.180 -1.3113  3.3217 -1.7003
   40MOL   H87547753   3.457   1.126   1.335  0.0784  0.6484  1.2076
   40MOL   H87647754   3.518   1.347   1.458 -0.9277 -1.5250  0.7514
   40MOL   H87747755   3.542   1.414   1.296 -2.5600 -0.3378  1.3637
   40MOL   H87847756   3.718   1.266   1.230  1.0805  1.1875 -0.0076
   40MOL   H87947757   3.704   1.179   1.375 -1.3564 -0.6879 -0.9373
   40MOL   H88047758   3.770   1.354   1.505  2.5277 -2.6815  0.0299
   40MOL   H88147759   3.778   1.479   1.371  0.3593 -0.0895  1.4682
   40MOL   H88247760   3.958   1.224   1.383  0.3564  0.2498  1.2142
   40MOL   H88347761   3.963   1.346   1.259  0.3150 -0.6390 -0.0484
   40MOL   H88447762   4.006   1.411   1.555 -1.8097 -2.1269  0.1321
   40MOL   H88547763   4.135   1.367   1.438 -0.9589 -3.1730 -1.2942
   40MOL   H88647764   4.197   1.769   1.255 -0.3345  0.1495 -1.1707
   40MOL   H88747765   4.059   1.785   1.357 -1.7909 -2.4106  1.5473
   40MOL   H88847766   4.083   1.716   1.065  0.2489 -2.0562  1.0547
   40MOL   H88947767   4.005   1.848   1.117 -0.3517  0.6917  0.3561
   40MOL   H89047768   3.817   1.702   1.219 -0.5474  3.4385 -1.9833
   40MOL   H89147769   3.892   1.557   1.148 -2.1911 -0.0267  0.0336
   40MOL   H89247770   3.864   1.688   0.927 -0.8420 -2.5353 -0.2846
   40MOL   H89347771   3.777   1.812   1.018  0.6272  0.2493 -0.5261
   40MOL   H89447772   3.650   1.633   0.875 -2.4018  0.3368  0.3028
   40MOL   H89547773   3.677   1.524   0.999  4.3921  1.1907  2.4217
   40MOL   H89647774   3.568   1.654   1.169 -1.6184  1.3928  1.6044
   40MOL   H89747775   3.555   1.793   1.067  1.1732  0.0711 -1.1847
   40MOL   H89847776   3.430   1.525   1.001 -2.0485  0.1661  0.7201
   40MOL   H89947777   3.433   1.663   0.894  0.6127 -0.1732 -1.4972
   40MOL   H90047778   3.282   1.622   1.167  2.0346  1.0339  0.6449
   40MOL   H90147779   3.286   1.780   1.097 -0.3389  0.1807  0.7852
   40MOL   O90247780   3.163   1.706   0.877  0.1192  0.8211  0.3419
   40MOL   C90347781   3.060   1.690   0.780  0.5501 -0.0083 -0.0801
   40MOL   C90447782   2.922   1.757   0.828 -0.9087  0.4393  0.1487
   40MOL   C90547783   2.796   1.672   0.789 -0.3923 -0.0051  0.1682
   40MOL   C90647784   2.667   1.756   0.792 -0.6047 -0.1664 -0.1635
   40MOL   C90747785   2.625   1.800   0.936 -0.5802 -0.6439 -0.1557
   40MOL   C90847786   2.500   1.886   0.934  0.3791 -0.0885 -0.1459
   40MOL   C90947787   2.446   1.927   1.077  0.1103 -0.1022  0.2018
   40MOL   C91047788   2.339   2.041   1.069  0.9517  0.9370  0.4487
   40MOL   C91147789   2.199   1.995   1.009 -0.4949  0.2969  0.2069
   40MOL   C91247790   2.082   2.098   1.017 -0.1985  0.7717 -0.3302
   40MOL   O91347791   2.131   2.221   0.962 -0.2041 -0.0114  0.5867
   40MOL   C91447792   2.078   2.335   1.006 -0.9047  0.6253  0.4775
   40MOL   O91547793   1.974   2.337   1.075  0.4309  0.3401 -0.2334
   40MOL   C91647794   2.149   2.470   0.980  0.3359 -0.4173  0.4120
   40MOL   C91747795   2.299   2.477   1.026 -0.7017 -0.1347 -0.0515
   40MOL   C91847796   2.311   2.473   1.183 -0.1981  0.1781  0.7360
   40MOL   C91947797   2.456   2.504   1.226 -0.3102  0.0541  0.0921
   40MOL   C92047798   2.481   2.477   1.372 -0.2465  0.3399  0.0307
   40MOL   C92147799   2.477   2.322   1.404 -0.0221 -0.1520  0.6299
   40MOL   C92247800   2.610   2.273   1.467  0.1934 -0.0054 -0.0366
   40MOL   C92347801   2.621   2.118   1.483  0.5043 -0.1234  0.4591
   40MOL   C92447802   2.523   2.069   1.595  0.1968 -0.0275  0.4211
   40MOL   O92547803   2.434   1.990   1.574  0.4130 -0.9018  0.7839
   40MOL   H92647804   3.097   1.729   0.686  1.5130 -1.3928 -0.2925
   40MOL   H92747805   3.052   1.583   0.761 -0.9460 -0.0029  0.3999
   40MOL   H92847806   2.934   1.777   0.935 -0.3168 -1.3327  0.4294
   40MOL   H92947807   2.922   1.850   0.771 -2.0619  1.2050  1.3593
   40MOL   H93047808   2.818   1.637   0.688  2.4231 -4.7564  2.2580
   40MOL   H93147809   2.795   1.583   0.852  0.0708  0.2586  0.5492
   40MOL   H93247810   2.687   1.848   0.737  0.3336 -0.9599 -1.1633
   40MOL   H93347811   2.585   1.706   0.742  0.0990 -2.0621  0.5515
   40MOL   H93447812   2.711   1.853   0.977 -0.0462  0.2403 -2.3774
   40MOL   H93547813   2.617   1.710   0.998 -1.5745 -1.1518 -1.0046
   40MOL   H93647814   2.424   1.832   0.879 -1.2557  0.8504  1.1309
   40MOL   H93747815   2.525   1.979   0.882  1.7375 -0.9334 -1.0226
   40MOL   H93847816   2.526   1.981   1.127 -1.4427  0.5789  2.0330
   40MOL   H93947817   2.401   1.843   1.129  1.0746 -0.3107  0.7100
   40MOL   H94047818   2.384   2.119   1.008  0.0341  0.1574 -1.2579
   40MOL   H94147819   2.313   2.071   1.170  0.9938  1.1543  0.3956
   40MOL   H94247820   2.217   1.974   0.904 -1.2845 -0.7702  0.2802
   40MOL   H94347821   2.158   1.901   1.044 -1.6325  0.9016  0.5327
   40MOL   H94447822   1.995   2.063   0.961  1.5459 -0.2763 -2.4684
   40MOL   H94547823   2.053   2.093   1.122 -1.1779 -0.9494 -0.6665
   40MOL   H94647824   2.085   2.548   1.019  0.9825  0.3555 -0.0478
   40MOL   H94747825   2.142   2.482   0.872 -0.3782  0.2729  0.5415
   40MOL   H94847826   2.344   2.568   0.985  0.6958 -1.2602 -1.0467
   40MOL   H94947827   2.365   2.400   0.987 -1.0304  0.5663 -2.0421
   40MOL   H95047828   2.286   2.371   1.214 -0.7042 -0.8989 -2.9404
   40MOL   H95147829   2.240   2.538   1.234 -1.4471 -2.0302  1.9186
   40MOL   H95247830   2.474   2.612   1.220 -0.3828  0.1520  1.5230
   40MOL   H95347831   2.524   2.443   1.166  0.5904  0.3415  0.8197
   40MOL   H95447832   2.577   2.515   1.407  0.0219  1.3178 -1.7017
   40MOL   H95547833   2.399   2.526   1.424 -0.7554 -0.5033  0.0397
   40MOL   H95647834   2.387   2.296   1.460 -1.3301 -1.7010 -2.1305
   40MOL   H95747835   2.475   2.270   1.309  0.5214  0.9283  0.0185
   40MOL   H95847836   2.616   2.322   1.564 -1.4537  0.2110 -0.0258
   40MOL   H95947837   2.697   2.303   1.408 -0.0220  1.8816  0.5801
   40MOL   H96047838   2.601   2.071   1.387 -0.1370  2.4965 -0.7295
   40MOL   H96147839   2.726   2.099   1.506  0.1871 -1.0833  1.1679
   40MOL   O96247840   2.540   2.142   1.715  0.0608 -0.3924  0.2430
   40MOL   C96347841   2.463   2.123   1.831  0.2448 -0.1000  0.4615
   40MOL   C96447842   2.348   2.224   1.845  0.1748  0.3708  0.0422
   40MOL   C96547843   2.216   2.146   1.861  0.3993  0.2096  1.1536
   40MOL   C96647844   2.102   2.237   1.891  0.3190  0.0626 -0.2181
   40MOL   C96747845   1.969   2.168   1.885  0.1420 -0.5051  0.3411
   40MOL   C96847846   1.855   2.273   1.930  1.0423  0.1125 -0.5314
   40MOL   C96947847   1.716   2.217   1.921  0.3867 -0.4906  0.5279
   40MOL   C97047848   1.615   2.325   1.964 -0.4440  0.0164  0.3663
   40MOL   C97147849   1.473   2.270   2.003 -0.3911  0.3378 -0.0735
   40MOL   C97247850   1.400   2.350   2.111  0.2335  0.2691 -0.6315
   40MOL   O97347851   1.354   2.470   2.057  0.3668 -0.1209 -0.1412
   40MOL   C97447852   1.295   2.562   2.142 -0.2337  0.4591  0.9826
   40MOL   O97547853   1.301   2.561   2.258  0.1862  0.0346  0.3212
   40MOL   C97647854   1.220   2.674   2.078  0.6320 -0.0232 -0.2750
   40MOL   C97747855   1.093   2.721   2.145  0.9054  0.1838 -0.0839
   40MOL   C97847856   1.108   2.812   2.271  0.0267  0.2800 -0.1183
   40MOL   C97947857   0.976   2.824   2.345 -0.3427 -0.1250  0.0413
   40MOL   C98047858   0.978   2.934   2.448  0.0857 -0.2812 -0.4510
   40MOL   C98147859   0.852   2.918   2.533  0.0410 -0.1874  0.6457
   40MOL   C98247860   0.854   3.003   2.669  0.5025 -0.1342  0.2342
   40MOL   C98347861   0.802   3.151   2.666 -0.1116 -0.1033  0.0733
   40MOL   C98447862   0.875   3.236   2.555 -0.3718  0.4815  0.2609
   40MOL   O98547863   0.808   3.291   2.469  0.1446  0.1579 -0.9860
   40MOL   H98647864   2.433   2.019   1.848  0.7659 -0.1307  1.2033
   40MOL   H98747865   2.531   2.146   1.913 -0.2928 -0.6331  1.0645
   40MOL   H98847866   2.363   2.274   1.940  0.5091 -0.1303  0.2584
   40MOL   H98947867   2.344   2.294   1.762  0.9875 -0.8323 -1.0291
   40MOL   H99047868   2.201   2.098   1.764 -1.2707 -0.6764  1.8250
   40MOL   H99147869   2.225   2.069   1.938 -1.1359  0.1031  1.2469
   40MOL   H99247870   2.120   2.273   1.992  2.2105  1.3249 -0.9713
   40MOL   H99347871   2.100   2.319   1.819 -1.0875  0.1318 -0.0995
   40MOL   H99447872   1.968   2.079   1.949  0.6700 -1.0817 -0.4443
   40MOL   H99547873   1.937   2.133   1.787 -0.3804 -1.2371  0.7613
   40MOL   H99647874   1.863   2.362   1.868 -0.0344  0.0124 -0.8218
   40MOL   H99747875   1.878   2.297   2.034 -0.8921  0.8821 -0.2693
   40MOL   H99847876   1.707   2.135   1.993  0.4891  0.5586  1.7445
   40MOL   H99947877   1.703   2.185   1.818  0.3554 -2.3539  1.0934
   40MOL     H147878   1.611   2.408   1.893  2.4030 -0.3482 -0.2489
   40MOL     H247879   1.653   2.367   2.057 -0.6161  0.4444  0.2499
   40MOL     H347880   1.411   2.274   1.914 -0.7854  0.8699  0.2259
   40MOL     H447881   1.491   2.167   2.033  0.5689  1.0924  2.0666
   40MOL     H547882   1.316   2.299   2.158  0.5135  0.9736  0.6656
   40MOL     H647883   1.461   2.367   2.199  1.7298  0.4199 -1.6730
   40MOL     H747884   1.188   2.639   1.980  1.7675 -1.1537 -0.2481
   40MOL     H847885   1.293   2.755   2.069  0.2737  0.3313 -0.0035
   40MOL     H947886   1.039   2.633   2.180  3.7154 -0.5471  2.6485
   40MOL    H1047887   1.019   2.763   2.077  3.2535  1.5137 -1.8874
   40MOL    H1147888   1.160   2.907   2.255 -3.3193  2.0796 -0.8167
   40MOL    H1247889   1.185   2.766   2.333 -0.9962 -1.1691  0.0905
   40MOL    H1347890   0.958   2.721   2.377 -0.1882 -0.6193 -1.4445
   40MOL    H1447891   0.898   2.853   2.275  0.6296 -1.7774 -1.7767
   40MOL    H1547892   1.066   2.938   2.513 -1.5364 -0.5424  1.8193
   40MOL    H1647893   0.978   3.025   2.389 -1.3134 -0.4483 -0.7155
   40MOL    H1747894   0.761   2.926   2.473  1.2803 -0.0375 -1.2561
   40MOL    H1847895   0.847   2.814   2.565 -2.1399  0.0381  1.1540
   40MOL    H1947896   0.954   3.005   2.713  0.7250  0.7182 -0.3166
   40MOL    H2047897   0.793   2.957   2.748  1.6842  0.0825  1.2894
   40MOL    H2147898   0.695   3.136   2.649 -0.2178  0.7033  0.0355
   40MOL    H2247899   0.808   3.207   2.759  1.1786  0.1386 -0.1451
   40MOL    O2347900   1.013   3.244   2.564 -0.2258 -0.5842 -0.1446
   40MOL    C2447901   1.084   3.329   2.476 -0.5466  0.7548 -0.4567
   40MOL    C2547902   1.153   3.249   2.364 -0.1180  0.5785 -0.6118
   40MOL    C2647903   1.250   3.327   2.270 -0.5410  0.3663  0.0205
   40MOL    C2747904   1.312   3.248   2.153 -0.2655  0.7675  0.3497
   40MOL    C2847905   1.461   3.268   2.136  0.4788 -0.1331  0.7208
   40MOL    C2947906   1.512   3.201   2.006 -0.8688  0.4341  0.3698
   40MOL    C3047907   1.656   3.226   1.963 -0.0171  0.6066  0.1363
   40MOL    C3147908   1.670   3.151   1.827  0.0112  0.2549  0.2657
   40MOL    C3247909   1.792   3.192   1.741  0.5203 -0.0548  0.6906
   40MOL    C3347910   1.797   3.130   1.601  0.4507  0.5811 -0.2091
   40MOL    O3447911   1.803   2.986   1.625  0.2564 -0.4057  0.3654
   40MOL    C3547912   1.907   2.919   1.579 -0.1728 -0.2912  0.0333
   40MOL    O3647913   1.990   2.965   1.498 -0.2340  0.6189 -0.0759
   40MOL    C3747914   1.914   2.784   1.639 -0.4644  0.2921  0.0326
   40MOL    C3847915   1.928   2.679   1.527 -0.0772  0.7297  0.1706
   40MOL    C3947916   1.963   2.541   1.587  0.1181  0.2896 -0.5405
   40MOL    C4047917   1.967   2.432   1.482 -0.2918  0.4649  0.1705
   40MOL    C4147918   1.970   2.291   1.548  0.6850 -0.1379  0.7252
   40MOL    C4247919   1.989   2.175   1.452 -0.1954  0.3189 -0.7725
   40MOL    C4347920   2.074   2.052   1.498 -0.0146  0.5335  0.1073
   40MOL    C4447921   2.094   1.957   1.371 -0.1966 -0.1810 -0.3691
   40MOL    C4547922   1.967   1.910   1.311  0.9163 -0.6604 -0.0587
   40MOL    O4647923   1.940   1.922   1.195  0.1717  0.2733  0.1732
   40MOL    H4747924   1.019   3.407   2.438 -1.1564  1.2377  1.4936
   40MOL    H4847925   1.163   3.369   2.540 -0.8069 -0.6465  0.7840
   40MOL    H4947926   1.210   3.169   2.412  0.9099  1.5599 -0.1790
   40MOL    H5047927   1.070   3.205   2.308  0.6213 -2.6567  0.6845
   40MOL    H5147928   1.197   3.418   2.242 -1.2620  0.2741  1.0684
   40MOL    H5247929   1.322   3.376   2.336  0.7301 -1.0640 -0.2643
   40MOL    H5347930   1.293   3.141   2.168  0.0828  0.7042  0.3436
   40MOL    H5447931   1.259   3.279   2.063  0.5009  0.7816 -0.1051
   40MOL    H5547932   1.525   3.230   2.215  0.1520 -1.2968  0.4276
   40MOL    H5647933   1.483   3.375   2.129  2.0532 -0.4031  1.2450
   40MOL    H5747934   1.443   3.222   1.925  0.8379  0.5668 -1.0637
   40MOL    H5847935   1.509   3.094   2.031  1.4031  0.3140  0.2329
   40MOL    H5947936   1.727   3.177   2.029  1.0644 -0.0097 -1.4372
   40MOL    H6047937   1.691   3.328   1.945  2.7725 -0.1632  0.9216
   40MOL    H6147938   1.587   3.190   1.768 -1.3281  0.4276  2.2297
   40MOL    H6247939   1.666   3.043   1.845  1.4946 -0.1656 -1.7409
   40MOL    H6347940   1.765   3.298   1.731 -3.2765 -1.1140 -1.5308
   40MOL    H6447941   1.887   3.200   1.793 -0.3961 -0.9916  2.5715
   40MOL    H6547942   1.707   3.158   1.546 -0.6357 -2.3340 -0.0360
   40MOL    H6647943   1.886   3.181   1.563  0.9997 -0.2343 -0.0276
   40MOL    H6747944   1.833   2.753   1.706 -0.4649  0.3586  0.0623
   40MOL    H6847945   2.003   2.786   1.701 -0.7273 -0.3471  0.4461
   40MOL    H6947946   2.007   2.702   1.456  0.5111  1.7155  1.1366
   40MOL    H7047947   1.841   2.662   1.463 -0.2264  1.7964  0.0936
   40MOL    H7147948   1.883   2.512   1.655  0.2569 -1.5337 -1.1304
   40MOL    H7247949   2.056   2.544   1.645 -1.5544  0.6001  2.2312
   40MOL    H7347950   2.050   2.442   1.413  1.0935 -3.0668  1.1934
   40MOL    H7447951   1.879   2.451   1.421 -0.6208  2.0269  1.1147
   40MOL    H7547952   2.058   2.285   1.612  0.7645  0.2530  0.6532
   40MOL    H7647953   1.886   2.281   1.617 -0.3795  0.9097 -0.3978
   40MOL    H7747954   1.889   2.139   1.429 -0.4171 -0.9839  2.0487
   40MOL    H7847955   2.047   2.201   1.363  0.7996 -0.8646 -0.4796
   40MOL    H7947956   2.031   2.004   1.586 -1.3731  0.8071 -0.3984
   40MOL    H8047957   2.177   2.079   1.523  1.2185 -2.7994 -1.1179
   40MOL    H8147958   2.140   2.012   1.289  1.5366 -2.6164 -1.0762
   40MOL    H8247959   2.151   1.868   1.395 -0.8863 -0.4916  0.1463
   40MOL    O8347960   1.884   1.860   1.407 -0.1215  0.4766  0.1643
   40MOL    C8447961   1.741   1.848   1.385 -0.4596 -0.7958 -0.3010
   40MOL    C8547962   1.663   1.902   1.505 -0.2549 -0.1611  0.3569
   40MOL    C8647963   1.515   1.872   1.493 -0.5119 -0.0013  0.6904
   40MOL    C8747964   1.442   1.932   1.615 -0.3662  0.3209 -0.3285
   40MOL    C8847965   1.468   1.859   1.748 -1.2486  0.4428 -0.0355
   40MOL    C8947966   1.366   1.883   1.867 -0.0077  0.1761 -0.2744
   40MOL    C9047967   1.411   1.834   2.001 -0.0924 -0.4279 -0.0536
   40MOL    C9147968   1.313   1.849   2.118 -1.0903 -0.4264  0.4932
   40MOL    C9247969   1.300   1.988   2.164  0.2383 -0.7100 -0.3063
   40MOL    C9347970   1.225   1.999   2.304  0.0426 -0.2236  1.1194
   40MOL    O9447971   1.191   2.137   2.324 -0.3457  0.2541  0.1822
   40MOL    C9547972   1.141   2.174   2.439  0.6423  0.7684  0.2895
   40MOL    O9647973   1.129   2.092   2.532  0.0904  0.0607  0.3511
   40MOL    C9747974   1.127   2.326   2.448 -0.2849  0.2241  0.8521
   40MOL    C9847975   1.120   2.389   2.587  0.6185 -0.0351  0.1011
   40MOL    C9947976   1.117   2.546   2.576 -0.0988 -0.4101 -0.1943
   40MOL   C10047977   1.093   2.611   2.709  0.0075 -0.0735 -0.0998
   40MOL   C10147978   0.947   2.593   2.759  0.0327  0.3595 -0.3988
   40MOL   C10247979   0.945   2.599   2.915  0.7906  0.5648 -0.8091
   40MOL   C10347980   1.004   2.726   2.973 -0.0699  0.0940  0.6984
   40MOL   C10447981   0.977   2.749   3.126  0.1879 -0.4465 -0.4957
   40MOL   C10547982   0.834   2.791   3.174 -0.0345  0.2204 -0.0124
   40MOL   O10647983   0.792   2.751   3.284  0.1364  0.1030 -0.2776
   40MOL   H10747984   1.706   1.905   1.298  1.6544  2.8113  1.0846
   40MOL   H10847985   1.711   1.743   1.378 -2.0382 -0.4355  0.8106
   40MOL   H10947986   1.692   1.863   1.602  0.8590  0.7713  0.4177
   40MOL   H11047987   1.668   2.011   1.509 -0.4261 -0.1239 -0.3471
   40MOL   H11147988   1.465   1.914   1.406 -1.3350 -1.0009  0.6752
   40MOL   H11247989   1.489   1.767   1.481 -1.3988  0.3330 -0.3623
   40MOL   H11347990   1.489   2.030   1.629 -0.5864  0.5504 -1.2149
   40MOL   H11447991   1.334   1.939   1.607 -1.0219 -1.7380  4.5659
   40MOL   H11547992   1.566   1.884   1.789  0.1789 -0.0060 -3.0216
   40MOL   H11647993   1.469   1.752   1.728  0.0141  0.3995  0.1819
   40MOL   H11747994   1.268   1.839   1.855  0.4243 -0.6283 -0.9456
   40MOL   H11847995   1.341   1.990   1.866 -4.0482 -0.6755 -2.9816
   40MOL   H11947996   1.495   1.901   2.022  0.4432 -0.8149 -0.9097
   40MOL   H12047997   1.446   1.730   1.998 -0.6338 -0.6023 -0.3650
   40MOL   H12147998   1.360   1.786   2.193  0.1366  0.8966  0.8615
   40MOL   H12247999   1.223   1.794   2.093  0.3163 -3.2213  1.4417
   40MOL   H12348000   1.399   2.028   2.185 -0.2536  0.4578 -0.1533
   40MOL   H12448001   1.267   2.059   2.088  3.1518  0.4824 -0.5254
   40MOL   H12548002   1.126   1.955   2.291  0.0421 -0.0324  0.4416
   40MOL   H12648003   1.276   1.958   2.391  0.1719  1.3806  1.8081
   40MOL   H12748004   1.038   2.362   2.397 -2.1159 -0.3207  3.5509
   40MOL   H12848005   1.213   2.356   2.388 -0.8999 -1.6327 -1.0137
   40MOL   H12948006   1.192   2.347   2.658 -0.9093  1.6957  2.7584
   40MOL   H13048007   1.029   2.351   2.633  1.1410 -0.8067  0.5132
   40MOL   H13148008   1.038   2.579   2.509 -1.4051 -1.6728  0.6958
   40MOL   H13248009   1.217   2.576   2.543 -0.2722  0.6892  0.2390
   40MOL   H13348010   1.108   2.717   2.688 -3.4603  0.2046 -1.4230
   40MOL   H13448011   1.168   2.574   2.780  0.5670  0.8436 -0.2054
   40MOL   H13548012   0.877   2.667   2.721  0.5644  1.3249  0.4436
   40MOL   H13648013   0.911   2.498   2.719  0.6463  0.3181 -0.8498
   40MOL   H13748014   0.839   2.607   2.939  0.7723  0.7099 -0.9385
   40MOL   H13848015   0.975   2.504   2.959 -0.0290 -0.5984 -2.7331
   40MOL   H13948016   0.964   2.813   2.922 -0.6175 -0.7929 -0.4015
   40MOL   H14048017   1.112   2.729   2.957  0.0113 -0.2752  1.1574
   40MOL   H14148018   1.010   2.671   3.194 -0.6591 -1.2324 -0.9718
   40MOL   H14248019   1.031   2.842   3.145 -0.5326 -0.0926 -0.1368
   40MOL   O14348020   0.768   2.874   3.084 -0.5741  0.4814  0.2536
   40MOL   C14448021   0.632   2.906   3.100  0.5321 -0.2608  0.1741
   40MOL   C14548022   0.548   2.805   3.022  0.0789  0.3027 -0.0120
   40MOL   C14648023   0.577   2.814   2.867  0.0156  0.1543 -0.4255
   40MOL   C14748024   0.481   2.721   2.798  0.6143 -0.4059  1.3770
   40MOL   C14848025   0.516   2.711   2.644  0.4088 -0.2457 -0.6023
   40MOL   C14948026   0.421   2.609   2.579 -0.0711 -0.3154 -0.2138
   40MOL   C15048027   0.441   2.589   2.425  0.0387 -0.0250  0.2319
   40MOL   C15148028   0.578   2.530   2.383  0.3107 -0.1886 -0.3091
   40MOL   C15248029   0.599   2.525   2.232  0.1006 -0.2472  0.1053
   40MOL   C15348030   0.493   2.434   2.168 -0.2753  0.0143 -0.8673
   40MOL   O15448031   0.513   2.418   2.030  0.7862 -0.3570  0.2115
   40MOL   C15548032   0.420   2.357   1.958 -0.8212 -1.0903  0.3416
   40MOL   O15648033   0.319   2.307   1.999  0.0158 -0.3500 -0.6545
   40MOL   C15748034   0.459   2.350   1.811  0.9955  0.5796 -0.2136
   40MOL   C15848035   0.534   2.227   1.771  0.3937 -0.1159 -0.3852
   40MOL   C15948036   0.544   2.210   1.616 -0.1764  0.0863 -0.4951
   40MOL   C16048037   0.623   2.089   1.562  0.6982  0.3635 -0.5130
   40MOL   C16148038   0.571   1.951   1.613 -0.6007 -0.0604  0.6092
   40MOL   C16248039   0.645   1.837   1.548  0.3754  0.4290  0.9479
   40MOL   C16348040   0.638   1.702   1.614  1.0105 -0.2033  0.3192
   40MOL   C16448041   0.738   1.607   1.562  0.5423 -0.0897  0.5600
   40MOL   C16548042   0.733   1.482   1.631 -0.2740 -0.2387 -1.1141
   40MOL   O16648043   0.764   1.379   1.567 -0.4808 -0.1252 -0.3512
   40MOL   H16748044   0.602   2.901   3.205  2.2376 -1.6616  0.6190
   40MOL   H16848045   0.615   3.006   3.060  2.4522 -0.3713 -0.9286
   40MOL   H16948046   0.550   2.702   3.057  0.9912  0.5353  0.6440
   40MOL   H17048047   0.445   2.839   3.032 -0.1650  0.2543 -2.0569
   40MOL   H17148048   0.571   2.916   2.831  2.8419  0.5341  0.0690
   40MOL   H17248049   0.678   2.779   2.850  0.2182  0.7449 -0.4319
   40MOL   H17348050   0.516   2.625   2.835 -0.7178 -1.7170 -0.6603
   40MOL   H17448051   0.376   2.731   2.822  0.1707  0.1733 -0.7240
   40MOL   H17548052   0.618   2.674   2.636  1.5641  2.8131 -0.6228
   40MOL   H17648053   0.499   2.811   2.604 -2.4224 -0.5199 -0.2048
   40MOL   H17748054   0.322   2.651   2.595 -0.3749 -1.2197  0.2700
   40MOL   H17848055   0.410   2.520   2.640  1.7329 -0.0918  0.4753
   40MOL   H17948056   0.427   2.684   2.375  1.0876 -1.4115 -2.7945
   40MOL   H18048057   0.357   2.531   2.385 -0.2986 -0.2575  1.2570
   40MOL   H18148058   0.594   2.430   2.424  0.0154  0.6683  1.9670
   40MOL   H18248059   0.653   2.598   2.425 -0.7521 -0.0113  1.3500
   40MOL   H18348060   0.576   2.628   2.202 -2.2867 -0.5102  0.8879
   40MOL   H18448061   0.696   2.502   2.188  0.8734  0.5071  1.3856
   40MOL   H18548062   0.490   2.339   2.221 -0.0466  0.5725  0.1608
   40MOL   H18648063   0.395   2.479   2.187  1.0966  2.8834 -0.4371
   40MOL   H18748064   0.524   2.424   1.763  0.1925  1.3282 -0.1786
   40MOL   H18848065   0.364   2.343   1.758 -0.3980 -3.4198  2.6471
   40MOL   H18948066   0.491   2.139   1.819 -2.3620  0.4670 -1.7081
   40MOL   H19048067   0.629   2.234   1.824 -0.9687  0.0668  2.0778
   40MOL   H19148068   0.588   2.301   1.574 -1.9188  1.9931  1.6361
   40MOL   H19248069   0.443   2.220   1.575 -1.2430  2.0484  2.4594
   40MOL   H19348070   0.729   2.104   1.582  0.9867 -2.2290  0.1779
   40MOL   H19448071   0.609   2.094   1.454 -0.5834 -0.4000 -0.3918
   40MOL   H19548072   0.588   1.942   1.720 -0.7180  2.7745  0.8970
   40MOL   H19648073   0.462   1.941   1.611 -0.5263 -0.8247 -0.3826
   40MOL   H19748074   0.611   1.827   1.445 -0.5458  0.2829  1.2621
   40MOL   H19848075   0.752   1.859   1.537  0.0875  2.0552  1.1892
   40MOL   H19948076   0.539   1.660   1.596  0.0192  1.0686  2.6219
   40MOL   H20048077   0.626   1.711   1.722  0.1593  0.1433  0.1965
   40MOL   H20148078   0.709   1.584   1.460 -1.7183  1.0577  0.8949
   40MOL   H20248079   0.844   1.632   1.565  0.8890 -1.5260  0.5626
   40MOL   H20348080   0.708   1.484   1.737 -2.0203 -2.0097 -1.4598
   41MOL     O148081   1.119   7.644   7.195  0.1588 -0.1749  0.2367
   41MOL     C248082   1.255   7.627   7.214 -0.7841 -0.2160  0.1924
   41MOL     C348083   1.309   7.748   7.284 -0.0468  0.2949 -0.6385
   41MOL     C448084   1.458   7.745   7.296  0.6744  0.3099  0.0227
   41MOL     C548085   1.519   0.126   7.342  0.1505  0.2166  0.0251
   41MOL     C648086   1.668   0.124   7.340  0.1293  0.2197 -0.0834
   41MOL     C748087   1.733   0.255   7.379  0.2760  0.3712  0.2653
   41MOL     C848088   1.883   0.246   7.363 -0.6582  0.4893 -0.3165
   41MOL     C948089   1.970   0.368   7.407 -0.8329 -0.0033 -0.6478
   41MOL    C1048090   2.100   0.371   7.317 -1.3755 -0.6320 -0.0181
   41MOL    C1148091   2.160   0.516   7.300 -0.4349  0.2176  0.4507
   41MOL    O1248092   2.194   0.571   7.423  0.5531  0.1594  0.2192
   41MOL    C1348093   2.148   0.689   7.458 -0.5501 -0.0713 -0.0523
   41MOL    O1448094   2.067   0.748   7.390  0.0997 -0.6843  0.8916
   41MOL    C1548095   2.184   0.742   7.593 -0.2385 -0.1110  0.0828
   41MOL    C1648096   2.277   0.865   7.576 -0.6026 -0.3932 -0.2815
   41MOL    C1748097   2.421   0.832   7.556  0.4881 -0.5026  0.3714
   41MOL    C1848098   2.498   0.957   7.519 -0.9149 -0.3776  0.4125
   41MOL    C1948099   2.646   0.924   7.502  0.5833  0.3292  0.5393
   41MOL    C2048100   2.733   1.050   7.494  0.4024 -0.5841 -0.1017
   41MOL    C2148101   2.724   1.113   7.356  0.1651  0.2222 -0.5643
   41MOL    C2248102   2.781   1.260   7.354  0.3491  0.2310  0.1311
   41MOL    C2348103   2.699   1.353   7.268  0.2200 -0.3270 -0.0053
   41MOL    O2448104   2.663   1.461   7.311  0.1618 -0.0262  0.1992
   41MOL    H2548105   1.267   7.542   7.281 -0.4520  1.2086  1.9871
   41MOL    H2648106   1.304   7.598   7.121  2.2296 -1.2866  2.0302
   41MOL    H2748107   1.278   0.076   7.222 -1.0178 -0.6691 -1.4741
   41MOL    H2848108   1.266   7.750   7.384  0.0443  1.3156 -0.6060
   41MOL    H2948109   1.488   7.666   7.366 -0.5509  0.2144  0.4431
   41MOL    H3048110   1.498   7.720   7.198  1.5224  0.2394  0.3791
   41MOL    H3148111   1.477   0.201   7.275  1.5131  0.3992 -0.6319
   41MOL    H3248112   1.482   0.152   7.441 -0.8704  0.1974 -0.3397
   41MOL    H3348113   1.706   0.092   7.243 -0.6055 -1.3136  0.1204
   41MOL    H3448114   1.711   0.052   7.410  1.7165  1.2398  0.0136
   41MOL    H3548115   1.702   0.281   7.480 -0.9083  1.1634 -0.2851
   41MOL    H3648116   1.698   0.323   7.301 -0.9045 -1.4003 -0.8175
   41MOL    H3748117   1.897   0.237   7.255  1.1957  0.2824 -0.0618
   41MOL    H3848118   1.929   0.157   7.405 -0.0843  0.4449 -1.0272
   41MOL    H3948119   1.994   0.357   7.513 -2.0228 -4.0083 -0.7109
   41MOL    H4048120   1.914   0.459   7.383  0.2717  0.2754 -2.2556
   41MOL    H4148121   2.183   0.319   7.365  0.0872  1.0494 -0.6467
   41MOL    H4248122   2.089   0.333   7.216  2.6806  3.2376 -2.0928
   41MOL    H4348123   2.257   0.501   7.252 -0.1339 -0.2578  1.2141
   41MOL    H4448124   2.115   0.579   7.223  1.7557 -0.6051 -1.5781
   41MOL    H4548125   2.231   0.665   7.655  0.4716  0.0657 -0.2406
   41MOL    H4648126   2.090   0.767   7.642  0.1757 -0.9978  1.3728
   41MOL    H4748127   2.266   0.935   7.659  1.1688  0.7132 -0.9495
   41MOL    H4848128   2.242   0.932   7.498 -2.0102 -0.8959 -0.1023
   41MOL    H4948129   2.438   0.758   7.479  2.6210  0.2743  0.0737
   41MOL    H5048130   2.465   0.796   7.649  0.8620  1.0718  0.8372
   41MOL    H5148131   2.489   1.028   7.602  4.2175 -1.2456  1.9338
   41MOL    H5248132   2.447   1.011   7.440 -1.8788 -0.2780  1.0946
   41MOL    H5348133   2.683   0.852   7.575  1.6322 -1.0397 -1.2998
   41MOL    H5448134   2.664   0.862   7.414 -0.2918  0.7486  0.0540
   41MOL    H5548135   2.720   1.128   7.569  3.5492  0.8564 -0.9871
   41MOL    H5648136   2.834   1.011   7.505  0.8173  0.8687  1.4416
   41MOL    H5748137   2.618   1.109   7.330  0.1754  0.3859 -0.6356
   41MOL    H5848138   2.781   1.061   7.279  0.9727  0.9317 -0.4479
   41MOL    H5948139   2.786   1.308   7.452 -0.0061  1.9234 -0.6620
   41MOL    H6048140   2.880   1.250   7.312  0.5981 -1.8181  1.1394
   41MOL    H6148141   1.110   7.722   7.143 -0.7493 -0.8318 -0.6060
   41MOL    O6248142   2.683   1.313   7.140 -0.5323 -0.0121  0.2215
   41MOL    C6348143   2.612   1.404   7.052  0.0823 -0.4349 -0.1677
   41MOL    C6448144   2.463   1.364   7.029  0.3076  0.8367  0.1856
   41MOL    C6548145   2.400   1.459   6.917 -0.2130  0.1842 -0.0590
   41MOL    C6648146   2.257   1.407   6.884 -0.1133 -0.5182 -0.5144
   41MOL    C6748147   2.181   1.478   6.776  0.3206  0.7012  0.1618
   41MOL    C6848148   2.039   1.421   6.745  0.1540  0.0141 -0.3021
   41MOL    C6948149   1.963   1.500   6.636 -0.6987 -0.2830 -0.1553
   41MOL    C7048150   1.949   1.649   6.672  0.0594  0.4374  0.8770
   41MOL    C7148151   1.848   1.695   6.777  0.2485  0.1412 -0.4741
   41MOL    C7248152   1.888   1.666   6.922  0.8983  0.0384  1.0427
   41MOL    O7348153   2.009   1.741   6.971  0.1893 -0.2621 -0.0365
   41MOL    C7448154   2.054   1.735   7.107 -0.0168 -0.1910 -0.1110
   41MOL    O7548155   1.982   1.707   7.200  0.3195  0.0548 -0.2601
   41MOL    C7648156   2.197   1.790   7.122  0.1698  0.0767  0.1985
   41MOL    C7748157   2.219   1.883   7.240 -0.7690 -0.5535 -0.4081
   41MOL    C7848158   2.258   1.817   7.376 -0.5961  0.7969 -0.0878
   41MOL    C7948159   2.319   1.923   7.468 -0.2002  0.4795 -1.4130
   41MOL    C8048160   2.344   1.862   7.609 -0.2625 -0.4685  0.0711
   41MOL    C8148161   2.399   1.967   7.707 -0.2848  0.0479 -0.4934
   41MOL    C8248162   2.379   1.912   0.091  0.3107  0.6664  0.3136
   41MOL    C8348163   2.458   1.991   0.192  0.5259  0.2504 -0.2290
   41MOL    C8448164   2.414   1.976   0.334 -0.3489  0.1523  0.1141
   41MOL    O8548165   2.311   1.922   0.362  0.2234  0.2457  0.5034
   41MOL    H8648166   2.613   1.509   7.082 -0.7559 -0.0745 -1.3348
   41MOL    H8748167   2.671   1.419   6.962 -1.1049 -0.0576 -0.8936
   41MOL    H8848168   2.452   1.256   7.017  0.9125  0.6801  1.0065
   41MOL    H8948169   2.393   1.375   7.112 -1.0157 -1.1740 -0.6364
   41MOL    H9048170   2.394   1.556   6.966  3.5293 -0.0827  1.1293
   41MOL    H9148171   2.467   1.467   6.831  1.5150  3.7121  1.5148
   41MOL    H9248172   2.269   1.305   6.849 -0.2584 -1.6682  2.6338
   41MOL    H9348173   2.205   1.393   6.978 -2.1215  0.2296 -1.4752
   41MOL    H9448174   2.242   1.481   6.686 -0.6281  1.1713 -0.4795
   41MOL    H9548175   2.172   1.582   6.806  1.2109  1.2396 -1.3943
   41MOL    H9648176   1.987   1.411   6.840  1.1153 -3.0822 -0.0446
   41MOL    H9748177   2.059   1.319   6.712  1.8643  0.8615 -1.9794
   41MOL    H9848178   1.861   1.463   6.622 -0.3492 -1.1303 -0.4360
   41MOL    H9948179   2.012   1.490   6.539 -0.3247 -3.0291  0.2726
   41MOL   H10048180   1.915   1.697   6.580 -2.5307 -0.3934  1.3700
   41MOL   H10148181   2.042   1.699   6.696 -0.0080  1.1934 -0.3866
   41MOL   H10248182   1.818   1.800   6.775 -0.5399 -0.0460  0.6361
   41MOL   H10348183   1.758   1.645   6.740  0.9701 -0.5962 -1.2715
   41MOL   H10448184   1.797   1.692   6.976 -0.9965  1.3971 -2.6375
   41MOL   H10548185   1.911   1.562   6.945  2.2591  0.3316  1.0295
   41MOL   H10648186   2.210   1.836   7.024 -0.8988 -0.4686 -0.2025
   41MOL   H10748187   2.270   1.709   7.113  0.0668  0.1877 -1.9132
   41MOL   H10848188   2.137   1.953   7.259  0.2697  0.1898  1.4535
   41MOL   H10948189   2.298   1.947   7.200 -2.1058  0.7270 -1.0550
   41MOL   H11048190   2.344   1.752   7.363 -0.6648  0.5527  0.6536
   41MOL   H11148191   2.173   1.768   7.424 -0.9904  0.1747 -1.3980
   41MOL   H11248192   2.251   2.008   7.476 -0.6437  0.0139 -0.1720
   41MOL   H11348193   2.409   1.971   7.429 -0.3936  2.3371  0.3234
   41MOL   H11448194   2.245   1.836   7.646 -0.3811 -0.4880 -0.2599
   41MOL   H11548195   2.404   1.772   7.593  0.6822  0.5060 -2.0821
   41MOL   H11648196   2.505   1.989   7.691 -0.0523 -0.9671 -0.3723
   41MOL   H11748197   2.344   2.060   7.693 -1.3699 -0.4730  0.2823
   41MOL   H11848198   2.401   1.805   0.088 -0.8711  0.4430 -0.5861
   41MOL   H11948199   2.272   1.915   0.112  0.2161 -0.4489  0.0307
   41MOL   H12048200   2.558   1.950   0.178  0.6117 -0.0158  1.0159
   41MOL   H12148201   2.454   2.095   0.162 -0.6627  0.1170 -0.5375
   41MOL   O12248202   2.495   2.028   0.421  0.4763 -0.3360 -0.4473
   41MOL   C12348203   2.477   2.002   0.557 -0.6220  0.7461 -0.0067
   41MOL   C12448204   2.365   2.085   0.623 -0.1014  0.2589  0.0542
   41MOL   C12548205   2.362   2.227   0.574  0.2760  0.2121  0.0529
   41MOL   C12648206   2.274   2.321   0.653 -0.4087 -0.3188  0.3207
   41MOL   C12748207   2.246   2.455   0.573  0.2626 -0.2342  0.1614
   41MOL   C12848208   2.360   2.557   0.581  0.6474 -0.2133  0.1814
   41MOL   C12948209   2.361   2.676   0.486  0.0400  0.0325 -0.2045
   41MOL   C13048210   2.466   2.781   0.512  1.2160  0.3019 -0.2257
   41MOL   C13148211   2.420   2.922   0.470  0.4978 -0.2519 -0.2846
   41MOL   C13248212   2.521   3.031   0.519 -0.2475  0.0510 -0.8754
   41MOL   O13348213   2.460   3.157   0.499  0.0370  0.1565 -0.3355
   41MOL   C13448214   2.521   3.267   0.545 -0.0614 -0.6392  0.6005
   41MOL   O13548215   2.628   3.263   0.606  0.0158  1.0291 -0.6214
   41MOL   C13648216   2.444   3.398   0.526 -0.5604  0.8325 -0.8383
   41MOL   C13748217   2.455   3.470   0.385 -0.7044 -0.3948 -0.0319
   41MOL   C13848218   2.590   3.518   0.324 -0.0902  0.3236 -0.0832
   41MOL   C13948219   2.679   3.403   0.286 -0.3699 -0.2878  0.6778
   41MOL   C14048220   2.786   3.433   0.181 -1.0735  0.5321  0.2148
   41MOL   C14148221   2.879   3.310   0.175 -0.2904 -0.0248  0.8968
   41MOL   C14248222   3.001   3.327   0.080  0.3728  0.1109  0.3505
   41MOL   C14348223   3.089   3.206   0.075 -0.6613 -0.4595 -0.5158
   41MOL   C14448224   3.209   3.235   7.742  0.0481  0.4634  0.2028
   41MOL   O14548225   3.209   3.202   7.620  0.6512 -0.3504  0.4264
   41MOL   H14648226   2.442   1.898   0.564 -1.5027  1.1656  2.3256
   41MOL   H14748227   2.572   2.008   0.610  0.1331 -1.1724 -1.1117
   41MOL   H14848228   2.273   2.036   0.589  0.5301 -1.7032  1.0870
   41MOL   H14948229   2.384   2.070   0.730 -3.5213 -0.4024  0.6553
   41MOL   H15048230   2.463   2.267   0.586 -0.3929  2.1872 -0.6399
   41MOL   H15148231   2.335   2.233   0.469 -0.8315  1.6795  0.4024
   41MOL   H15248232   2.181   2.266   0.667  0.6455 -1.8382  1.4888
   41MOL   H15348233   2.318   2.348   0.749 -1.6328 -2.1998  1.4440
   41MOL   H15448234   2.166   2.515   0.617 -0.2138 -0.5158 -0.3105
   41MOL   H15548235   2.218   2.437   0.469 -0.4245 -0.6484  0.4163
   41MOL   H15648236   2.455   2.506   0.566  1.5212  1.3282  0.3011
   41MOL   H15748237   2.360   2.590   0.685  1.1543 -1.0452  0.4564
   41MOL   H15848238   2.266   2.727   0.505  0.0780  0.5916 -1.4003
   41MOL   H15948239   2.364   2.634   0.385 -0.4109  2.0966 -1.1206
   41MOL   H16048240   2.552   2.759   0.449 -0.3891  2.3580 -3.2168
   41MOL   H16148241   2.495   2.781   0.617  0.8409  1.0043 -0.1217
   41MOL   H16248242   2.406   2.927   0.362  1.8319  0.6313 -0.4256
   41MOL   H16348243   2.321   2.941   0.513  0.9342 -1.8926  1.5241
   41MOL   H16448244   2.527   3.015   0.627 -3.9748  0.0354 -0.5789
   41MOL   H16548245   2.620   3.023   0.476  0.2799 -0.3571  0.3882
   41MOL   H16648246   2.489   3.459   0.605  1.8385  0.4272 -1.8621
   41MOL   H16748247   2.341   3.377   0.555  0.1541 -0.5267  0.8021
   41MOL   H16848248   2.392   3.559   0.382  1.9735  1.5297 -1.3287
   41MOL   H16948249   2.408   3.406   0.311  1.4465 -1.3736 -0.5835
   41MOL   H17048250   2.643   3.583   0.393 -0.8793  0.7621  0.1205
   41MOL   H17148251   2.562   3.577   0.236  1.7858 -0.9103 -1.5578
   41MOL   H17248252   2.610   3.323   0.257 -2.4188  1.0940  1.6201
   41MOL   H17348253   2.726   3.356   0.372 -0.5808 -2.3228 -0.2912
   41MOL   H17448254   2.746   3.455   0.081  0.2924  1.8375 -0.0687
   41MOL   H17548255   2.840   3.525   0.203 -2.4198  1.5392 -0.5360
   41MOL   H17648256   2.906   3.283   0.277 -0.3726 -3.7326  0.0117
   41MOL   H17748257   2.820   3.222   0.148 -0.8618  0.0870  1.7389
   41MOL   H17848258   3.062   3.411   0.113  0.5929 -0.3365  1.0805
   41MOL   H17948259   2.962   3.340   7.735 -1.5562  0.3552  1.0908
   41MOL   H18048260   3.120   3.172   0.174  0.7020  2.7893  0.2530
   41MOL   H18148261   3.034   3.126   0.026  1.2957 -2.4373  0.4117
   41MOL   O18248262   3.308   3.294   0.048  0.4867  0.0142 -0.4945
   41MOL   C18348263   3.440   3.285   0.006 -0.0149 -0.3706 -1.0948
   41MOL   C18448264   3.515   3.402   0.072  0.4984 -0.4753 -0.2992
   41MOL   C18548265   3.470   3.544   0.024 -0.0047 -0.6986 -0.4457
   41MOL   C18648266   3.540   3.651   0.109  0.3886 -0.3920  0.1673
   41MOL   C18748267   3.484   3.793   0.082  0.5349  0.0593  0.5175
   41MOL   C18848268   3.551   3.900   0.169  0.0146 -0.4142  0.6384
   41MOL   C18948269   3.502   4.043   0.122  0.2745 -0.6228  0.1795
   41MOL   C19048270   3.551   4.164   0.205  0.0935  0.7798 -0.2129
   41MOL   C19148271   3.526   4.297   0.138 -0.4916 -0.2105 -0.1320
   41MOL   C19248272   3.383   4.343   0.149 -0.4858  0.4077 -0.0325
   41MOL   O19348273   3.342   4.361   0.283  0.8021 -0.1597 -0.6866
   41MOL   C19448274   3.336   4.479   0.340 -0.2059  0.2001  0.0528
   41MOL   O19548275   3.372   4.586   0.287  0.2328 -0.0255 -0.0844
   41MOL   C19648276   3.280   4.482   0.479 -0.1657  0.3829  0.5981
   41MOL   C19748277   3.378   4.424   0.583 -0.3093 -0.0680  0.0993
   41MOL   C19848278   3.507   4.497   0.609  0.4715  0.0466  0.4106
   41MOL   C19948279   3.597   4.444   0.729  0.4145 -0.9253 -0.3675
   41MOL   C20048280   3.540   4.516   0.852 -0.2979  0.1814  0.1510
   41MOL   C20148281   3.628   4.527   0.976  0.3504  0.0907 -0.6565
   41MOL   C20248282   3.574   4.623   1.083 -0.6792  0.6426  0.4631
   41MOL   C20348283   3.682   4.667   1.196  0.0593 -0.0073  0.2959
   41MOL   C20448284   3.802   4.740   1.144  0.4478 -0.0190 -0.2731
   41MOL   O20548285   3.918   4.734   1.188 -0.3060  0.3249  0.0511
   41MOL   H20648286   3.464   3.185   0.042 -0.8441 -0.4920 -0.8693
   41MOL   H20748287   3.457   3.283   7.655 -0.2806  2.4924 -1.2438
   41MOL   H20848288   3.503   3.403   0.180  1.7221 -0.9626 -0.1577
   41MOL   H20948289   3.622   3.389   0.059  0.1615 -0.8800 -3.0641
   41MOL   H21048290   3.490   3.561   7.675  1.3268  1.2964  0.0914
   41MOL   H21148291   3.365   3.554   0.049  0.5859  0.4511  1.7259
   41MOL   H21248292   3.523   3.623   0.213  1.8786  1.1919  0.8579
   41MOL   H21348293   3.647   3.652   0.089  0.2597  2.2410 -0.6042
   41MOL   H21448294   3.377   3.798   0.104  0.6875  2.6646  0.7195
   41MOL   H21548295   3.494   3.828   7.736 -0.9730  3.7086  1.5539
   41MOL   H21648296   3.659   3.901   0.151  0.3445 -1.6041  2.3884
   41MOL   H21748297   3.531   3.869   0.272  1.4802 -0.7184  0.8462
   41MOL   H21848298   3.394   4.052   0.114  0.4409 -0.7158 -3.0057
   41MOL   H21948299   3.545   4.056   0.022  1.2890 -0.6678  0.6034
   41MOL   H22048300   3.658   4.145   0.215  0.1403  0.4903 -1.2384
   41MOL   H22148301   3.504   4.171   0.303 -1.8920  2.3617 -1.2558
   41MOL   H22248302   3.585   4.377   0.183  0.4009 -0.7403 -0.3648
   41MOL   H22348303   3.550   4.287   0.032  1.0908 -2.8811  0.4364
   41MOL   H22448304   3.359   4.426   0.082 -4.4487 -1.6126 -1.2915
   41MOL   H22548305   3.319   4.265   0.107  0.9628 -0.1127 -1.3383
   41MOL   H22648306   3.191   4.418   0.479 -0.2435  0.4827  1.4428
   41MOL   H22748307   3.251   4.583   0.509 -2.0783 -0.4118  1.5265
   41MOL   H22848308   3.404   4.320   0.563  0.0551 -0.1110  0.7786
   41MOL   H22948309   3.313   4.431   0.671 -0.8565 -2.4842 -0.0762
   41MOL   H23048310   3.477   4.601   0.628 -0.4532  0.1721 -1.5858
   41MOL   H23148311   3.565   4.486   0.517 -0.8268  0.0696 -0.4372
   41MOL   H23248312   3.701   4.474   0.716  0.5934 -1.6605 -0.5958
   41MOL   H23348313   3.596   4.336   0.739 -3.0687 -0.7040  2.7961
   41MOL   H23448314   3.519   4.620   0.826 -0.8387  0.3342  1.1642
   41MOL   H23548315   3.441   4.478   0.877 -0.4400  0.7003  0.3709
   41MOL   H23648316   3.646   4.426   1.013  0.0100 -0.1430 -1.1238
   41MOL   H23748317   3.727   4.559   0.945  0.5479  0.4907  0.3912
   41MOL   H23848318   3.478   4.591   1.124 -2.2669  0.0060 -3.5689
   41MOL   H23948319   3.552   4.719   1.038  0.2666  0.8758  0.4827
   41MOL   H24048320   3.623   4.736   1.256 -0.8209  0.0942 -0.6636
   41MOL   H24148321   3.714   4.589   1.265 -0.7222  0.1355  0.8235
   41MOL   O24248322   3.772   4.825   1.044  0.5156 -0.3121 -0.0662
   41MOL   C24348323   3.874   4.894   0.967  0.0305 -0.0165  0.1098
   41MOL   C24448324   3.901   4.821   0.835  0.3070  0.1621 -0.4707
   41MOL   C24548325   3.766   4.798   0.756 -0.1041 -0.2044  0.2443
   41MOL   C24648326   3.773   4.765   0.607 -0.1352  0.5005  0.1507
   41MOL   C24748327   3.818   4.876   0.517 -0.6662  0.2407  0.0258
   41MOL   C24848328   3.819   4.860   0.365 -0.6430  0.2586 -0.1101
   41MOL   C24948329   3.681   4.832   0.305  0.1084  0.3095 -0.0544
   41MOL   C25048330   3.695   4.785   0.157 -0.0281 -0.2499  0.2560
   41MOL   C25148331   3.565   4.766   0.089 -0.0502 -0.4966 -0.2968
   41MOL   C25248332   3.580   4.693   7.714  0.4558 -0.2307  0.5878
   41MOL   O25348333   3.660   4.771   7.618 -0.5351  0.3335  0.9014
   41MOL   C25448334   3.605   4.875   7.556 -0.0746  0.3064 -0.1724
   41MOL   O25548335   3.490   4.909   7.552 -0.4779 -0.3918 -0.3689
   41MOL   C25648336   3.709   4.949   7.467  1.1978  0.0198 -0.3111
   41MOL   C25748337   3.832   5.000   7.545 -0.0368  0.5127 -0.0098
   41MOL   C25848338   3.955   5.024   7.456  0.0011 -0.5057  0.1501
   41MOL   C25948339   4.054   5.128   7.512  0.4437  0.5992  0.4681
   41MOL   C26048340   4.168   5.175   7.418 -0.4758  0.3204  0.0160
   41MOL   C26148341   4.237   5.051   7.360 -0.2950  0.0350 -0.0576
   41MOL   C26248342   4.315   4.959   7.460 -0.0058  0.2622  0.6708
   41MOL   C26348343   4.373   4.835   7.390  0.0167  0.4638 -0.1187
   41MOL   C26448344   4.519   4.845   7.335  0.7265  0.1951  0.1026
   41MOL   O26548345   4.618   4.832   7.412 -0.0484 -0.1349 -0.0718
   41MOL   H26648346   3.828   4.991   0.950 -1.0996 -0.5492  0.0465
   41MOL   H26748347   3.971   4.909   1.014 -0.0688 -0.3629  0.4240
   41MOL   H26848348   3.964   4.887   0.774 -0.0409  0.2890 -0.6938
   41MOL   H26948349   3.950   4.725   0.853  1.4934  0.6684 -0.9522
   41MOL   H27048350   3.720   4.712   0.804 -0.4305  0.5121  1.2387
   41MOL   H27148351   3.697   4.882   0.767 -0.1757 -0.2316  0.0049
   41MOL   H27248352   3.837   4.680   0.587  0.0696  0.9619 -1.2193
   41MOL   H27348353   3.671   4.733   0.587 -0.6129  1.3167  1.1894
   41MOL   H27448354   3.917   4.916   0.539 -0.2905 -1.3976  1.3742
   41MOL   H27548355   3.768   4.970   0.543 -1.0348  0.5469 -1.6929
   41MOL   H27648356   3.878   4.769   0.351 -1.7375 -0.4687 -0.0302
   41MOL   H27748357   3.887   4.934   0.324 -0.1948  0.8129  1.6028
   41MOL   H27848358   3.622   4.923   0.319  1.5373  1.1047  1.0183
   41MOL   H27948359   3.627   4.774   0.379  0.2490  0.0467 -0.1569
   41MOL   H28048360   3.758   4.696   0.155 -0.1288 -0.2871 -2.9422
   41MOL   H28148361   3.753   4.855   0.097  0.5416 -1.1321 -0.2339
   41MOL   H28248362   3.507   4.709   0.162 -0.4146 -0.3189 -0.4445
   41MOL   H28348363   3.502   4.852   0.066  0.7647  0.3158  0.4320
   41MOL   H28448364   3.621   4.593   7.726  1.0401  0.0853  1.3089
   41MOL   H28548365   3.485   4.661   7.671  1.9493 -2.9863 -0.7936
   41MOL   H28648366   3.651   5.023   7.413  0.4304 -0.5047 -0.2194
   41MOL   H28748367   3.740   4.879   7.389  0.3003 -0.3879 -0.3180
   41MOL   H28848368   3.857   4.931   7.625  0.5195  0.0424 -0.5873
   41MOL   H28948369   3.812   5.093   7.598  0.7959  0.4972  0.3462
   41MOL   H29048370   3.935   5.043   7.351  1.2154  2.0829  0.3363
   41MOL   H29148371   4.006   4.928   7.450 -0.5862 -0.8626  0.7137
   41MOL   H29248372   4.101   5.094   7.605 -1.7500  1.2346  1.8637
   41MOL   H29348373   4.003   5.219   7.541  0.5339  0.7094  0.2825
   41MOL   H29448374   4.109   5.219   7.338 -1.4809  1.3463  1.3119
   41MOL   H29548375   4.238   5.234   7.477 -0.8950  0.0715  0.7689
   41MOL   H29648376   4.158   4.998   7.308 -0.5184 -0.6530  0.9711
   41MOL   H29748377   4.302   5.088   7.281 -0.2936 -1.6977 -0.8815
   41MOL   H29848378   4.253   4.923   7.542  0.0112 -3.3814 -0.7849
   41MOL   H29948379   4.393   5.008   7.519  1.6118 -0.8990 -0.4653
   41MOL   H30048380   4.369   4.748   7.456  0.9932 -0.1256 -0.8118
   41MOL   H30148381   4.312   4.799   7.307 -0.1594 -0.7717  0.5292
   41MOL   O30248382   4.520   4.867   7.206 -0.6173 -0.1347 -0.3940
   41MOL   C30348383   4.638   4.855   7.128  0.0347  0.6132  0.4567
   41MOL   C30448384   4.648   4.963   7.022 -0.2468  0.6799 -0.5167
   41MOL   C30548385   4.693   5.091   7.093 -0.3862 -0.0835 -0.1034
   41MOL   C30648386   4.681   5.223   7.009  0.2977 -0.6415  0.7241
   41MOL   C30748387   4.780   5.322   7.061  0.2007 -0.3211  0.2269
   41MOL   C30848388   4.751   5.474   7.040  0.0966 -0.1186  0.2804
   41MOL   C30948389   4.856   5.569   7.103 -0.0286  0.8929  0.3052
   41MOL   C31048390   4.826   5.717   7.094 -0.3951 -0.7254 -0.7216
   41MOL   C31148391   4.802   5.793   6.964 -0.3571  0.1852 -0.0324
   41MOL   C31248392   4.800   5.944   6.977 -0.0585 -0.5869 -0.0335
   41MOL   O31348393   4.810   6.001   6.850  0.5726 -0.3709 -0.3198
   41MOL   C31448394   4.702   6.065   6.801 -0.1830  0.6073 -0.0554
   41MOL   O31548395   4.596   6.091   6.857  0.0644 -0.2485  0.4641
   41MOL   C31648396   4.724   6.113   6.658 -0.2565  0.0028 -0.7301
   41MOL   C31748397   4.596   6.096   6.576 -0.0961  0.2734  0.0192
   41MOL   C31848398   4.551   5.951   6.547  0.2636  0.0506 -0.3737
   41MOL   C31948399   4.652   5.866   6.455 -0.4982  0.8460 -0.3436
   41MOL   C32048400   4.629   5.718   6.460  0.3191  1.1672 -0.2203
   41MOL   C32148401   4.729   5.636   6.381 -0.1164  0.7147 -0.6520
   41MOL   C32248402   4.723   5.492   6.427 -0.5423  0.2751 -0.0679
   41MOL   C32348403   4.791   5.461   6.564  0.1750  0.3792  0.3630
   41MOL   C32448404   4.913   5.370   6.560  0.1331 -0.4573  0.0747
   41MOL   O32548405   5.026   5.411   6.545 -0.3796 -0.0708  0.1477
   41MOL   H32648406   4.727   4.856   7.191  0.4882 -0.3800 -0.1582
   41MOL   H32748407   4.632   4.763   7.071  0.7510  1.1242 -0.4685
   41MOL   H32848408   4.713   4.929   6.942 -0.9537 -1.4729 -0.2096
   41MOL   H32948409   4.545   4.970   6.987 -0.5065  2.0144  0.4450
   41MOL   H33048410   4.628   5.112   7.178 -0.1722 -1.3380  0.3816
   41MOL   H33148411   4.797   5.089   7.125 -0.6939 -1.0717  0.8614
   41MOL   H33248412   4.712   5.205   6.906  2.6546  1.5879  1.0035
   41MOL   H33348413   4.579   5.261   7.016  0.2103 -0.7690  0.1564
   41MOL   H33448414   4.870   5.288   7.010 -0.1689 -0.9683  0.0021
   41MOL   H33548415   4.799   5.310   7.167  2.2246  2.0273  0.1898
   41MOL   H33648416   4.653   5.500   7.081  0.0340  0.4441 -0.2078
   41MOL   H33748417   4.749   5.498   6.933 -1.5960 -0.3728  0.2456
   41MOL   H33848418   4.953   5.555   7.055 -0.4211 -0.6098 -0.0968
   41MOL   H33948419   4.880   5.538   7.205 -1.9431  0.4952  0.6677
   41MOL   H34048420   4.887   5.778   7.160 -1.3673  0.9212 -1.3155
   41MOL   H34148421   4.728   5.738   7.138 -0.6166 -0.1377 -1.4878
   41MOL   H34248422   4.880   5.755   6.898 -1.4230 -2.7863  0.3168
   41MOL   H34348423   4.712   5.759   6.913  1.8174 -1.3221 -3.0064
   41MOL   H34448424   4.717   5.986   7.034 -0.8348 -0.0677 -1.5243
   41MOL   H34548425   4.886   5.972   7.037  0.0344 -0.0948 -0.3986
   41MOL   H34648426   4.814   6.070   6.614 -0.4697 -0.6611 -0.5238
   41MOL   H34748427   4.741   6.220   6.669 -0.0453 -0.3057  2.3089
   41MOL   H34848428   4.613   6.154   6.485  2.0239 -3.3151 -1.9806
   41MOL   H34948429   4.502   6.130   6.620 -0.9886 -0.9485 -0.9339
   41MOL   H35048430   4.451   5.944   6.505  1.7892  0.0236 -4.1555
   41MOL   H35148431   4.550   5.886   6.635  0.1192  0.2582 -0.2215
   41MOL   H35248432   4.755   5.877   6.490  0.0191 -1.8094 -0.9287
   41MOL   H35348433   4.636   5.898   6.352 -1.7849 -0.5960 -0.6030
   41MOL   H35448434   4.640   5.702   6.567  1.0508  0.2291 -0.4359
   41MOL   H35548435   4.525   5.691   6.438  0.5260  0.5516 -0.4461
   41MOL   H35648436   4.699   5.650   6.277 -4.2876  1.7137  0.5974
   41MOL   H35748437   4.832   5.670   6.386  0.0939  0.2684 -1.8801
   41MOL   H35848438   4.755   5.416   6.356 -3.9504  0.2632 -1.7076
   41MOL   H35948439   4.616   5.470   6.437 -0.3440  0.1518  2.0760
   41MOL   H36048440   4.818   5.556   6.610  0.8624  0.2732  0.1865
   41MOL   H36148441   4.727   5.405   6.633 -0.5583 -1.0118 -1.4004
   41MOL   O36248442   4.881   5.233   6.563  0.4711 -0.9138 -0.4344
   41MOL   C36348443   4.979   5.138   6.546  0.5648  0.1981 -0.5746
   41MOL   C36448444   4.963   5.003   6.625  0.0645  0.0551  0.2344
   41MOL   C36548445   4.977   5.018   6.781 -0.2734 -0.2159  0.4266
   41MOL   C36648446   4.991   4.880   6.851 -0.4390 -0.1632 -0.0340
   41MOL   C36748447   5.027   4.886   7.005  0.0515 -0.2929 -0.4437
   41MOL   C36848448   5.009   4.745   7.070  0.8755 -0.2220  0.2461
   41MOL   C36948449   5.029   4.741   7.224  0.3966  0.1042  0.2863
   41MOL   C37048450   5.042   4.599   7.297  0.2064  0.0420 -0.1692
   41MOL   C37148451   5.179   4.536   7.265  0.2187 -0.2330 -0.4625
   41MOL   C37248452   5.201   4.409   7.350  0.7448 -1.0406 -0.0132
   41MOL   O37348453   5.234   4.463   7.481  0.0893 -0.6682  0.5096
   41MOL   C37448454   5.218   4.388   7.587 -0.2609 -0.2692  0.4215
   41MOL   O37548455   5.193   4.268   7.592 -0.0787  0.4882  0.0187
   41MOL   C37648456   5.214   4.464   7.714  0.6097 -0.1409  0.6113
   41MOL   C37748457   5.327   4.430   0.049  0.2465 -0.1839 -0.2611
   41MOL   C37848458   5.323   4.287   0.104 -0.2539 -0.2716 -0.1411
   41MOL   C37948459   5.410   4.270   0.237  0.3472  0.1933 -0.1818
   41MOL   C38048460   5.560   4.280   0.214  0.3670 -0.0539 -0.1171
   41MOL   C38148461   5.646   4.150   0.196 -0.2005  0.6874  0.2914
   41MOL   C38248462   5.605   4.061   0.082  0.1599  0.0938 -0.6847
   41MOL   C38348463   5.707   3.958   0.037  0.2397  0.4946  0.1975
   41MOL   C38448464   5.707   3.825   0.111  0.5277 -0.3700 -0.2198
   41MOL   O38548465   5.805   3.783   0.172 -0.2209 -0.4284 -0.3168
   41MOL   H38648466   4.990   5.108   6.442  0.9136 -1.1017 -0.1774
   41MOL   H38748467   5.076   5.179   6.577  0.1369  0.2901  0.6707
   41MOL   H38848468   4.867   4.960   6.599  0.6302 -1.6194  0.8310
   41MOL   H38948469   5.047   4.941   6.594  1.4024  1.8381  0.1786
   41MOL   H39048470   5.063   5.082   6.798 -0.4945  1.0019 -2.8539
   41MOL   H39148471   4.892   5.074   6.821 -0.2771 -1.2186  1.8890
   41MOL   H39248472   4.900   4.821   6.840 -0.7648  0.2165  0.5721
   41MOL   H39348473   5.064   4.827   6.791 -0.7238 -0.4801 -0.1047
   41MOL   H39448474   4.968   4.950   7.070 -1.0187  1.2565 -2.8981
   41MOL   H39548475   5.130   4.915   7.030 -0.5329  0.7160  0.8442
   41MOL   H39648476   5.089   4.681   7.034 -0.2115 -0.2458 -2.2050
   41MOL   H39748477   4.909   4.704   7.051  1.4458 -1.6842  0.3323
   41MOL   H39848478   4.959   4.811   7.269  1.3709  0.2280  1.6330
   41MOL   H39948479   5.118   4.795   7.256  1.9428 -2.9154  1.2957
   41MOL   H40048480   4.968   4.523   7.270  2.5657 -2.2618 -0.3039
   41MOL   H40148481   5.032   4.606   7.406 -0.5201  1.0442 -0.2892
   41MOL   H40248482   5.175   4.498   7.163 -0.6213 -2.8384  0.5057
   41MOL   H40348483   5.271   4.593   7.281 -0.1916  0.5778 -0.9256
   41MOL   H40448484   5.109   4.352   7.360 -0.2923  0.3595 -1.4528
   41MOL   H40548485   5.287   4.349   7.319  1.3780  0.1858 -0.6558
   41MOL   H40648486   5.122   4.428   0.003  1.1183 -2.2009  0.0948
   41MOL   H40748487   5.219   4.572   7.700  0.0602 -0.2295 -0.3308
   41MOL   H40848488   5.321   4.501   0.131  2.1306 -2.0990  1.6111
   41MOL   H40948489   5.421   4.460   0.003  0.4878  1.9190  1.5396
   41MOL   H41048490   5.350   4.204   0.038  0.1441 -0.9701  0.8927
   41MOL   H41148491   5.218   4.268   0.127 -0.2786 -1.0551 -0.8697
   41MOL   H41248492   5.376   4.175   0.280  1.8531 -0.2227  0.1112
   41MOL   H41348493   5.384   4.351   0.305  2.2541  0.0157  0.7838
   41MOL   H41448494   5.581   4.339   0.125 -1.6637  0.7864 -0.0538
   41MOL   H41548495   5.614   4.337   0.289  1.5216  0.0206 -0.9859
   41MOL   H41648496   5.748   4.187   0.187 -0.6546  2.1381  0.8927
   41MOL   H41748497   5.646   4.092   0.288 -1.0344  0.3807  0.1012
   41MOL   H41848498   5.581   4.128   7.756 -1.1616  2.2725  1.4278
   41MOL   H41948499   5.511   4.013   0.109 -0.2810  1.9180  1.1351
   41MOL   H42048500   5.691   3.911   7.697  1.0574 -2.0996  1.2763
   41MOL   H42148501   5.800   4.014   0.027  0.0581  0.4889 -1.6261
   41MOL   O42248502   5.581   3.774   0.121  0.1373 -0.1946 -0.0644
   41MOL   C42348503   5.562   3.655   0.197 -0.5663 -0.6989 -0.6060
   41MOL   C42448504   5.628   3.526   0.141  0.2491  0.2372 -0.1524
   41MOL   C42548505   5.541   3.405   0.180  0.3188 -0.5125  0.2651
   41MOL   C42648506   5.596   3.272   0.135  0.2805 -0.1369  0.7697
   41MOL   C42748507   5.524   3.148   0.202 -0.6724 -0.0920 -0.1641
   41MOL   C42848508   5.575   3.016   0.129 -0.0505 -0.0875 -0.4290
   41MOL   C42948509   5.494   2.895   0.175  0.1974 -0.1642  1.0853
   41MOL   C43048510   5.565   2.801   0.274  0.2141 -0.1215  0.9690
   41MOL   C43148511   5.707   2.760   0.235 -0.1096  0.0218  0.0582
   41MOL   C43248512   5.762   2.649   0.321 -0.0055  0.8857 -0.7257
   41MOL   O43348513   5.903   2.627   0.299 -0.3957 -0.4055 -0.4349
   41MOL   C43448514   5.947   2.505   0.262  0.6499 -0.3122  0.1259
   41MOL   O43548515   5.880   2.401   0.243  0.6432 -0.8944  0.2147
   41MOL   C43648516   6.098   2.485   0.270 -0.3175  0.2218 -0.1859
   41MOL   C43748517   6.191   2.583   0.198 -0.1543  0.0388  0.0962
   41MOL   C43848518   6.340   2.567   0.243 -0.2371 -0.7276  0.0526
   41MOL   C43948519   6.431   2.658   0.156 -0.1239  0.2905  0.0718
   41MOL   C44048520   6.582   2.628   0.163 -0.0116 -0.1546  0.3378
   41MOL   C44148521   6.663   2.744   0.087 -0.2118  0.7277 -0.1593
   41MOL   C44248522   6.814   2.731   0.080 -0.5166  0.7501 -0.2782
   41MOL   C44348523   6.901   2.838   0.007 -0.7316  0.3772  0.6783
   41MOL   C44448524   6.863   2.873   7.614 -0.5185  0.8828  0.1279
   41MOL   O44548525   6.791   2.799   7.544 -0.0383 -0.0329  0.1175
   41MOL   H44648526   5.602   3.669   0.297 -0.5058  1.4707 -0.9229
   41MOL   H44748527   5.454   3.646   0.187 -0.7240  3.7179 -4.1666
   41MOL   H44848528   5.644   3.525   0.033  1.3177 -1.1195 -0.0010
   41MOL   H44948529   5.733   3.526   0.168  0.7687 -0.7835 -2.0894
   41MOL   H45048530   5.521   3.407   0.287  3.6429 -1.1598  0.9320
   41MOL   H45148531   5.447   3.421   0.126  1.4169  0.0728 -1.5093
   41MOL   H45248532   5.582   3.276   0.027 -0.3746  1.0339  0.8863
   41MOL   H45348533   5.703   3.264   0.150  0.3672  1.8004  1.3227
   41MOL   H45448534   5.416   3.155   0.206 -0.6446  0.7476 -0.7524
   41MOL   H45548535   5.545   3.124   0.306  0.4009 -0.2881 -0.4200
   41MOL   H45648536   5.682   3.004   0.145 -0.6151 -0.6016  3.3860
   41MOL   H45748537   5.558   3.036   0.023 -0.9614 -2.8079 -0.8363
   41MOL   H45848538   5.481   2.843   0.080 -0.4599  2.0197 -0.0434
   41MOL   H45948539   5.396   2.927   0.210  0.8231  0.0266  2.7235
   41MOL   H46048540   5.516   2.705   0.289 -0.4638  0.0875  0.1685
   41MOL   H46148541   5.569   2.853   0.370 -0.8774  1.8540 -0.0152
   41MOL   H46248542   5.716   2.749   0.127  0.2965  0.6070  0.0357
   41MOL   H46348543   5.779   2.839   0.253 -1.9093  1.5790  0.5766
   41MOL   H46448544   5.743   2.687   0.421  0.6125  1.2076 -0.7241
   41MOL   H46548545   5.699   2.562   0.307 -0.2752  1.0756 -0.7066
   41MOL   H46648546   6.119   2.379   0.250 -0.8896  0.1427 -0.3702
   41MOL   H46748547   6.129   2.498   0.374  0.2966 -1.6656 -0.1137
   41MOL   H46848548   6.158   2.682   0.229  0.4641  0.4948 -0.6820
   41MOL   H46948549   6.190   2.560   0.091  1.5363 -0.5226  0.1741
   41MOL   H47048550   6.370   2.463   0.240 -2.0852 -1.2694 -0.5659
   41MOL   H47148551   6.345   2.595   0.348  0.7291 -0.7326  0.0074
   41MOL   H47248552   6.427   2.761   0.191  0.9108  0.1283  0.7046
   41MOL   H47348553   6.385   2.667   0.057 -1.4623  3.6673  0.9260
   41MOL   H47448554   6.623   2.626   0.263  1.0399 -2.7825 -0.1142
   41MOL   H47548555   6.596   2.531   0.116 -1.8910 -0.3089  0.0279
   41MOL   H47648556   6.615   2.739   7.745 -0.0380  1.6738 -0.2917
   41MOL   H47748557   6.637   2.837   0.137 -0.6541  0.7446 -0.4153
   41MOL   H47848558   6.832   2.638   0.026  2.0191  1.2468 -0.3863
   41MOL   H47948559   6.861   2.694   0.171  0.3164  0.8781 -0.6439
   41MOL   H48048560   6.875   2.932   0.054 -0.8068 -0.0136  1.4260
   41MOL   H48148561   7.007   2.813   0.020 -0.2172  1.1186 -1.8978
   41MOL   O48248562   6.915   2.994   7.578  0.2024  0.0059  0.0436
   41MOL   C48348563   6.882   3.050   7.441  0.6275  0.2371 -0.4700
   41MOL   C48448564   6.939   3.193   7.428  0.1408  0.0073 -0.2601
   41MOL   C48548565   6.923   3.277   7.554  0.2524 -0.5209 -0.0097
   41MOL   C48648566   6.926   3.433   7.516  0.2840  0.1424  0.1545
   41MOL   C48748567   6.931   3.521   7.647 -0.2591  0.6217 -0.5768
   41MOL   C48848568   6.947   3.674   7.616  0.1043  0.0523  0.7802
   41MOL   C48948569   6.817   3.721   7.541  0.1585 -0.1567 -0.5467
   41MOL   C49048570   6.836   3.869   7.493 -0.3132 -0.3580 -0.5331
   41MOL   C49148571   6.700   3.936   7.447 -0.5194 -0.5559  0.1696
   41MOL   C49248572   6.600   3.933   7.562 -0.5797  0.3947  0.1890
   41MOL   O49348573   6.482   3.998   7.522 -0.0612 -0.3334 -0.2179
   41MOL   C49448574   6.466   4.133   7.528 -0.4142 -0.4980  0.3427
   41MOL   O49548575   6.550   4.216   7.568  0.2902 -0.0957  0.0418
   41MOL   C49648576   6.342   4.174   7.455 -0.5206 -0.4199 -0.9384
   41MOL   C49748577   6.377   4.248   7.325 -0.1451 -0.1354  0.9589
   41MOL   C49848578   6.254   4.319   7.266  0.4086 -0.2419  0.1836
   41MOL   C49948579   6.151   4.221   7.209 -0.4182 -0.5489 -0.1580
   41MOL   C50048580   6.039   4.293   7.145 -0.2437 -0.6619  0.5120
   41MOL   C50148581   5.925   4.193   7.116 -0.5617 -0.2046 -0.5112
   41MOL   C50248582   5.810   4.257   7.040 -0.1591  0.2746 -0.4062
   41MOL   C50348583   5.737   4.372   7.117 -0.2057  0.0952 -0.2236
   41MOL   C50448584   5.622   4.335   7.198  0.5026 -0.6828  0.1999
   41MOL   O50548585   5.514   4.389   7.186  0.5363  0.1121  0.0139
   41MOL   H50648586   6.925   2.990   7.361  0.3686  0.6732 -0.9380
   41MOL   H50748587   6.773   3.049   7.429  0.5637  2.5627 -0.3343
   41MOL   H50848588   7.045   3.179   7.407  0.2979 -0.8352  0.9987
   41MOL   H50948589   6.888   3.238   7.343 -1.1017 -0.3037  0.3174
   41MOL   H51048590   6.825   3.268   7.601 -0.9551  0.8114 -2.1833
   41MOL   H51148591   6.997   3.255   7.630  0.5495  1.1082  0.1992
   41MOL   H51248592   7.009   3.472   7.457 -0.2930  0.9220 -0.1543
   41MOL   H51348593   6.844   3.465   7.451 -0.0159  3.6049  2.0913
   41MOL   H51448594   7.015   3.492   7.710  0.8149  3.0164 -0.8502
   41MOL   H51548595   6.842   3.497   7.705  0.7942 -0.7165  0.5320
   41MOL   H51648596   7.044   3.685   7.568  0.4489  0.5188  1.5683
   41MOL   H51748597   6.958   3.724   7.712  0.7887  3.2131 -0.8424
   41MOL   H51848598   6.730   3.706   7.605  0.3109 -1.8665 -0.7201
   41MOL   H51948599   6.798   3.654   7.457  2.3309 -1.7124  0.1370
   41MOL   H52048600   6.912   3.875   7.414  1.6764  0.4673  1.3787
   41MOL   H52148601   6.879   3.929   7.573  1.2035 -2.7949  0.5515
   41MOL   H52248602   6.723   4.038   7.415 -1.5391 -0.2117  0.5234
   41MOL   H52348603   6.650   3.888   7.364 -0.2408  1.3130 -1.1219
   41MOL   H52448604   6.569   3.831   7.587  1.0754  0.2952  1.9753
   41MOL   H52548605   6.640   3.986   7.649  1.9785  0.3235 -0.8998
   41MOL   H52648606   6.291   4.243   7.522 -1.1229  0.3476 -2.1808
   41MOL   H52748607   6.279   4.091   7.422 -0.5021 -0.3263 -1.2135
   41MOL   H52848608   6.415   4.180   7.248 -1.2095 -1.3055  1.4469
   41MOL   H52948609   6.461   4.317   7.335  1.0710 -1.4779  0.2662
   41MOL   H53048610   6.269   4.385   7.180 -0.2649 -0.4947 -0.1325
   41MOL   H53148611   6.206   4.388   7.335  1.3497 -0.5221  1.1293
   41MOL   H53248612   6.107   4.155   7.284 -2.9436  0.0534 -1.0699
   41MOL   H53348613   6.217   4.159   7.149  2.2544  1.0317  1.0382
   41MOL   H53448614   6.003   4.371   7.213 -0.9083 -2.5099  2.3390
   41MOL   H53548615   6.063   4.354   7.058  0.9933 -1.5004  0.2574
   41MOL   H53648616   5.967   4.114   7.055  1.8219  0.7636 -0.1925
   41MOL   H53748617   5.889   4.159   7.214  0.9253 -0.3758 -0.0146
   41MOL   H53848618   5.727   4.190   7.017 -0.6030  0.3702  0.8398
   41MOL   H53948619   5.861   4.294   6.952  3.9824 -1.7684  1.0261
   41MOL   H54048620   5.804   4.446   7.160 -0.2826  0.5241 -0.8370
   41MOL   H54148621   5.690   4.431   7.039 -2.4406 -1.7878 -0.3543
   41MOL   O54248622   5.654   4.244   7.286  0.8064 -0.5914 -0.2378
   41MOL   C54348623   5.561   4.181   7.365  0.3184 -0.6715  0.8528
   41MOL   C54448624   5.611   4.042   7.389 -0.2357 -0.5054 -0.0395
   41MOL   C54548625   5.631   3.954   7.264  0.5006 -0.2242 -0.8107
   41MOL   C54648626   5.689   3.813   7.290 -0.8632 -0.6329 -0.0290
   41MOL   C54748627   5.589   3.708   7.333 -0.4912 -0.5858  0.0344
   41MOL   C54848628   5.593   3.671   7.484 -0.0184  0.1569 -0.2115
   41MOL   C54948629   5.471   3.591   7.536 -0.2503  0.0763 -0.1912
   41MOL   C55048630   5.474   3.442   7.513 -0.2497  0.2124  0.4650
   41MOL   C55148631   5.439   3.383   7.378 -0.1163  1.0902 -0.1094
   41MOL   C55248632   5.372   3.244   7.385  0.1337 -0.5720  0.3209
   41MOL   O55348633   5.309   3.225   7.260  0.4754  0.1198  0.2851
   41MOL   C55448634   5.344   3.117   7.192 -0.3199 -0.4328 -0.4192
   41MOL   O55548635   5.404   3.026   7.237 -0.1021  0.0586  0.1311
   41MOL   C55648636   5.291   3.127   7.048  0.4429 -0.4751  1.4086
   41MOL   C55748637   5.376   3.201   6.939  0.4368 -0.0569  0.2031
   41MOL   C55848638   5.527   3.180   6.947  0.7116  0.0541  0.6506
   41MOL   C55948639   5.604   3.249   6.845 -0.0265  0.1127 -0.7544
   41MOL   C56048640   5.758   3.236   6.855  0.2736 -0.1021  0.0062
   41MOL   C56148641   5.840   3.338   6.782  0.6853  0.5552 -0.6895
   41MOL   C56248642   5.986   3.337   6.841  0.0603  0.0155  0.7016
   41MOL   C56348643   6.077   3.427   6.741  0.0409 -0.0208  0.4664
   41MOL   C56448644   6.208   3.359   6.707 -0.9010  0.1974 -0.1138
   41MOL   O56548645   6.213   3.268   6.626  0.4616 -0.0536 -0.1535
   41MOL   H56648646   5.547   4.228   7.462 -0.8827 -2.5353  1.6126
   41MOL   H56748647   5.461   4.190   7.322  1.1451  1.8179 -0.6678
   41MOL   H56848648   5.709   4.057   7.436 -1.0069  2.8556  0.6964
   41MOL   H56948649   5.542   4.007   7.466 -0.0750  3.7327  2.1873
   41MOL   H57048650   5.540   3.933   7.207  0.7445  1.8810 -2.0418
   41MOL   H57148651   5.701   4.003   7.195 -0.3056  1.5409 -0.4060
   41MOL   H57248652   5.718   3.780   7.190 -2.5444  1.5157 -1.2750
   41MOL   H57348653   5.776   3.810   7.357 -0.7023  2.0070 -0.0528
   41MOL   H57448654   5.618   3.618   7.278  0.6751 -0.8817  1.1037
   41MOL   H57548655   5.491   3.734   7.292 -0.9633  0.0619  1.5228
   41MOL   H57648656   5.593   3.761   7.545 -2.3329  2.7352 -3.7814
   41MOL   H57748657   5.687   3.620   7.501 -0.0597 -0.1096 -0.7767
   41MOL   H57848658   5.372   3.629   7.511 -1.5396 -0.6363  3.5312
   41MOL   H57948659   5.475   3.613   7.643 -1.2586  0.7656 -0.2879
   41MOL   H58048660   5.398   3.402   7.580 -1.5512  2.0862  0.1391
   41MOL   H58148661   5.571   3.399   7.538  0.7703  0.1392 -3.2987
   41MOL   H58248662   5.362   3.442   7.329  1.9010  3.2282 -0.8407
   41MOL   H58348663   5.527   3.365   7.315  1.3465 -0.3426  2.2743
   41MOL   H58448664   5.435   3.165   7.425 -1.0449 -0.5255  2.3531
   41MOL   H58548665   5.284   3.266   7.445 -1.3258 -1.0443 -1.6014
   41MOL   H58648666   5.192   3.173   7.044 -0.2962 -2.1672 -1.9121
   41MOL   H58748667   5.281   3.024   7.015 -0.4346 -0.3604  1.2985
   41MOL   H58848668   5.347   3.306   6.948 -0.7757 -0.2994 -0.7506
   41MOL   H58948669   5.331   3.163   6.847 -0.0426  1.2717 -0.1287
   41MOL   H59048670   5.562   3.077   6.952 -0.3677 -0.2211  2.7647
   41MOL   H59148671   5.559   3.228   7.039  1.5395  1.1718 -0.2010
   41MOL   H59248672   5.576   3.355   6.847 -0.8399 -0.1089 -0.2156
   41MOL   H59348673   5.562   3.222   6.748  1.5964  1.7806 -1.9773
   41MOL   H59448674   5.792   3.234   6.959 -0.0738  2.4976  0.2195
   41MOL   H59548675   5.781   3.137   6.815 -2.3921 -0.6686 -0.2121
   41MOL   H59648676   5.843   3.336   6.673  0.2270 -2.4447 -0.6992
   41MOL   H59748677   5.808   3.441   6.797  1.5141  0.5871  0.9747
   41MOL   H59848678   6.021   3.234   6.843  1.9640  0.6380  1.7034
   41MOL   H59948679   6.007   3.368   6.944 -0.0451 -0.8079  0.9796
   41MOL   H60048680   6.034   3.473   6.653  1.7748  3.4043  1.3002
   41MOL   H60148681   6.113   3.507   6.807  0.5525 -0.0672  0.2506
   41MOL   O60248682   6.306   3.412   6.768  0.1027 -0.2462  0.1053
   41MOL   C60348683   6.442   3.365   6.746 -0.5350 -0.2668 -0.1377
   41MOL   C60448684   6.536   3.437   6.844 -0.4841  0.0933  0.3228
   41MOL   C60548685   6.517   3.396   6.988 -0.2840 -0.3446 -1.0408
   41MOL   C60648686   6.624   3.452   7.079 -0.2436 -0.5641  0.1433
   41MOL   C60748687   6.611   3.391   7.221  0.7281 -0.6042  0.3795
   41MOL   C60848688   6.480   3.428   7.295 -0.3582 -0.0806  0.5761
   41MOL   C60948689   6.498   3.431   7.450  0.2503 -0.2507  0.1126
   41MOL   C61048690   6.518   3.293   7.517  0.1045  0.2293 -0.4641
   41MOL   C61148691   6.485   3.277   7.667 -0.5600  0.3852  0.4261
   41MOL   C61248692   6.519   3.134   7.719 -0.5314  0.2928  0.2802
   41MOL   O61348693   6.517   3.150   0.102 -0.2444  0.0384 -0.0947
   41MOL   C61448694   6.635   3.159   0.164 -0.3693 -0.2433  0.0192
   41MOL   O61548695   6.749   3.138   0.115  0.4416  0.2233 -0.1819
   41MOL   C61648696   6.619   3.186   0.315 -0.7121  0.4768 -0.0669
   41MOL   C61748697   6.616   3.056   0.400 -0.0934 -0.1824 -0.0013
   41MOL   C61848698   6.484   2.984   0.403 -0.0440  0.4262  0.2102
   41MOL   C61948699   6.458   2.872   0.502  0.5152 -0.0558  0.1221
   41MOL   C62048700   6.311   2.859   0.534  0.1408  0.0382  1.0843
   41MOL   C62148701   6.278   2.740   0.624 -0.0695  0.7608  0.2319
   41MOL   C62248702   6.123   2.710   0.664  0.5609  1.0131 -0.7968
   41MOL   C62348703   6.124   2.654   0.810  0.3816 -0.1354  0.6478
   41MOL   C62448704   5.994   2.595   0.858  0.0267  0.7546  0.2275
   41MOL   O62548705   5.966   2.596   0.979 -0.0679 -0.0479  0.0072
   41MOL   H62648706   6.446   3.258   6.768  1.8441  0.0112  0.9218
   41MOL   H62748707   6.465   3.385   6.641 -0.7668 -0.3243 -0.1983
   41MOL   H62848708   6.639   3.428   6.812 -0.0189 -1.8879  2.2353
   41MOL   H62948709   6.512   3.544   6.840  1.5502  0.6147  1.6884
   41MOL   H63048710   6.416   3.407   7.029 -0.3580 -2.5264 -0.5477
   41MOL   H63148711   6.529   3.288   7.001  0.7575 -0.2595 -1.2665
   41MOL   H63248712   6.723   3.432   7.038 -0.1484  0.8752 -0.3553
   41MOL   H63348713   6.613   3.560   7.094  2.4230 -0.3260  0.5616
   41MOL   H63448714   6.697   3.433   7.273  0.3969 -0.1513  0.5657
   41MOL   H63548715   6.606   3.282   7.222 -0.6376 -0.5433  1.7177
   41MOL   H63648716   6.400   3.362   7.260 -0.0636  0.7937 -1.7877
   41MOL   H63748717   6.444   3.527   7.267 -1.9790 -0.4696  1.1876
   41MOL   H63848718   6.414   3.480   7.499  2.0107  0.1097  2.8468
   41MOL   H63948719   6.587   3.493   7.469  1.1686 -1.7478  0.7845
   41MOL   H64048720   6.621   3.262   7.498  0.6048  1.6397 -0.0898
   41MOL   H64148721   6.448   3.224   7.470 -0.9240 -1.7498  3.7152
   41MOL   H64248722   6.546   3.340   7.732  0.8061 -0.6564  0.1748
   41MOL   H64348723   6.382   3.302   7.694 -0.7647  1.1114 -0.9502
   41MOL   H64448724   6.433   3.079   7.681  0.3289  0.1882 -1.5769
   41MOL   H64548725   6.606   3.095   7.667 -0.0038 -0.1645  1.4742
   41MOL   H64648726   6.531   3.249   0.326 -1.4079 -0.1856 -1.6720
   41MOL   H64748727   6.704   3.248   0.344  0.8933 -0.8083 -1.9111
   41MOL   H64848728   6.661   3.078   0.497  1.0429  0.5476 -0.6847
   41MOL   H64948729   6.685   2.989   0.348 -0.7967 -1.2220  0.3886
   41MOL   H65048730   6.456   2.959   0.301 -0.4433  0.2593  0.3588
   41MOL   H65148731   6.418   3.066   0.432  0.2642  0.6693  0.2272
   41MOL   H65248732   6.514   2.876   0.595 -2.0092 -1.3078  1.7411
   41MOL   H65348733   6.488   2.778   0.456 -2.8511 -1.0550 -0.1520
   41MOL   H65448734   6.288   2.958   0.573 -0.0025  1.1429 -1.6857
   41MOL   H65548735   6.266   2.832   0.438  1.0189  0.8647  0.4347
   41MOL   H65648736   6.323   2.654   0.574 -1.8317  0.0452 -0.1323
   41MOL   H65748737   6.327   2.753   0.721 -0.5151 -1.1756  0.7357
   41MOL   H65848738   6.097   2.631   0.593  2.0118  0.2246 -0.4755
   41MOL   H65948739   6.051   2.791   0.661 -1.5223 -0.8117 -1.5022
   41MOL   H66048740   6.196   2.573   0.803  1.2677  0.8202 -1.8463
   41MOL   H66148741   6.150   2.726   0.887 -1.1287 -1.1266  2.1341
   41MOL   O66248742   5.925   2.529   0.761  0.5208  0.1661 -0.5059
   41MOL   C66348743   5.792   2.486   0.782 -0.3738 -0.6438 -0.2274
   41MOL   C66448744   5.732   2.456   0.641 -0.1317  0.8508  0.0287
   41MOL   C66548745   5.592   2.410   0.631  0.5851  0.4085 -0.1194
   41MOL   C66648746   5.545   2.381   0.489  0.0226  0.0020 -0.3334
   41MOL   C66748747   5.396   2.332   0.493  0.6133 -0.0405  0.1291
   41MOL   C66848748   5.335   2.318   0.348  0.2357  0.2393  0.1165
   41MOL   C66948749   5.310   2.447   0.266 -0.2734  0.6029  0.4106
   41MOL   C67048750   5.320   2.425   0.115 -0.4754 -0.1396  0.4419
   41MOL   C67148751   5.313   2.556   0.042  0.3151  0.4154  0.1021
   41MOL   C67248752   5.364   2.546   7.654 -0.0168  0.1257  0.3633
   41MOL   O67348753   5.342   2.664   7.580 -0.2818  0.0660 -0.2400
   41MOL   C67448754   5.433   2.763   7.554 -0.3608 -0.3060  0.2986
   41MOL   O67548755   5.556   2.755   7.586 -0.2011  0.3695  0.0450
   41MOL   C67648756   5.367   2.894   7.517  1.1612  0.8729  0.2222
   41MOL   C67748757   5.252   2.926   7.614 -0.2419 -0.1269 -0.1892
   41MOL   C67848758   5.201   3.075   7.625 -0.4010  0.0052  0.6282
   41MOL   C67948759   5.089   3.090   7.726 -0.0603  0.3522  0.1617
   41MOL   C68048760   5.079   3.238   0.019 -0.5715 -0.4630 -0.2269
   41MOL   C68148761   5.026   3.332   7.667  0.7484 -0.4890 -0.7759
   41MOL   C68248762   5.015   3.473   7.721 -0.2091 -0.2101  0.5447
   41MOL   C68348763   5.137   3.512   0.057 -0.7732 -0.2387  0.2448
   41MOL   C68448764   5.156   3.665   0.075 -0.1857 -0.0269  0.3050
   41MOL   O68548765   5.114   3.720   0.179  0.9097 -0.3879 -0.5546
   41MOL   H68648766   5.802   2.402   0.850 -2.4666  0.4050  1.4281
   41MOL   H68748767   5.732   2.563   0.831  0.4658  0.9052 -1.5746
   41MOL   H68848768   5.750   2.556   0.601  2.6528  0.2602 -0.3093
   41MOL   H68948769   5.795   2.387   0.586 -1.6616 -0.9247  0.4446
   41MOL   H69048770   5.591   2.313   0.681  5.3501 -0.3621 -1.2494
   41MOL   H69148771   5.529   2.486   0.676  0.0434  0.1004 -0.3564
   41MOL   H69248772   5.543   2.479   0.442  1.5484  0.4712  0.5644
   41MOL   H69348773   5.602   2.303   0.437  2.9847  1.4023  0.7168
   41MOL   H69448774   5.339   2.393   0.564  1.2134  0.1266  0.4669
   41MOL   H69548775   5.393   2.232   0.535  0.0102  0.2900  0.8899
   41MOL   H69648776   5.243   2.263   0.368  0.3123  0.1155  0.1180
   41MOL   H69748777   5.396   2.254   0.285 -1.0282  0.8870 -1.8199
   41MOL   H69848778   5.371   2.532   0.296 -0.5311  0.6026  0.9457
   41MOL   H69948779   5.211   2.486   0.291 -0.4043 -0.9767  2.5121
   41MOL   H70048780   5.248   2.357   0.070 -0.6920  1.1859 -1.2716
   41MOL   H70148781   5.413   2.373   0.092 -0.2158  1.1850 -1.6640
   41MOL   H70248782   5.210   2.591   0.052  0.3812 -0.1737  3.2968
   41MOL   H70348783   5.370   2.635   0.093  1.0418 -0.8892  1.3466
   41MOL   H70448784   5.472   2.530   7.658 -0.1411 -1.1389 -0.8124
   41MOL   H70548785   5.314   2.473   7.591 -0.2847 -0.8690  1.7203
   41MOL   H70648786   5.338   2.891   7.411  0.2814  0.2307  0.4736
   41MOL   H70748787   5.440   2.975   7.510  2.1988 -0.0839 -0.0917
   41MOL   H70848788   5.299   2.902   7.710  0.0777  1.1563 -0.0161
   41MOL   H70948789   5.164   2.862   7.620 -1.3908  1.4059 -0.3367
   41MOL   H71048790   5.161   3.113   7.531  3.5899  4.2072  0.4964
   41MOL   H71148791   5.283   3.141   7.653  0.7450 -0.9593 -0.4010
   41MOL   H71248792   5.109   3.027   0.056 -1.2369  0.7390  0.7169
   41MOL   H71348793   4.996   3.048   7.688  1.0311  0.8910 -3.2618
   41MOL   H71448794   5.032   3.246   0.117 -1.5060 -0.0874 -0.7055
   41MOL   H71548795   5.183   3.270   0.028  0.2287 -1.6830 -4.2126
   41MOL   H71648796   5.091   3.337   7.579  1.8861 -2.7561 -0.0776
   41MOL   H71748797   4.929   3.294   7.634  1.2643  0.1350 -3.1179
   41MOL   H71848798   4.925   3.464   0.025 -1.0092  0.1459 -0.5525
   41MOL   H71948799   4.995   3.545   7.641  1.0567  0.0240  0.4396
   41MOL   H72048800   5.130   3.461   0.153 -1.2398 -1.2570 -0.3215
   41MOL   H72148801   5.233   3.476   0.021  0.2481  1.1978  1.4853
   41MOL   O72248802   5.206   3.733   7.728  0.0109  0.0369  0.4004
   41MOL   C72348803   5.212   3.875   7.731 -0.2421  0.4380  0.7086
   41MOL   C72448804   5.303   3.920   7.622  0.1653 -0.1163 -0.3352
   41MOL   C72548805   5.221   3.959   7.500 -0.0243  0.8311 -0.5225
   41MOL   C72648806   5.179   3.845   7.403  0.8845 -0.4325 -0.1872
   41MOL   C72748807   5.073   3.897   7.297  0.3269 -0.9742  0.0966
   41MOL   C72848808   5.116   4.019   7.219 -0.6220  0.0553  0.6311
   41MOL   C72948809   5.246   4.004   7.134  0.2096  0.4386  0.5984
   41MOL   C73048810   5.292   4.131   7.065  0.7182 -0.0000  1.0228
   41MOL   C73148811   5.382   4.109   6.938 -0.0582 -0.2982  0.3336
   41MOL   C73248812   5.417   4.247   6.875 -0.0599 -0.0012  0.1890
   41MOL   O73348813   5.516   4.217   6.777 -0.1949 -0.6053 -0.0751
   41MOL   C73448814   5.534   4.304   6.676 -0.2031 -0.4971  0.3888
   41MOL   O73548815   5.470   4.407   6.656  0.3616 -0.6455 -0.0062
   41MOL   C73648816   5.649   4.265   6.586 -0.3899  0.5529 -0.0304
   41MOL   C73748817   5.657   4.116   6.540  0.3999 -0.3219  0.6717
   41MOL   C73848818   5.573   4.074   6.421 -0.4508 -0.4656 -0.1205
   41MOL   C73948819   5.451   3.999   6.488 -0.4516 -0.3193 -0.5110
   41MOL   C74048820   5.345   3.938   6.387 -0.4913  0.7447  0.0510
   41MOL   C74148821   5.259   3.827   6.467 -0.8511 -0.3897  0.3651
   41MOL   C74248822   5.193   3.874   6.598  0.0625 -0.1400 -0.1818
   41MOL   C74348823   5.087   3.981   6.589 -0.1102  0.1083  0.0296
   41MOL   C74448824   5.014   4.011   6.719  0.3205 -0.1410  0.2551
   41MOL   O74548825   5.071   4.009   6.829  0.9118  0.0247 -0.0988
   41MOL   H74648826   5.112   3.917   7.719  0.2246  1.7274  1.2231
   41MOL   H74748827   5.241   3.890   0.078 -0.8461  0.4203  0.8837
   41MOL   H74848828   5.346   4.013   7.660  0.1469 -0.5944  0.8480
   41MOL   H74948829   5.381   3.852   7.589  1.4609 -0.2374  2.8915
   41MOL   H75048830   5.134   4.020   7.526 -3.3288 -2.6967 -2.5600
   41MOL   H75148831   5.285   4.026   7.444  0.3970 -2.5191 -4.3518
   41MOL   H75248832   5.260   3.788   7.359  1.6602  1.0284 -0.6861
   41MOL   H75348833   5.123   3.773   7.463  1.2413  0.8961  1.7954
   41MOL   H75448834   4.972   3.924   7.329  1.1013  1.7226  0.4415
   41MOL   H75548835   5.044   3.808   7.241 -0.3347 -1.7664  1.6746
   41MOL   H75648836   5.132   4.105   7.284  1.5727  0.4211 -0.3396
   41MOL   H75748837   5.033   4.056   7.159  0.0312 -0.3869 -0.5648
   41MOL   H75848838   5.233   3.925   7.060  0.2456  1.4444 -0.4985
   41MOL   H75948839   5.330   3.961   7.189 -0.4584  0.3279  1.5358
   41MOL   H76048840   5.335   4.203   7.135  1.5453 -0.9839  1.5465
   41MOL   H76148841   5.209   4.182   7.017  1.8957 -1.2200 -2.5024
   41MOL   H76248842   5.464   4.052   6.982  0.9670 -0.1425 -1.3391
   41MOL   H76348843   5.337   4.054   6.856 -0.6594 -1.3168  1.3334
   41MOL   H76448844   5.331   4.293   6.826  1.7205  1.6933 -1.4661
   41MOL   H76548845   5.447   4.314   6.955 -0.2652 -0.2075  0.4409
   41MOL   H76648846   5.743   4.295   6.633 -0.5748  0.6430  0.2837
   41MOL   H76748847   5.643   4.324   6.495 -3.2028 -1.0332 -0.9463
   41MOL   H76848848   5.663   4.051   6.628 -1.5181 -0.4865  0.7018
   41MOL   H76948849   5.758   4.110   6.500  0.0630  0.8502 -0.3776
   41MOL   H77048850   5.607   3.996   6.352  1.4510 -0.4532  0.7795
   41MOL   H77148851   5.530   4.160   6.369  0.8726 -0.6920 -1.6131
   41MOL   H77248852   5.397   4.061   6.559 -0.0655 -1.4020  0.7582
   41MOL   H77348853   5.488   3.923   6.557 -0.6196 -1.6841 -1.9110
   41MOL   H77448854   5.299   4.013   6.323  1.5283 -0.7541 -3.3288
   41MOL   H77548855   5.413   3.883   6.321 -0.2800  0.3301  0.6045
   41MOL   H77648856   5.172   3.801   6.406  0.4483 -0.0283 -1.7011
   41MOL   H77748857   5.324   3.740   6.474  0.0137  0.2178 -0.0073
   41MOL   H77848858   5.268   3.912   6.667 -0.8247  1.9477 -0.2978
   41MOL   H77948859   5.153   3.786   6.648  0.8137 -0.6038 -0.3820
   41MOL   H78048860   5.123   4.073   6.542  2.5072 -0.1411  1.4306
   41MOL   H78148861   5.018   3.941   6.515  0.9581 -0.5058 -0.6347
   41MOL   O78248862   4.885   4.045   6.703  0.4084 -0.6165 -0.3676
   41MOL   C78348863   4.801   4.046   6.815 -0.3082 -0.2063  0.2311
   41MOL   C78448864   4.815   4.164   6.908  0.2336 -0.3408 -0.3151
   41MOL   C78548865   4.810   4.305   6.823 -0.2689  1.0807 -0.0126
   41MOL   C78648866   4.825   4.436   6.903 -0.0256  0.6155 -0.3894
   41MOL   C78748867   4.737   4.448   7.025 -0.5175 -0.3671  0.3260
   41MOL   C78848868   4.598   4.490   6.989  0.3653  0.2817  0.2661
   41MOL   C78948869   4.511   4.506   7.105 -0.2466  0.3597  0.4657
   41MOL   C79048870   4.468   4.375   7.173  0.4230  0.3613 -0.2150
   41MOL   C79148871   4.329   4.402   7.243 -0.2099 -0.2367  0.4575
   41MOL   C79248872   4.280   4.272   7.318 -0.3396  0.3259  0.0537
   41MOL   O79348873   4.323   4.288   7.452  0.0096 -0.3384 -0.1116
   41MOL   C79448874   4.301   4.198   7.541  0.3098  0.0678  1.1301
   41MOL   O79548875   4.254   4.089   7.517  0.5505 -0.1263  1.0376
   41MOL   C79648876   4.346   4.227   7.688  0.4526 -0.1463 -0.1349
   41MOL   C79748877   4.362   4.105   0.027 -0.6782 -0.0519 -0.2271
   41MOL   C79848878   4.378   4.134   0.178 -0.5950  0.1940  0.4038
   41MOL   C79948879   4.385   4.005   0.259  0.4091 -1.0329  0.6922
   41MOL   C80048880   4.407   4.040   0.404 -0.0367  0.2046  0.3532
   41MOL   C80148881   4.448   3.931   0.501 -0.5183  0.3084  0.0765
   41MOL   C80248882   4.454   3.980   0.646  0.4531 -0.3055 -0.1396
   41MOL   C80348883   4.322   4.022   0.714 -0.7859 -0.0819  0.2693
   41MOL   C80448884   4.250   3.917   0.799  0.2636 -0.4697  0.3967
   41MOL   O80548885   4.281   3.797   0.796 -0.7896 -0.0064  0.0842
   41MOL   H80648886   4.697   4.046   6.782 -0.0263 -1.6516 -0.7219
   41MOL   H80748887   4.819   3.959   6.879  3.3325 -0.1095 -0.5640
   41MOL   H80848888   4.729   4.155   6.975  0.0993  0.4014 -0.3852
   41MOL   H80948889   4.895   4.159   6.982 -1.2830  1.1098  1.4773
   41MOL   H81048890   4.888   4.306   6.747  0.3330 -0.0679  0.5672
   41MOL   H81148891   4.717   4.308   6.765  0.3675  0.2550 -1.0978
   41MOL   H81248892   4.932   4.448   6.920 -0.0807 -1.0362  1.2259
   41MOL   H81348893   4.804   4.514   6.830 -0.0699 -1.7031 -2.9458
   41MOL   H81448894   4.783   4.528   7.082  1.2404 -0.4711 -0.9292
   41MOL   H81548895   4.744   4.356   7.084 -0.4859 -0.9269 -0.5348
   41MOL   H81648896   4.557   4.420   6.916  4.2238 -0.9310 -0.8174
   41MOL   H81748897   4.602   4.582   6.931 -1.4369 -2.0630 -3.7875
   41MOL   H81848898   4.426   4.566   7.072 -0.6900  0.5360  1.9242
   41MOL   H81948899   4.566   4.563   7.180  1.8307 -0.1782 -0.6107
   41MOL   H82048900   4.544   4.344   7.245 -0.6791 -0.4784  0.6126
   41MOL   H82148901   4.469   4.290   7.104  2.3352 -0.2156  0.4960
   41MOL   H82248902   4.343   4.488   7.309 -0.5228 -0.2622  0.5606
   41MOL   H82348903   4.258   4.425   7.163 -0.0441  0.3313  0.4692
   41MOL   H82448904   4.173   4.249   7.327  0.0153 -1.0318  0.9549
   41MOL   H82548905   4.322   4.186   7.266  1.2152  1.1845 -0.1356
   41MOL   H82648906   4.273   4.299   7.725 -0.5022 -0.3036 -1.6706
   41MOL   H82748907   4.446   4.270   7.683  0.4814  0.0168  1.3984
   41MOL   H82848908   4.458   4.063   7.755  0.0762  0.4512  1.5190
   41MOL   H82948909   4.287   4.027   0.014 -0.6828  0.0774 -0.9996
   41MOL   H83048910   4.293   4.196   0.209 -0.7756 -0.1696  0.6438
   41MOL   H83148911   4.464   4.196   0.201 -1.3266  1.7440 -0.9005
   41MOL   H83248912   4.471   3.947   0.227 -0.3181 -1.5681 -0.3111
   41MOL   H83348913   4.290   3.953   0.246 -2.2665  3.7297 -0.2513
   41MOL   H83448914   4.487   4.113   0.414 -0.1116  0.1917  1.0731
   41MOL   H83548915   4.309   4.068   0.444  0.6737  0.2874  2.1045
   41MOL   H83648916   4.382   3.845   0.488 -1.1995  0.7113  0.7980
   41MOL   H83748917   4.549   3.908   0.467 -0.4316  0.8457 -0.0349
   41MOL   H83848918   4.530   4.055   0.666 -0.2917  0.3002  0.4257
   41MOL   H83948919   4.494   3.899   0.708  0.0774 -0.6258 -0.3196
   41MOL   H84048920   4.342   4.101   0.787  1.0068  1.9418 -2.3021
   41MOL   H84148921   4.257   4.066   0.637 -0.0221  2.5668  1.0841
   41MOL   O84248922   4.144   3.963   0.868 -0.9362 -0.5136  1.1641
   41MOL   C84348923   4.081   3.875   0.961  0.6820 -0.0830  0.4577
   41MOL   C84448924   3.994   3.954   1.059 -0.2114  0.0853 -0.2731
   41MOL   C84548925   3.876   4.026   0.993 -0.2718 -0.4752 -0.1763
   41MOL   C84648926   3.751   4.040   1.083 -0.1226  0.1084 -0.5375
   41MOL   C84748927   3.619   4.090   1.008 -0.4933 -0.7016 -0.0959
   41MOL   C84848928   3.521   4.152   1.113  0.4627  0.8219  0.5365
   41MOL   C84948929   3.390   4.210   1.039  0.3725 -0.6021 -0.3051
   41MOL   C85048930   3.291   4.261   1.138 -0.0856  0.2560  0.9131
   41MOL   C85148931   3.188   4.342   1.065  0.2476 -1.0858  0.1980
   41MOL   C85248932   3.042   4.338   1.126  0.3706  0.5150  0.6381
   41MOL   O85348933   2.992   4.209   1.124  0.3593 -0.3595  0.0145
   41MOL   C85448934   2.920   4.166   1.222 -0.3633 -0.2811 -0.1970
   41MOL   O85548935   2.886   4.234   1.318 -0.2871  0.1997 -0.4992
   41MOL   C85648936   2.871   4.021   1.209 -0.2571  0.2375 -0.2960
   41MOL   C85748937   2.967   3.932   1.125  0.0660 -0.5272  0.0738
   41MOL   C85848938   3.094   3.890   1.199 -1.0065  0.6614  0.0575
   41MOL   C85948939   3.177   3.786   1.129  0.2396 -0.4734 -0.5548
   41MOL   C86048940   3.289   3.748   1.218  0.2743  0.7116 -0.0855
   41MOL   C86148941   3.382   3.641   1.148 -0.0662 -0.4726 -0.0239
   41MOL   C86248942   3.438   3.684   1.008  0.5113  0.9642 -0.2860
   41MOL   C86348943   3.523   3.565   0.947  0.1660 -0.5175  0.4235
   41MOL   C86448944   3.667   3.588   0.995 -0.3244  0.6179  0.8298
   41MOL   O86548945   3.702   3.667   1.074 -0.6550 -0.3925 -0.3183
   41MOL   H86648946   4.010   3.805   0.917  0.9434  0.9532 -1.7177
   41MOL   H86748947   4.156   3.820   1.017 -0.6312  0.6639  3.0268
   41MOL   H86848948   3.964   3.881   1.133 -0.1488 -0.2788 -0.6049
   41MOL   H86948949   4.061   4.021   1.114 -1.1560  0.3200  0.6073
   41MOL   H87048950   3.911   4.124   0.959  0.4919 -0.7068 -0.0609
   41MOL   H87148951   3.846   3.976   0.901 -1.9662  1.0984 -0.5233
   41MOL   H87248952   3.720   3.942   1.118 -1.7044 -0.0217 -2.2329
   41MOL   H87348953   3.762   4.108   1.167  0.5747  0.0086 -0.5417
   41MOL   H87448954   3.582   4.006   0.949 -0.2981  0.4693 -1.9235
   41MOL   H87548955   3.649   4.171   0.943  0.0628  1.3159  2.5965
   41MOL   H87648956   3.563   4.229   1.177  2.6683  1.1985 -1.2804
   41MOL   H87748957   3.489   4.070   1.176  0.5846  1.2515  1.1554
   41MOL   H87848958   3.333   4.138   0.980  0.0414 -1.4265  1.0010
   41MOL   H87948959   3.439   4.287   0.980  0.7840 -0.7827 -0.2023
   41MOL   H88048960   3.350   4.332   1.195  0.7390 -1.5961  2.4246
   41MOL   H88148961   3.251   4.174   1.189  1.1560 -0.3835  0.8005
   41MOL   H88248962   3.226   4.444   1.050 -2.4212  0.1735  1.7093
   41MOL   H88348963   3.176   4.308   0.962 -0.0778 -2.9076  0.8178
   41MOL   H88448964   3.030   4.393   1.220  1.7529  0.3015  0.9489
   41MOL   H88548965   2.976   4.383   1.052 -0.3173 -0.1417  0.8440
   41MOL   H88648966   2.771   4.028   1.166  0.5307 -0.9932 -2.4298
   41MOL   H88748967   2.858   3.978   1.308 -0.7913 -0.9583 -0.8754
   41MOL   H88848968   2.979   3.981   1.028  0.8000  0.0682  0.4654
   41MOL   H88948969   2.913   3.841   1.100  1.7975 -2.1084  1.9580
   41MOL   H89048970   3.086   3.849   1.300  2.2401  0.8649  0.4714
   41MOL   H89148971   3.159   3.977   1.208  0.4390 -0.4490  0.6360
   41MOL   H89248972   3.202   3.815   1.027 -0.4429 -2.3898 -1.2832
   41MOL   H89348973   3.105   3.706   1.114 -1.0997  0.8470 -1.3667
   41MOL   H89448974   3.349   3.836   1.240  0.1732  1.4349 -2.5288
   41MOL   H89548975   3.253   3.731   1.319 -2.3758  0.4434 -1.0424
   41MOL   H89648976   3.467   3.640   1.215  1.0499  2.7164 -1.2694
   41MOL   H89748977   3.340   3.541   1.147 -4.0952  1.1276 -0.3250
   41MOL   H89848978   3.474   3.787   1.007  3.8221 -0.1548 -0.8174
   41MOL   H89948979   3.358   3.684   0.934 -0.8291  0.9974  1.1205
   41MOL   H90048980   3.491   3.471   0.991  0.0696  0.6850  3.0138
   41MOL   H90148981   3.518   3.567   0.838 -0.0224  0.7292  0.4509
   41MOL   O90248982   3.751   3.509   0.929 -0.1644 -0.2766 -0.2490
   41MOL   C90348983   3.895   3.527   0.940 -0.3032  0.3709 -0.1281
   41MOL   C90448984   3.969   3.394   0.950 -0.6162  0.0274  0.2867
   41MOL   C90548985   4.120   3.410   0.926  0.6232 -0.2268 -0.0932
   41MOL   C90648986   4.199   3.494   1.016 -0.1899 -0.3193 -0.1019
   41MOL   C90748987   4.342   3.537   0.983 -0.7866  0.0087 -0.0599
   41MOL   C90848988   4.443   3.444   1.053  0.6335 -0.6180 -0.3484
   41MOL   C90948989   4.587   3.489   1.054 -0.1122  0.8316 -0.2820
   41MOL   C91048990   4.681   3.383   1.114  0.6730  0.6749  0.7469
   41MOL   C91148991   4.827   3.437   1.140 -0.0254  0.6354 -0.4029
   41MOL   C91248992   4.907   3.337   1.228  0.0621 -0.1472  0.2897
   41MOL   O91348993   5.007   3.408   1.305 -0.5299  0.4809  0.1174
   41MOL   C91448994   4.967   3.454   1.423 -0.2983  0.3509  0.2521
   41MOL   O91548995   4.863   3.427   1.485 -0.0904  0.5826  0.6236
   41MOL   C91648996   5.070   3.548   1.483  0.4198  0.1920 -0.6226
   41MOL   C91748997   5.016   3.645   1.584  0.7712  0.3713 -0.8223
   41MOL   C91848998   5.123   3.724   1.672 -0.2070  0.4625  0.4056
   41MOL   C91948999   5.058   3.808   1.795 -0.2574 -1.1976  0.1307
   41MOL   C92049000   5.151   3.897   1.875  0.3079  0.1399 -0.2055
   41MOL   C92149001   5.087   3.985   1.983 -0.1251 -0.1966 -0.5454
   41MOL   C92249002   4.979   4.084   1.934  0.0519  0.1285  0.4887
   41MOL   C92349003   4.945   4.192   2.039 -0.7795  0.5870  0.7230
   41MOL   C92449004   4.797   4.244   2.052 -0.0625  0.0093  0.6230
   41MOL   O92549005   4.779   4.362   2.079 -0.3033 -0.0370  0.2101
   41MOL   H92649006   3.927   3.570   0.845 -0.6505 -0.9511 -0.8444
   41MOL   H92749007   3.923   3.590   1.024 -1.0045 -0.8072  1.0050
   41MOL   H92849008   3.957   3.348   1.049 -0.0118 -0.6994  0.0233
   41MOL   H92949009   3.933   3.321   0.877  2.0991 -0.6840 -0.3730
   41MOL   H93049010   4.153   3.307   0.915 -0.4359 -0.5892  0.0065
   41MOL   H93149011   4.130   3.459   0.830 -2.4934 -0.1996 -0.4466
   41MOL   H93249012   4.140   3.585   1.027 -1.3030 -0.8654 -1.4737
   41MOL   H93349013   4.196   3.443   1.112  1.1622  2.1455  1.2902
   41MOL   H93449014   4.358   3.639   1.017  1.0726 -0.4793  0.5922
   41MOL   H93549015   4.359   3.547   0.875 -0.5666 -0.9821 -0.1222
   41MOL   H93649016   4.433   3.342   1.014 -0.9272 -1.0752  1.1780
   41MOL   H93749017   4.408   3.441   1.156 -2.2307 -0.0873 -1.2420
   41MOL   H93849018   4.593   3.586   1.104  2.9645  0.0823  0.9276
   41MOL   H93949019   4.612   3.512   0.950 -0.3311  2.4988  0.0121
   41MOL   H94049020   4.681   3.298   1.046 -1.9463 -0.0894  1.6303
   41MOL   H94149021   4.634   3.347   1.206 -1.1953  0.5297 -0.2489
   41MOL   H94249022   4.869   3.457   1.041  0.2328 -0.6580 -0.5701
   41MOL   H94349023   4.826   3.529   1.198 -2.3426 -0.0730  0.7489
   41MOL   H94449024   4.847   3.279   1.299 -1.3655 -1.1173 -1.6649
   41MOL   H94549025   4.948   3.273   1.150 -0.0011  1.6480 -1.2544
   41MOL   H94649026   5.126   3.603   1.408  1.1547 -0.3003 -0.4408
   41MOL   H94749027   5.142   3.484   1.535  2.7989  2.8484 -0.5157
   41MOL   H94849028   4.947   3.590   1.648 -0.0232 -0.0545 -2.0121
   41MOL   H94949029   4.943   3.702   1.526 -0.1950 -2.2049 -2.2196
   41MOL   H95049030   5.178   3.792   1.607 -0.3370  0.5563  0.3949
   41MOL   H95149031   5.202   3.659   1.708 -0.8737 -0.8509 -0.4554
   41MOL   H95249032   4.989   3.751   1.857  0.4063 -0.1639  1.8637
   41MOL   H95349033   4.985   3.877   1.753 -0.3743  0.3263  2.7525
   41MOL   H95449034   5.214   3.829   1.931  0.4661  1.4957  1.2877
   41MOL   H95549035   5.212   3.951   1.803 -1.6993  1.0874 -1.2550
   41MOL   H95649036   5.045   3.926   2.064  0.4498 -0.4883 -0.4575
   41MOL   H95749037   5.163   4.047   2.030  0.1609 -1.8136  1.2031
   41MOL   H95849038   4.890   4.035   1.894 -0.5479  2.1985 -0.8429
   41MOL   H95949039   5.017   4.129   1.842 -1.0018 -0.7028 -0.3732
   41MOL   H96049040   4.974   4.162   2.139  0.4615 -1.6497 -0.2688
   41MOL   H96149041   4.994   4.285   2.007 -0.9212  0.4022 -0.0420
   41MOL   O96249042   4.693   4.151   2.038  0.6269 -0.1099 -0.1193
   41MOL   C96349043   4.562   4.184   2.078  0.5098  0.1090  0.0992
   41MOL   C96449044   4.472   4.237   1.956 -0.2641 -0.1604 -0.3415
   41MOL   C96549045   4.322   4.258   1.981 -0.3781 -0.0403  0.3447
   41MOL   C96649046   4.250   4.330   1.862  0.0662  0.4618  0.0522
   41MOL   C96749047   4.097   4.340   1.884 -0.2024  0.9319  0.2920
   41MOL   C96849048   4.022   4.360   1.750 -0.1344 -0.0848 -0.3048
   41MOL   C96949049   3.874   4.323   1.769  0.6488  0.8104 -0.2402
   41MOL   C97049050   3.782   4.352   1.647 -0.7011 -0.2495  0.5283
   41MOL   C97149051   3.630   4.308   1.663  0.7591 -0.6921 -0.6218
   41MOL   C97249052   3.519   4.354   1.566 -0.0839  0.8667  0.4320
   41MOL   O97349053   3.400   4.276   1.569  0.4704  0.4283  0.2435
   41MOL   C97449054   3.291   4.323   1.505 -0.9034  0.7217  0.1010
   41MOL   O97549055   3.287   4.435   1.453 -0.6986 -0.6379  0.8513
   41MOL   C97649056   3.181   4.218   1.495  0.7182  0.1880 -0.6471
   41MOL   C97749057   3.122   4.176   1.633  0.5698  0.0418  0.2346
   41MOL   C97849058   3.026   4.274   1.700  0.0172  0.4654 -0.7899
   41MOL   C97949059   3.019   4.275   1.851 -0.2522 -0.1116 -0.2411
   41MOL   C98049060   3.143   4.329   1.929 -0.0103 -0.3957  0.0637
   41MOL   C98149061   3.204   4.468   1.890 -1.1175 -0.6901 -0.4490
   41MOL   C98249062   3.281   4.526   2.019 -0.6720 -0.1534  0.7533
   41MOL   C98349063   3.337   4.671   2.011  0.6121  0.1501 -0.0911
   41MOL   C98449064   3.221   4.768   1.997  0.2294  0.4110 -0.1637
   41MOL   O98549065   3.174   4.821   2.098 -0.5732 -0.1300  0.0075
   41MOL   H98649066   4.510   4.094   2.109  0.8001 -0.5860 -1.4004
   41MOL   H98749067   4.570   4.254   2.161  0.7625  0.2198 -0.0166
   41MOL   H98849068   4.502   4.340   1.941 -2.1908  0.3708 -0.7660
   41MOL   H98949069   4.494   4.193   1.859  0.1189  1.9797 -1.2526
   41MOL   H99049070   4.269   4.166   2.006 -1.3520  0.3070 -0.4207
   41MOL   H99149071   4.313   4.321   2.069  0.0540  0.7173 -0.1520
   41MOL   H99249072   4.290   4.429   1.841 -0.0070 -0.0264 -2.5696
   41MOL   H99349073   4.267   4.262   1.779  1.2323  0.2218  0.4653
   41MOL   H99449074   4.072   4.415   1.959 -1.6309  0.6958  0.0565
   41MOL   H99549075   4.053   4.249   1.924  0.6944  0.1831 -0.3974
   41MOL   H99649076   4.059   4.287   1.678  3.0181 -0.8892  2.0387
   41MOL   H99749077   4.030   4.458   1.705 -0.8731  0.5291  0.8618
   41MOL   H99849078   3.833   4.391   1.845  1.8797  0.8236  0.4205
   41MOL   H99949079   3.870   4.219   1.802  1.9519  1.0716  0.7781
   41MOL     H149080   3.819   4.303   1.557  3.9324  0.3781  1.9162
   41MOL     H249081   3.779   4.459   1.627  0.6146  0.1346  2.2324
   41MOL     H349082   3.641   4.200   1.660 -2.3416 -1.1110  1.3220
   41MOL     H449083   3.605   4.335   1.766 -0.6833  0.4932 -1.2751
   41MOL     H549084   3.493   4.458   1.586  0.7956  1.4635 -1.3783
   41MOL     H649085   3.542   4.348   1.460 -2.5591  0.2246 -0.1040
   41MOL     H749086   3.219   4.132   1.440 -0.5436 -0.2788 -0.7923
   41MOL     H849087   3.096   4.250   1.436 -0.1799  0.8924  0.9998
   41MOL     H949088   3.195   4.153   1.711  0.9465  0.4685  0.0099
   41MOL    H1049089   3.069   4.081   1.622  1.1782 -0.2416 -0.3068
   41MOL    H1149090   2.931   4.263   1.648  0.3661  0.1251 -1.3519
   41MOL    H1249091   3.060   4.377   1.685  0.4143  0.4632  0.0266
   41MOL    H1349092   2.995   4.175   1.886  0.5019 -0.8589 -1.8713
   41MOL    H1449093   2.937   4.345   1.871  0.9576  1.0474  0.8219
   41MOL    H1549094   3.122   4.330   2.036  1.5363 -0.1793  0.3787
   41MOL    H1649095   3.219   4.251   1.923 -1.1540 -1.4247 -1.6430
   41MOL    H1749096   3.283   4.454   1.816 -0.8519 -1.8656  0.0524
   41MOL    H1849097   3.133   4.540   1.850  1.6596  0.6964 -3.0589
   41MOL    H1949098   3.357   4.456   2.052  1.2774  0.6348 -1.8400
   41MOL    H2049099   3.211   4.530   2.102  1.4241  1.3763  2.4900
   41MOL    H2149100   3.397   4.684   2.101  1.7380 -0.3300 -0.7760
   41MOL    H2249101   3.405   4.678   1.926 -2.7939  0.8238 -2.8755
   41MOL    O2349102   3.182   4.782   1.865  0.6774  0.0270  0.3749
   41MOL    C2449103   3.060   4.853   1.842  0.3142  0.2811  0.1933
   41MOL    C2549104   2.949   4.762   1.777  0.1729  0.1493 -0.2883
   41MOL    C2649105   2.983   4.699   1.644  0.0391 -0.4063 -0.3630
   41MOL    C2749106   2.865   4.609   1.589 -0.8099  0.1120 -0.5687
   41MOL    C2849107   2.892   4.545   1.448  0.1125 -0.2125  0.4463
   41MOL    C2949108   2.857   4.638   1.334 -0.1747 -0.1296 -0.5374
   41MOL    C3049109   2.703   4.638   1.291 -0.6851 -0.9321  0.2859
   41MOL    C3149110   2.671   4.726   1.172 -0.0002 -0.4790 -0.2123
   41MOL    C3249111   2.525   4.733   1.142  0.0254  0.1371 -0.5140
   41MOL    C3349112   2.481   4.601   1.086  0.1861  0.4701 -0.3536
   41MOL    O3449113   2.360   4.606   1.009  0.0803  0.1072  0.8626
   41MOL    C3549114   2.242   4.620   1.072  0.7135 -0.1533 -0.4971
   41MOL    O3649115   2.231   4.658   1.185  0.6582  0.1196 -0.2393
   41MOL    C3749116   2.130   4.570   0.986 -0.4321 -0.2141 -0.1908
   41MOL    C3849117   2.148   4.436   0.921 -0.5222 -0.3504 -0.0567
   41MOL    C3949118   2.166   4.309   1.023 -0.2919  0.2452 -0.4527
   41MOL    C4049119   2.155   4.176   0.951 -0.6053  0.1610 -0.8396
   41MOL    C4149120   2.262   4.144   0.847  0.6109  0.0071 -0.4267
   41MOL    C4249121   2.395   4.131   0.914  0.0681  0.9388  0.8608
   41MOL    C4349122   2.491   4.027   0.838 -0.0036  0.1856  0.2617
   41MOL    C4449123   2.633   4.016   0.906  0.3022  0.3050 -0.0803
   41MOL    C4549124   2.718   4.138   0.872  0.3208 -0.5842  0.3061
   41MOL    O4649125   2.740   4.220   0.958 -0.3815 -0.2405  0.0747
   41MOL    H4749126   3.028   4.898   1.936 -2.1521 -0.9414 -0.0217
   41MOL    H4849127   3.073   4.932   1.768 -2.4895 -0.0659 -0.7191
   41MOL    H4949128   2.946   4.680   1.849 -0.8789 -1.5899 -2.2757
   41MOL    H5049129   2.855   4.816   1.774 -0.8525 -1.6113 -0.4513
   41MOL    H5149130   3.003   4.780   1.574  3.3374  1.1294  2.2508
   41MOL    H5249131   3.077   4.647   1.659 -0.5221 -1.0805  0.9276
   41MOL    H5349132   2.863   4.525   1.658  0.9168 -0.3669 -1.0800
   41MOL    H5449133   2.770   4.664   1.590 -0.7973  0.1493 -1.0105
   41MOL    H5549134   2.839   4.451   1.435 -0.1299 -0.2863  1.8397
   41MOL    H5649135   2.997   4.515   1.444  0.0606 -0.2935 -0.2102
   41MOL    H5749136   2.915   4.588   1.257  2.9203  0.8928  1.0650
   41MOL    H5849137   2.889   4.738   1.362 -4.6917  1.1173  0.6753
   41MOL    H5949138   2.640   4.665   1.375  0.6455 -0.6697  1.2040
   41MOL    H6049139   2.679   4.534   1.265  0.3020 -0.6031 -2.0487
   41MOL    H6149140   2.728   4.695   1.084  0.8623 -0.1227  0.2093
   41MOL    H6249141   2.697   4.829   1.196 -1.0134 -0.8705  2.6534
   41MOL    H6349142   2.477   4.760   1.237  0.6401 -0.4182 -0.0409
   41MOL    H6449143   2.501   4.817   1.076  1.4777 -1.3648 -2.9867
   41MOL    H6549144   2.550   4.558   1.014  0.7035  0.4170  0.1756
   41MOL    H6649145   2.477   4.521   1.159 -1.5664 -0.3886 -1.3425
   41MOL    H6749146   2.122   4.639   0.901  0.9431 -2.4055 -2.1768
   41MOL    H6849147   2.035   4.570   1.039  0.8614  0.1537  2.1910
   41MOL    H6949148   2.229   4.446   0.849  0.1585  0.1911  0.7722
   41MOL    H7049149   2.056   4.414   0.868 -1.2993 -1.1390  1.5568
   41MOL    H7149150   2.084   4.321   1.093 -0.3853  2.5388 -0.9089
   41MOL    H7249151   2.256   4.312   1.084 -0.4401 -0.6309 -0.1864
   41MOL    H7349152   2.063   4.179   0.893 -1.0647 -0.0470 -0.1361
   41MOL    H7449153   2.136   4.103   1.029 -2.0459  0.5540 -0.8164
   41MOL    H7549154   2.230   4.057   0.790  1.2351 -0.4930 -0.0248
   41MOL    H7649155   2.263   4.228   0.777 -3.2099  0.3065 -0.2180
   41MOL    H7749156   2.428   4.233   0.933  2.3395  0.3227  0.4551
   41MOL    H7849157   2.370   4.095   1.014 -1.3434 -2.5437 -0.6728
   41MOL    H7949158   2.503   4.056   0.734  1.0771 -1.0729  0.0173
   41MOL    H8049159   2.434   3.935   0.845 -0.5299  0.3470 -1.7216
   41MOL    H8149160   2.622   3.997   1.013 -0.9513  0.9951 -0.0757
   41MOL    H8249161   2.688   3.929   0.868 -0.3462  1.0726 -2.8866
   41MOL    O8349162   2.762   4.144   0.744  0.3386 -1.2237 -0.1925
   41MOL    C8449163   2.856   4.238   0.707  0.1141 -0.0655  0.0047
   41MOL    C8549164   2.960   4.164   0.616 -0.1585 -0.0915  0.1858
   41MOL    C8649165   3.059   4.080   0.692 -0.1213  0.0218 -0.1566
   41MOL    C8749166   3.193   4.054   0.612 -0.5590 -0.2655  0.6015
   41MOL    C8849167   3.290   3.963   0.687  0.0368 -0.8456  0.5238
   41MOL    C8949168   3.396   3.901   0.590  0.8221  0.1030  0.0723
   41MOL    C9049169   3.491   3.790   0.644  0.2454  0.2279  0.1726
   41MOL    C9149170   3.572   3.719   0.535  0.0288 -0.9091 -0.2538
   41MOL    C9249171   3.677   3.626   0.594  0.1689  0.2524  0.0779
   41MOL    C9349172   3.761   3.552   0.486 -0.2644  0.0112 -0.0625
   41MOL    O9449173   3.856   3.640   0.432  0.4971 -0.4660  0.0433
   41MOL    C9549174   3.966   3.668   0.504 -0.1204 -0.3479 -0.5955
   41MOL    O9649175   4.007   3.614   0.611  0.0645  0.3837  0.6179
   41MOL    C9749176   4.052   3.780   0.447  0.4355 -0.1937 -0.4460
   41MOL    C9849177   3.978   3.918   0.436  0.4047  0.8853  0.6031
   41MOL    C9949178   3.939   3.969   0.572  0.2295 -0.2696 -0.0105
   41MOL   C10049179   3.863   4.109   0.573 -0.6252 -0.6074  0.0559
   41MOL   C10149180   3.926   4.217   0.484 -0.3387  0.6606 -0.6951
   41MOL   C10249181   3.864   4.353   0.486  0.7606 -0.6669  0.4943
   41MOL   C10349182   3.936   4.452   0.398 -0.0546  0.3738 -0.3069
   41MOL   C10449183   3.905   4.439   0.244  0.2374 -0.8888 -0.5326
   41MOL   C10549184   4.000   4.355   0.164  0.4253  0.2268  0.4356
   41MOL   O10649185   4.126   4.385   0.158  0.1584 -0.3809 -0.2649
   41MOL   H10749186   2.821   4.331   0.661  1.2897  0.6138  0.4558
   41MOL   H10849187   2.894   4.274   0.803  1.7078 -1.6633 -0.0082
   41MOL   H10949188   2.920   4.108   0.531  0.9003  2.8813 -2.3587
   41MOL   H11049189   3.015   4.246   0.569  0.5288 -1.3313 -1.2144
   41MOL   H11149190   3.075   4.119   0.792  0.8242 -0.8424  0.0344
   41MOL   H11249191   3.012   3.992   0.734  1.9534 -1.0138  0.0508
   41MOL   H11349192   3.158   4.018   0.516  1.8532  0.5329 -0.6248
   41MOL   H11449193   3.246   4.148   0.596 -4.2160  1.5636 -1.2910
   41MOL   H11549194   3.234   3.879   0.728 -1.8265  0.2579  0.2639
   41MOL   H11649195   3.339   4.014   0.770 -0.2243 -1.0517  0.8024
   41MOL   H11749196   3.456   3.982   0.548  1.0623 -0.7728 -1.3228
   41MOL   H11849197   3.337   3.865   0.505 -1.8591 -0.3435  2.0683
   41MOL   H11949198   3.436   3.718   0.705 -0.0004  0.7930  0.6287
   41MOL   H12049199   3.564   3.833   0.713  1.4197 -2.0208  0.3809
   41MOL   H12149200   3.624   3.798   0.481  1.9813 -0.8946  1.5887
   41MOL   H12249201   3.510   3.665   0.464  0.7330 -0.1636 -1.4466
   41MOL   H12349202   3.738   3.675   0.670 -0.4131 -1.4976  1.7374
   41MOL   H12449203   3.623   3.553   0.655 -0.5124  0.7119  0.0273
   41MOL   H12549204   3.813   3.470   0.535 -0.3891 -0.0138  0.0295
   41MOL   H12649205   3.714   3.516   0.395  2.3465  0.6293 -1.7015
   41MOL   H12749206   4.082   3.743   0.349 -0.0492 -0.6479 -0.4263
   41MOL   H12849207   4.132   3.787   0.521 -0.2704  2.5371  0.1110
   41MOL   H12949208   3.893   3.920   0.369 -2.3183 -0.3818  3.8825
   41MOL   H13049209   4.034   3.983   0.369  2.3909 -1.8508 -0.4555
   41MOL   H13149210   4.027   3.983   0.636  0.3605 -1.4011  0.0729
   41MOL   H13249211   3.873   3.904   0.629  0.3225 -0.3655 -0.0138
   41MOL   H13349212   3.842   4.147   0.673 -0.1415  1.6729 -0.6740
   41MOL   H13449213   3.761   4.088   0.539 -1.4929  0.8330  1.6301
   41MOL   H13549214   4.029   4.232   0.517 -0.2911 -1.4739  0.2167
   41MOL   H13649215   3.918   4.167   0.387 -0.2006  2.0186 -1.4170
   41MOL   H13749216   3.761   4.329   0.459 -0.2892  2.9637  0.9178
   41MOL   H13849217   3.857   4.409   0.579  0.5825 -2.2540  1.4459
   41MOL   H13949218   4.043   4.455   0.417 -0.3089  0.5562  1.1799
   41MOL   H14049219   3.894   4.551   0.415  1.2965  0.6795  1.3728
   41MOL   H14149220   3.802   4.408   0.229 -0.1260  0.2536 -0.4034
   41MOL   H14249221   3.903   4.539   0.201  0.1423  0.3104  2.1551
   41MOL   O14349222   3.929   4.247   0.116 -0.1614 -0.4914  0.4254
   41MOL   C14449223   4.006   4.137   0.065  0.0590  0.3413 -0.3493
   41MOL   C14549224   3.927   4.024   0.003 -0.1862 -0.0710 -0.2742
   41MOL   C14649225   4.016   3.902   7.732 -0.0072 -0.8946  0.0323
   41MOL   C14749226   3.938   3.775   7.686  0.0500  0.6432  0.5603
   41MOL   C14849227   3.862   3.786   7.547  0.7316 -0.0438 -0.6199
   41MOL   C14949228   3.824   3.643   7.494 -0.4123 -1.1246 -0.2364
   41MOL   C15049229   3.772   3.673   7.357  0.2957 -0.2954 -0.1073
   41MOL   C15149230   3.737   3.555   7.265 -0.2742  0.4014  0.0577
   41MOL   C15249231   3.861   3.477   7.215  0.3453  0.3650  0.5855
   41MOL   C15349232   3.811   3.342   7.165  0.4194 -0.0756 -0.3345
   41MOL   O15449233   3.733   3.355   7.040 -0.1551 -0.2610  0.3343
   41MOL   C15549234   3.777   3.308   6.927  0.7863  0.2411  0.3601
   41MOL   O15649235   3.880   3.242   6.910  0.4944 -0.0278 -0.2718
   41MOL   C15749236   3.685   3.324   6.803 -0.0213  0.5265 -0.1406
   41MOL   C15849237   3.624   3.184   6.769 -0.3890 -0.1101 -0.3129
   41MOL   C15949238   3.495   3.192   6.691 -0.1423  0.2068  0.1387
   41MOL   C16049239   3.416   3.057   6.693  0.3001 -0.1167 -0.0358
   41MOL   C16149240   3.284   3.059   6.612 -0.0594  0.0785 -0.0427
   41MOL   C16249241   3.236   2.922   6.601 -0.2294  0.0160 -0.1291
   41MOL   C16349242   3.091   2.924   6.559  0.2741  0.1007 -0.4878
   41MOL   C16449243   2.980   2.953   6.666  0.8764  0.7697 -0.2276
   41MOL   C16549244   2.838   2.923   6.614 -0.2012  0.6646 -0.0146
   41MOL   O16649245   2.813   2.939   6.501 -0.1275  0.3309  0.6999
   41MOL   H16749246   4.066   4.177   7.740  2.5976  0.9948  1.7694
   41MOL   H16849247   4.077   4.107   0.142  0.0004  0.6065 -0.1895
   41MOL   H16949248   3.840   3.985   0.056  0.6754 -2.9374 -0.8926
   41MOL   H17049249   3.895   4.057   7.661  0.2844  0.8094 -0.1442
   41MOL   H17149250   4.100   3.922   7.666  1.7771 -2.5155  1.7305
   41MOL   H17249251   4.076   3.877   0.064  1.5751  2.0826 -0.1407
   41MOL   H17349252   4.021   3.706   7.668 -0.1739  0.3439  0.6724
   41MOL   H17449253   3.870   3.739   0.006  0.6068 -3.2515 -0.6729
   41MOL   H17549254   3.918   3.840   7.470  0.0440 -0.3841 -1.3597
   41MOL   H17649255   3.763   3.829   7.561  0.6703  0.2185 -1.8474
   41MOL   H17749256   3.759   3.590   7.563  0.7524 -0.0687  1.7297
   41MOL   H17849257   3.922   3.596   7.488  1.4575  2.6094 -0.6636
   41MOL   H17949258   3.833   3.742   7.299  1.0849  0.0217  1.0997
   41MOL   H18049259   3.680   3.732   7.360  0.1545 -0.5831  1.8017
   41MOL   H18149260   3.691   3.595   7.175 -0.7374  1.7359  0.8754
   41MOL   H18249261   3.657   3.499   7.314  0.0316  0.0336  0.1452
   41MOL   H18349262   3.908   3.529   7.132 -1.2180 -0.3514 -0.7715
   41MOL   H18449263   3.947   3.468   7.281  1.8482  0.5946 -1.3178
   41MOL   H18549264   3.900   3.279   7.152  0.0638 -0.7076  0.2420
   41MOL   H18649265   3.754   3.296   7.246 -0.3555  1.0818 -0.2166
   41MOL   H18749266   3.732   3.367   6.714 -1.0108 -0.6123 -1.2311
   41MOL   H18849267   3.605   3.386   6.844 -0.3112 -0.1809  0.3706
   41MOL   H18949268   3.604   3.136   6.865 -0.2647 -2.9185 -1.6343
   41MOL   H19049269   3.698   3.121   6.719 -2.3027 -3.3221  0.7686
   41MOL   H19149270   3.520   3.226   6.591  1.7233  0.9187  0.8264
   41MOL   H19249271   3.424   3.263   6.735 -1.4253 -0.2185 -1.2084
   41MOL   H19349272   3.387   3.031   6.795  0.9120  1.0060  0.4305
   41MOL   H19449273   3.491   2.983   6.665 -1.5640 -1.0754 -2.7627
   41MOL   H19549274   3.216   3.128   6.662 -0.4616  0.4705 -1.1051
   41MOL   H19649275   3.308   3.093   6.511  0.1143  3.5913  1.1181
   41MOL   H19749276   3.296   2.860   6.534 -1.4282 -1.3487  0.0385
   41MOL   H19849277   3.239   2.876   6.699  0.5903 -0.4984 -0.3882
   41MOL   H19949278   3.068   2.830   6.509  0.4729 -0.4298  0.4105
   41MOL   H20049279   3.093   2.988   6.470  1.2310 -0.3119 -0.7764
   41MOL   H20149280   3.013   2.890   6.749 -1.8749 -0.2725  0.1160
   41MOL   H20249281   2.983   3.059   6.690 -0.6891  0.3892  1.7545
   41MOL   H20349282   2.765   2.883   6.683 -0.4088  1.4375  0.2154
   7.75665   7.75665   7.75665
